/*--------------------------------*- C++ -*----------------------------------*\
| =========                 |                                                 |
| \\      /  F ield         | OpenFOAM: The Open Source CFD Toolbox           |
|  \\    /   O peration     | Version:  2112                                  |
|   \\  /    A nd           | Website:  www.openfoam.com                      |
|    \\/     M anipulation  |                                                 |
\*---------------------------------------------------------------------------*/
FoamFile
{
    version     2.0;
    format      ascii;
    arch        "LSB;label=32;scalar=64";
    class       surfaceScalarField;
    location    "4.9995";
    object      phi;
}
// * * * * * * * * * * * * * * * * * * * * * * * * * * * * * * * * * * * * * //

dimensions      [1 0 -1 0 0 0 0];

oriented        oriented;

internalField   nonuniform List<scalar> 
13790
(
0.00290515
5.65038e-09
0.00290514
2.88743e-09
0.00290514
1.03425e-09
0.00290514
1.84433e-10
0.00290514
5.24015e-10
0.00290514
7.01081e-10
0.00290514
8.30187e-10
0.00290514
6.42625e-10
0.00290514
2.18725e-09
0.00290514
1.92728e-09
0.00290513
6.68547e-09
0.00290512
1.51207e-08
0.00290507
7.14684e-08
0.00290492
1.62773e-07
0.00290451
5.75837e-07
0.00290372
9.62337e-07
0.00290124
1.95739e-06
0.00290184
9.46884e-07
0.00289268
4.91195e-06
0.00288876
3.3474e-06
0.00287177
-1.58616e-06
0.00266702
0.000173007
0.00254207
0.000127659
0.00243961
0.000105503
0.00234003
0.000100734
0.00224554
9.56294e-05
0.00215044
9.53346e-05
0.00205406
9.62585e-05
0.00195441
9.91722e-05
0.00185123
0.000102587
0.00174437
0.000106363
0.0016334
0.000110544
0.00151795
0.000115051
0.00139841
0.00011943
0.00127489
0.000123575
0.00114837
0.000126929
0.00101934
0.000129683
0.000889072
0.000131184
0.000758448
0.000131889
0.000628516
0.000131264
0.000500999
0.000129029
0.000377063
0.000125681
0.000258005
0.000120886
0.000146493
0.000113427
4.65896e-05
0.000102034
-3.62842e-05
8.51425e-05
-8.55208e-05
5.15559e-05
-9.22342e-05
9.14606e-06
-6.12607e-05
-2.84648e-05
-5.87781e-05
0.00301309
6.46213e-09
0.00301309
4.76244e-09
0.00301309
3.3371e-09
0.00301309
2.52381e-09
0.00301308
2.25704e-09
0.00301308
2.12991e-09
0.00301308
1.98173e-09
0.00301308
1.57041e-09
0.00301308
3.28249e-09
0.00301308
1.75531e-09
0.00301309
2.8851e-10
0.00301311
-9.49293e-10
0.00301318
3.56848e-08
0.00301326
8.3039e-08
0.00301365
4.32933e-07
0.00301442
1.04222e-07
0.00301459
1.34726e-06
0.00301612
7.72398e-07
0.00301139
5.62443e-06
0.00300625
7.61476e-06
0.00295246
3.37138e-05
0.00278609
0.000307036
0.0026478
0.000267022
0.00253727
0.000219261
0.00243269
0.000206407
0.00233342
0.00019581
0.00223136
0.000197162
0.00212672
0.000200262
0.00201961
0.000205496
0.00190982
0.000211696
0.0017975
0.000218118
0.00168197
0.000225612
0.00156379
0.000232902
0.00144281
0.000240394
0.00131996
0.000246733
0.00119516
0.000252462
0.00106946
0.000256337
0.000942919
0.000258816
0.000817346
0.000258741
0.000693318
0.000256862
0.000571956
0.000252226
0.000454692
0.000244733
0.000344378
0.000233099
0.0002429
0.000217049
0.000153031
0.00019428
8.00161e-05
0.00016066
2.18256e-05
0.000112337
-1.75308e-05
5.11053e-05
-2.61717e-05
-1.71949e-05
-8.23109e-05
0.00312505
6.79387e-09
0.00312504
6.04472e-09
0.00312504
5.3014e-09
0.00312504
4.65745e-09
0.00312504
4.10286e-09
0.00312504
3.58404e-09
0.00312504
3.07946e-09
0.00312503
2.33852e-09
0.00312503
3.39576e-09
0.00312504
-2.33761e-09
0.00312507
-1.99329e-08
0.00312512
-5.49904e-08
0.00312536
-1.56272e-07
0.00312574
-3.84003e-07
0.00312762
-9.89657e-07
0.00312922
-4.30717e-06
0.00313236
1.04907e-07
0.00314023
-7.67178e-06
0.00313128
1.23622e-05
0.00312295
1.56266e-05
0.00306369
7.31573e-05
0.0028839
0.000453324
0.00274953
0.000402851
0.00263777
0.000334269
0.00253243
0.000312777
0.00242889
0.000300163
0.00232333
0.000302226
0.00221431
0.000308406
0.00210278
0.000316194
0.00199008
0.000323915
0.00187503
0.000332822
0.00175795
0.000342266
0.00163845
0.000352265
0.0015177
0.000361318
0.001395
0.000369898
0.00127179
0.000376224
0.00114779
0.000381204
0.00102474
0.000383066
0.000902249
0.000382832
0.000782271
0.000378552
0.000665122
0.00037131
0.000552722
0.000359118
0.000445987
0.000342003
0.000347594
0.000317786
0.000259086
0.000285329
0.000181422
0.000241007
0.000115171
0.000181295
6.1022e-05
0.000108013
2.02916e-05
2.63378e-05
-5.92491e-05
0.00324116
6.62962e-09
0.00324116
6.39642e-09
0.00324116
6.30596e-09
0.00324115
6.08301e-09
0.00324115
5.63385e-09
0.00324115
5.08308e-09
0.00324115
4.46727e-09
0.00324115
3.40714e-09
0.00324115
4.43547e-09
0.00324115
-2.84046e-09
0.00324117
-2.77367e-08
0.0032412
-7.5144e-08
0.00324119
-2.19567e-07
0.00324045
-5.15098e-07
0.00324192
-1.07312e-06
0.00321738
-3.32841e-06
0.00325491
-1.63293e-06
0.00311857
-3.50922e-06
0.00322876
1.01957e-05
0.00323466
2.1238e-05
0.00316916
0.000110408
0.00299934
0.000590645
0.00286712
0.000538258
0.00275433
0.000451001
0.0026463
0.000421726
0.00253998
0.000407011
0.00243029
0.00041105
0.00231533
0.000422394
0.00219904
0.000431903
0.00208227
0.000440241
0.00196458
0.000450279
0.0018456
0.000461171
0.00172559
0.000472276
0.00160447
0.000482477
0.00148312
0.000491501
0.00136155
0.000498603
0.00124059
0.000503369
0.00112014
0.000505121
0.0010013
0.00050334
0.000884054
0.000497578
0.000770378
0.000486917
0.000660093
0.00047164
0.000555066
0.000449357
0.000455376
0.000420054
0.000362789
0.000380515
0.000277334
0.000329193
0.000198186
0.000263292
0.000125419
0.000183707
5.90094e-05
9.57344e-05
2.73248e-06
0.00336158
6.37796e-09
0.00336158
6.4667e-09
0.00336158
6.76048e-09
0.00336158
7.2049e-09
0.00336158
6.77547e-09
0.00336158
6.23527e-09
0.00336158
5.55505e-09
0.00336158
4.39206e-09
0.00336157
5.9892e-09
0.00336157
1.29749e-09
0.00336155
-6.59547e-09
0.00336151
-2.17238e-08
0.00336141
-4.82531e-08
0.00336025
-1.26471e-07
0.00336221
-1.66115e-07
0.00334101
-7.45333e-07
0.00336252
7.617e-07
0.00324653
-3.71797e-07
0.00334862
1.45062e-05
0.00333646
3.09985e-05
0.00327197
0.000148761
0.003092
0.000737409
0.00296265
0.000671311
0.00285848
0.000559346
0.00275582
0.000525116
0.00265186
0.000511353
0.00254314
0.000518522
0.00242678
0.000537915
0.00231022
0.000548408
0.00219281
0.000557681
0.0020739
0.000568957
0.00195404
0.000580634
0.00183388
0.000592452
0.00171382
0.000603103
0.0015939
0.000612466
0.00147433
0.000619531
0.00135516
0.000623974
0.00123667
0.000625013
0.00111962
0.000622067
0.00100426
0.000614917
0.000890842
0.000602603
0.00078045
0.000584393
0.000672484
0.000559945
0.000569029
0.000526189
0.00046848
0.00048392
0.000371418
0.000429163
0.00027661
0.000361121
0.000183219
0.000280216
9.13169e-05
0.000190795
9.72111e-05
0.00348648
6.06093e-09
0.00348648
6.27476e-09
0.00348648
6.7267e-09
0.00348648
7.6041e-09
0.00348648
7.41663e-09
0.00348648
7.06339e-09
0.00348648
6.53383e-09
0.00348648
5.54184e-09
0.00348648
7.20284e-09
0.00348647
5.61762e-09
0.00348646
6.33636e-09
0.00348643
8.17677e-09
0.0034864
3.97399e-08
0.00348549
8.92438e-08
0.00348755
3.26422e-07
0.00346955
5.97165e-07
0.00348864
2.70405e-06
0.00337857
4.07697e-06
0.00347464
1.89479e-05
0.00345899
4.33168e-05
0.00339251
0.000189463
0.00319812
0.000893739
0.00306209
0.000810571
0.00296083
0.0006646
0.00286322
0.000623271
0.00275764
0.000617295
0.00264903
0.000625937
0.00253928
0.000646765
0.00242705
0.000660341
0.00231288
0.000671767
0.00219784
0.000684248
0.00208187
0.000697455
0.00196512
0.000709965
0.00184766
0.000721484
0.0017299
0.000730927
0.00161188
0.000738341
0.00149437
0.000742476
0.00137757
0.000743499
0.00126122
0.000740471
0.00114584
0.00073275
0.00103085
0.000720265
0.000917022
0.000701196
0.000804224
0.000675736
0.000690966
0.000642564
0.000579716
0.000598148
0.000467001
0.000544987
0.000353683
0.000477579
0.000238417
0.000398733
0.000120472
0.000312082
0.000221046
0.00361602
5.73273e-09
0.00361602
6.00604e-09
0.00361602
6.49306e-09
0.00361602
7.49986e-09
0.00361602
7.64297e-09
0.00361602
7.5922e-09
0.00361602
7.33839e-09
0.00361602
6.67094e-09
0.00361602
8.09341e-09
0.00361602
7.57181e-09
0.00361601
1.17477e-08
0.00361602
1.9792e-08
0.00361588
6.86313e-08
0.0036163
1.35093e-07
0.00361571
4.41695e-07
0.0036168
7.11396e-07
0.00361082
3.4817e-06
0.0036504
3.29587e-06
0.00358976
2.4919e-05
0.00359745
5.0699e-05
0.00353319
0.000234256
0.00332913
0.00104829
0.00318928
0.00095548
0.0030888
0.000769864
0.00299288
0.0007194
0.00288558
0.000723773
0.00277825
0.000732326
0.00267245
0.000751882
0.00256587
0.000767218
0.00245742
0.000781055
0.00234776
0.000794578
0.00223618
0.000809374
0.00212363
0.000822915
0.00200978
0.000835818
0.00189559
0.000846297
0.00178077
0.000854913
0.00166496
0.000860486
0.00154847
0.00086244
0.00143116
0.00086075
0.00131279
0.000854236
0.00119347
0.00084286
0.00107171
0.000825978
0.00094923
0.000801184
0.000825098
0.00076977
0.000697126
0.000729312
0.000567091
0.000678188
0.000432106
0.000615914
0.000292325
0.000541942
0.000147923
0.000459946
0.000372436
0.00375038
5.41782e-09
0.00375038
5.64408e-09
0.00375038
6.17793e-09
0.00375038
7.10325e-09
0.00375038
7.57678e-09
0.00375038
7.78127e-09
0.00375038
7.76102e-09
0.00375038
7.35512e-09
0.00375038
8.67106e-09
0.00375037
8.23e-09
0.00375037
1.22828e-08
0.00375037
2.10219e-08
0.00375042
6.5547e-08
0.00374972
1.51325e-07
0.00375226
3.72488e-07
0.00373744
7.8499e-07
0.00375492
3.07037e-06
0.00365261
4.91792e-06
0.00374834
2.61765e-05
0.0037348
5.80111e-05
0.00366981
0.000275151
0.0034823
0.0011869
0.00334429
0.00110139
0.00324796
0.000872915
0.00315439
0.000814474
0.00305381
0.000824057
0.00294977
0.000835956
0.00284644
0.000854879
0.00274286
0.000870984
0.00263935
0.000885416
0.00253482
0.000900666
0.00242971
0.000916406
0.00232226
0.00093262
0.00221369
0.000946925
0.00210206
0.000960567
0.00198879
0.000970894
0.0018725
0.00097969
0.00175371
0.000984275
0.00163165
0.000985855
0.00150616
0.000982689
0.00137748
0.000974491
0.00124544
0.000961166
0.00110812
0.000941736
0.000967784
0.000913422
0.000822568
0.000877932
0.00067016
0.000834057
0.000512786
0.000776655
0.000347905
0.000710376
0.000176675
0.000634783
0.000552716
0.00388972
5.11275e-09
0.00388972
5.22599e-09
0.00388972
5.85296e-09
0.00388972
6.58035e-09
0.00388972
7.44444e-09
0.00388972
7.74062e-09
0.00388972
7.83809e-09
0.00388972
7.53057e-09
0.00388972
8.8949e-09
0.00388972
7.5711e-09
0.00388973
8.61187e-09
0.00388972
1.12174e-08
0.00388975
3.95981e-08
0.00388998
7.86935e-08
0.00388821
3.34729e-07
0.00390042
5.59977e-07
0.00388629
2.94315e-06
0.0039528
1.9984e-06
0.00389014
3.01459e-05
0.00386424
6.90083e-05
0.00382739
0.000299394
0.00367637
0.00128367
0.00355578
0.00123663
0.00346739
0.000972424
0.00337706
0.000908098
0.00328108
0.000920377
0.00318236
0.000934929
0.00308316
0.000955224
0.00298398
0.000972824
0.00288455
0.000987862
0.00278334
0.00100472
0.00268032
0.00102233
0.00257454
0.00104111
0.00246494
0.00105886
0.00235244
0.00107557
0.00223508
0.00109078
0.0021142
0.00110311
0.00198778
0.0011135
0.00185742
0.00111935
0.00172085
0.00112253
0.00157879
0.00111964
0.00143154
0.00111181
0.00127799
0.00109858
0.00111636
0.00107821
0.000949403
0.00104807
0.000776057
0.00101077
0.000592148
0.00096404
0.000402223
0.000903605
0.000203801
0.000836644
0.000759901
0.00403424
4.7778e-09
0.00403424
4.81137e-09
0.00403424
5.46117e-09
0.00403425
6.05074e-09
0.00403425
7.03515e-09
0.00403425
7.61483e-09
0.00403425
8.11618e-09
0.00403425
7.10598e-09
0.00403425
7.3521e-09
0.00403425
-2.63021e-10
0.00403426
-3.29571e-09
0.00403432
-2.93814e-08
0.00403429
-2.83062e-08
0.00403492
-1.43224e-07
0.00403481
-7.84724e-08
0.0040372
-6.46626e-07
0.0040335
2.24075e-06
0.00406187
3.0118e-06
0.00401835
2.9541e-05
0.00402121
7.17804e-05
0.0040067
0.000305074
0.00396709
0.00126015
0.00388461
0.0013386
0.00378739
0.00108324
0.00369304
0.0010082
0.00359895
0.00101695
0.00350623
0.00102967
0.00340695
0.00105546
0.00330463
0.00107634
0.0032007
0.00109417
0.00309475
0.00111334
0.00298506
0.00113442
0.00287238
0.00115601
0.00275538
0.00117814
0.00263376
0.00119908
0.00250735
0.00121912
0.00237544
0.00123715
0.00223816
0.00125272
0.00209385
0.00126592
0.00194365
0.00127481
0.00178459
0.00128095
0.00161834
0.0012799
0.00144576
0.00127353
0.0012647
0.00126188
0.00107358
0.00124196
0.000875133
0.00121202
0.000670094
0.0011722
0.000453438
0.00112356
0.000230464
0.00106264
0.000993541
0.00418414
4.39096e-09
0.00418414
4.42395e-09
0.00418414
4.9992e-09
0.00418414
5.56588e-09
0.00418414
6.40198e-09
0.00418414
7.62055e-09
0.00418414
8.87706e-09
0.00418414
5.98816e-09
0.00418414
3.57084e-09
0.00418416
-1.42457e-08
0.00418417
-2.09902e-08
0.00418428
-1.21348e-07
0.0041843
-1.37026e-07
0.00418515
-5.92486e-07
0.0041852
-7.42983e-07
0.00418867
-2.58034e-06
0.00418653
7.55562e-07
0.00420751
6.02353e-07
0.00417225
3.07612e-05
0.00420284
5.07293e-05
0.00421681
0.000281511
0.00439709
0.00101693
0.00440168
0.00135257
0.00425347
0.00124462
0.00412328
0.0011437
0.00400983
0.0011326
0.00390141
0.00113977
0.003787
0.00117132
0.00366774
0.00119717
0.00354557
0.00121774
0.00342272
0.00123794
0.00329776
0.00126098
0.00316997
0.00128483
0.00303959
0.00130983
0.00290492
0.00133482
0.00276547
0.00135904
0.00261993
0.00138281
0.00246913
0.00140402
0.00231192
0.00142423
0.00214758
0.00144059
0.00197607
0.00145405
0.00179312
0.00146451
0.00160116
0.00146684
0.00140163
0.00146336
0.00119176
0.00145412
0.000970341
0.00143589
0.000737803
0.00140731
0.000500228
0.00136385
0.000252434
0.00131335
0.00124878
0.0043396
3.96177e-09
0.0043396
4.04374e-09
0.0043396
4.49169e-09
0.0043396
5.10386e-09
0.0043396
5.79896e-09
0.0043396
6.59512e-09
0.0043396
7.33191e-09
0.0043396
7.50838e-09
0.0043396
6.35073e-09
0.00433958
2.60527e-09
0.00433953
6.7846e-09
0.00433958
7.07483e-10
0.00433916
4.59384e-08
0.00434178
-6.66057e-08
0.00433452
2.32222e-07
0.00435852
-1.82345e-06
0.00433665
4.25355e-06
0.00431787
8.55145e-06
0.00432862
2.04349e-05
0.00427383
6.78126e-05
0.00442171
0.000130421
0.00478464
0.000587624
0.00478136
0.00136042
0.00456258
0.00146864
0.0044163
0.00129248
0.0042877
0.0012586
0.00416566
0.00125799
0.00404439
0.00129027
0.00391988
0.00132051
0.00379237
0.00134466
0.00366345
0.00136693
0.00353321
0.00139165
0.00339969
0.00141851
0.00326267
0.00144659
0.00312069
0.0014763
0.00297443
0.0015052
0.00282243
0.00153532
0.00266351
0.00156405
0.00249708
0.00159202
0.0023211
0.00161774
0.00213756
0.00163897
0.00194513
0.00165832
0.00173921
0.00167414
0.00152143
0.00168224
0.00129474
0.0016824
0.00105706
0.00167545
0.000807465
0.00165898
0.000544133
0.00162944
0.000276436
0.00158316
0.00152731
0.00450084
3.52483e-09
0.00450084
3.62351e-09
0.00450084
3.98887e-09
0.00450084
4.57552e-09
0.00450084
5.18458e-09
0.00450084
5.66394e-09
0.00450084
5.91681e-09
0.00450084
7.24709e-09
0.00450084
7.63095e-09
0.00450083
1.16722e-08
0.00450081
2.11656e-08
0.00450074
5.91984e-08
0.00450071
1.28329e-07
0.00449994
3.68304e-07
0.00449918
7.69003e-07
0.00449873
2.26214e-06
0.00449848
4.39412e-06
0.00442883
6.14887e-06
0.004504
2.0954e-05
0.00450898
4.45844e-05
0.00452524
0.000103167
0.00473758
0.000345578
0.00471743
0.00136244
0.00460314
0.00157775
0.00447628
0.00141921
0.00435957
0.0013729
0.00424864
0.00136552
0.00413996
0.00139592
0.00402783
0.0014301
0.00391071
0.00145989
0.00378931
0.00148692
0.00366506
0.00151527
0.00353625
0.00154703
0.00340394
0.00157979
0.00326555
0.00161576
0.00311994
0.00165135
0.00296841
0.00168779
0.00280882
0.00172505
0.00264112
0.0017618
0.00246164
0.0017989
0.00226937
0.00183219
0.00206788
0.00186095
0.00185583
0.00188764
0.00162898
0.00191051
0.00138634
0.0019261
0.00113123
0.00193168
0.000864113
0.0019274
0.000586813
0.00190821
0.000295447
0.00187615
0.00182419
0.00466807
3.08967e-09
0.00466807
3.15804e-09
0.00466807
3.49501e-09
0.00466807
3.97355e-09
0.00466807
4.5851e-09
0.00466807
4.89782e-09
0.00466807
5.01914e-09
0.00466807
6.22758e-09
0.00466807
6.84543e-09
0.00466807
1.10694e-08
0.00466807
2.07843e-08
0.00466807
5.84426e-08
0.004668
1.25874e-07
0.00466813
3.58159e-07
0.00466778
6.87457e-07
0.00466362
2.25503e-06
0.00466645
3.88146e-06
0.00470718
4.52528e-06
0.00467035
2.04934e-05
0.00467309
3.91808e-05
0.0046746
9.18601e-05
0.00471282
0.000284389
0.0046272
0.00143065
0.00462914
0.00157256
0.0044868
0.00155936
0.00437122
0.00148642
0.0042646
0.00147143
0.00417081
0.00148965
0.00407008
0.00153122
0.00396513
0.0015659
0.00385515
0.00159756
0.00374133
0.00163025
0.00362194
0.00166722
0.00349604
0.00170628
0.00336441
0.00174827
0.00322325
0.0017927
0.00307395
0.00183685
0.00291666
0.00188315
0.00275032
0.00192957
0.00257407
0.00197725
0.00238237
0.00202518
0.00217497
0.00206922
0.00195404
0.0021094
0.0017208
0.00214479
0.00147195
0.00217592
0.00120589
0.0021985
0.000923607
0.00221037
0.000624273
0.0022082
0.000317867
0.00218319
0.00214269
0.00484151
2.62795e-09
0.00484151
2.68687e-09
0.00484151
2.96596e-09
0.00484151
3.37816e-09
0.00484151
3.9113e-09
0.00484151
4.21776e-09
0.00484151
4.18292e-09
0.00484151
4.95042e-09
0.00484152
3.73199e-09
0.00484152
4.96153e-09
0.00484154
3.88319e-09
0.00484156
2.01628e-08
0.00484167
2.91156e-08
0.00484205
1.28726e-07
0.00484113
1.71468e-07
0.00484503
7.06811e-07
0.00484268
1.88059e-06
0.00491299
-7.26915e-07
0.00485964
2.00729e-05
0.00488106
3.51827e-06
0.0048527
0.000115842
0.00485109
0.000273007
0.00473261
0.00152219
0.00461772
0.00168558
0.00452718
0.00164752
0.00441948
0.00159278
0.00431198
0.00157772
0.00421348
0.00158906
0.00411601
0.00163078
0.00401502
0.00166869
0.00390911
0.00170444
0.00379838
0.00174119
0.00368407
0.00178196
0.00356429
0.00182665
0.00343926
0.00187454
0.00330608
0.00192697
0.00316262
0.00198088
0.00300909
0.00203743
0.00284477
0.00209519
0.00266968
0.00215399
0.00248237
0.00221404
0.00227856
0.0022743
0.00205629
0.00233269
0.00181473
0.00238716
0.0015558
0.00243527
0.00127871
0.00247596
0.000983066
0.00250618
0.000670729
0.00252059
0.000338375
0.00251558
0.00248092
0.00502139
2.13987e-09
0.00502139
2.21048e-09
0.00502139
2.3999e-09
0.0050214
2.79241e-09
0.0050214
3.13695e-09
0.0050214
3.68609e-09
0.0050214
3.52629e-09
0.0050214
3.36933e-09
0.0050214
8.81476e-10
0.00502141
3.35847e-09
0.00502141
-2.17056e-09
0.00502144
1.71993e-08
0.00502144
-6.45294e-09
0.00502174
1.06242e-07
0.00502274
-2.45437e-07
0.00502658
2.97343e-07
0.00502813
-3.84775e-06
0.00504985
-1.51246e-05
0.00503891
3.97292e-05
0.00512526
-9.63089e-05
0.00499712
0.000235633
0.00509768
0.000162341
0.00489027
0.00170838
0.00472164
0.00185328
0.00460211
0.00176588
0.00450013
0.00169372
0.00439346
0.00168475
0.00429026
0.00169308
0.00419254
0.00173034
0.00409155
0.00177172
0.0039867
0.00181125
0.00387752
0.00185142
0.00376423
0.00189606
0.00364606
0.00194524
0.00352331
0.00199844
0.00339449
0.00205689
0.00325737
0.00211918
0.00311035
0.0021858
0.00295072
0.00225628
0.00277755
0.0023287
0.00258957
0.00240318
0.00238692
0.00247779
0.00216674
0.00255389
0.00192635
0.00262835
0.00166264
0.00269935
0.00137534
0.00276325
0.00106343
0.00281781
0.000726212
0.00285727
0.000372584
0.00286837
0.0028526
0.00520796
1.66647e-09
0.00520796
1.66614e-09
0.00520796
1.88501e-09
0.00520797
2.09196e-09
0.00520797
2.46247e-09
0.00520797
2.6484e-09
0.00520797
3.32021e-09
0.00520797
3.5909e-09
0.00520796
6.70007e-09
0.00520795
1.19649e-08
0.00520791
3.95219e-08
0.00520785
7.41747e-08
0.00520761
2.45081e-07
0.00520728
3.97607e-07
0.00520561
1.40911e-06
0.00520275
2.40221e-06
0.00519028
7.84297e-06
0.00517127
1.53813e-06
0.00524311
8.0754e-06
0.00508038
4.39408e-06
0.00526962
8.13764e-05
0.00500328
0.000407828
0.0048943
0.00178373
0.00475872
0.00198854
0.00465624
0.00186837
0.00457205
0.00177689
0.00448197
0.0017753
0.00438825
0.00178803
0.0042909
0.00183014
0.00419098
0.00187373
0.00408897
0.00191532
0.00398233
0.00195905
0.00387152
0.00200714
0.00375519
0.00206168
0.00363346
0.00212027
0.00350627
0.00218479
0.00337191
0.00225424
0.00323008
0.00232896
0.00307824
0.0024096
0.00291265
0.00249573
0.00273088
0.00258582
0.00253068
0.00267899
0.00231071
0.00277443
0.00206768
0.00287183
0.00180021
0.00296708
0.0015044
0.00305896
0.00117764
0.003144
0.000817935
0.00321614
0.000419166
0.00326606
0.00327035
0.00540147
1.14162e-09
0.00540147
1.15043e-09
0.00540147
1.31443e-09
0.00540147
1.48313e-09
0.00540147
1.75772e-09
0.00540147
1.88035e-09
0.00540147
2.0422e-09
0.00540147
2.23659e-09
0.00540147
3.77726e-09
0.00540148
8.30893e-09
0.0054015
2.1009e-08
0.00540152
5.07525e-08
0.00540161
1.30201e-07
0.0054018
2.38972e-07
0.00540256
6.655e-07
0.00540397
1.14658e-06
0.00539808
2.3765e-06
0.00541019
6.42237e-06
0.00526812
7.38606e-06
0.00538169
4.14483e-05
0.00534039
0.000102691
0.00530343
0.000428937
0.00534124
0.00171997
0.00512481
0.00220868
0.00493296
0.00206336
0.00481904
0.00189262
0.00469855
0.00189829
0.0045864
0.00190244
0.00447202
0.00194718
0.00435939
0.00198854
0.00424832
0.00202848
0.00413698
0.00207159
0.00402447
0.00212022
0.00390941
0.00217712
0.00378937
0.00224048
0.0036643
0.0023106
0.00353235
0.0023873
0.00339175
0.00247044
0.00324305
0.00255941
0.00308346
0.00265628
0.00291029
0.00275965
0.00272079
0.002869
0.00251032
0.00298533
0.00227508
0.00310751
0.00200899
0.00323333
0.00170726
0.0033605
0.00136317
0.00348754
0.000967638
0.00361049
0.000517117
0.00371494
0.00378565
0.00560216
5.92801e-10
0.00560216
6.69382e-10
0.00560216
7.76666e-10
0.00560216
9.71022e-10
0.00560216
1.11671e-09
0.00560216
1.34282e-09
0.00560216
1.37827e-09
0.00560216
1.73426e-09
0.00560216
2.74076e-09
0.00560216
6.68864e-09
0.00560217
1.33685e-08
0.00560219
3.42897e-08
0.00560224
7.31501e-08
0.00560237
9.58926e-08
0.00560287
1.84878e-07
0.00560431
4.27153e-08
0.00559942
-2.34823e-06
0.00561756
2.53919e-06
0.00550115
6.23822e-07
0.00562904
3.76343e-05
0.00563526
7.55304e-05
0.00574412
0.000310197
0.00630239
0.0011304
0.00606632
0.00244934
0.00577754
0.00235826
0.00550223
0.0021739
0.00528613
0.00211854
0.0050828
0.00210958
0.0049066
0.0021266
0.00473659
0.00216148
0.00457851
0.00218921
0.00443011
0.00222166
0.00428875
0.00226245
0.00415358
0.00231284
0.00402171
0.00237301
0.00389064
0.00244251
0.00375806
0.00252112
0.00362101
0.0026088
0.00347704
0.0027043
0.00332464
0.00280935
0.00316
0.00292478
0.00297874
0.00305047
0.00278034
0.0031837
0.00255895
0.00332904
0.00230786
0.00348447
0.00201579
0.00365222
0.00167252
0.00383011
0.00125617
0.00402587
0.000722153
0.00424749
0.00450575
0.00581031
1.05314e-10
0.00581031
2.07067e-10
0.00581031
3.12514e-10
0.00581031
4.76844e-10
0.00581031
6.15836e-10
0.00581031
8.48138e-10
0.00581031
1.07664e-09
0.00581031
1.79895e-09
0.00581031
2.0737e-09
0.00581031
5.87891e-09
0.00581033
6.14384e-09
0.00581031
1.72594e-08
0.00581055
1.43368e-08
0.00581032
1.78489e-07
0.00581006
-7.56362e-08
0.00581018
6.97229e-07
0.00581257
-7.15527e-07
0.00581338
-1.81842e-06
0.0057749
-1.01966e-05
0.00580306
5.24424e-05
0.00589419
-2.10437e-05
0.00591563
0.000284618
0.00647535
0.00055731
0.00642962
0.002483
0.00626747
0.00251992
0.00599363
0.00245055
0.00579501
0.00231956
0.00559947
0.00230725
0.0054088
0.00231981
0.00522289
0.00234962
0.00503599
0.00237871
0.00485452
0.00240578
0.00468051
0.0024385
0.00451488
0.00248013
0.00435769
0.00253172
0.00420771
0.0025937
0.00406524
0.0026649
0.00392699
0.00274839
0.00378506
0.00284729
0.0036381
0.00295687
0.00348711
0.003076
0.00332772
0.0032098
0.00315537
0.00335578
0.0029667
0.00351766
0.00275245
0.00369885
0.00250432
0.00390037
0.00219903
0.00413505
0.00180843
0.00441558
0.00128255
0.00477197
0.00578599
0.00840003
8.60633e-12
0.00840003
3.71939e-11
0.00840003
8.1873e-11
0.00840003
1.46734e-10
0.00840003
2.31636e-10
0.00840003
3.33867e-10
0.00840003
5.11712e-10
0.00840003
7.42547e-10
0.00840003
1.65719e-09
0.00840004
2.56092e-09
0.00840004
7.28132e-09
0.00839999
1.62604e-08
0.00840015
2.7337e-08
0.00839983
6.59391e-08
0.00839961
2.73748e-07
0.00840218
4.74611e-07
0.00839262
2.7936e-06
0.0083611
7.89162e-06
0.00835889
5.34793e-06
0.00860178
1.46025e-05
0.00835282
4.48566e-05
0.00847783
0.000124663
0.00838695
0.000648334
0.00848144
0.00235022
0.00833519
0.0026622
0.00820549
0.00257987
0.00808239
0.00244333
0.00794542
0.00244482
0.00780197
0.00246444
0.00763358
0.00251892
0.00744749
0.00256601
0.00724673
0.00260789
0.00703824
0.00264828
0.00682694
0.00269263
0.00661938
0.0027406
0.00641799
0.00279682
0.00621876
0.00286577
0.00602484
0.00294399
0.00584196
0.0030315
0.00566885
0.00313079
0.00550086
0.00324413
0.00534264
0.00336763
0.00519089
0.00350678
0.00505067
0.00365712
0.00493048
0.0038186
0.00483728
0.00399358
0.00481823
0.00415396
0.00493818
0.00429545
0.00538624
0.00432322
0.00391188
0.00725888
0.00840003
1.0873e-12
0.00840003
5.46048e-12
0.00840003
1.49765e-11
0.00840003
3.05142e-11
0.00840003
5.76835e-11
0.00840003
9.05829e-11
0.00840003
1.64897e-10
0.00840003
2.50005e-10
0.00840003
5.71445e-10
0.00840003
9.99504e-10
0.00840004
2.91469e-09
0.00840004
6.45451e-09
0.00840003
2.10538e-08
0.0084003
3.35723e-08
0.00839994
1.5728e-07
0.00839879
3.94129e-07
0.00840026
1.0435e-06
0.00842796
2.55525e-06
0.00840365
8.67984e-06
0.00861983
1.12551e-05
0.0084158
6.11739e-05
0.00839028
0.000138556
0.00841366
0.000619518
0.0086645
0.00206319
0.00845621
0.00286835
0.00830929
0.00272806
0.00817173
0.00258315
0.00803189
0.00258703
0.00789439
0.0026046
0.00777318
0.00264231
0.00763925
0.002701
0.00749257
0.00275503
0.00733751
0.00280316
0.00718116
0.00284901
0.00701947
0.00290254
0.00685466
0.00296212
0.00669685
0.0030246
0.00654943
0.00309252
0.00641187
0.00317025
0.00628818
0.0032554
0.00618249
0.00335017
0.00609547
0.0034545
0.00604112
0.0035604
0.00602067
0.00367676
0.00605769
0.00378081
0.00617352
0.00387724
0.00639109
0.00393649
0.00676755
0.00391876
0.00725597
0.00383514
0.00344289
0.00772472
0.00840003
1.42423e-13
0.00840003
8.02849e-13
0.00840003
2.72549e-12
0.00840003
6.1572e-12
0.00840003
1.33734e-11
0.00840003
2.46831e-11
0.00840003
3.96341e-11
0.00840003
6.49767e-11
0.00840003
1.16362e-10
0.00840003
1.85788e-10
0.00840004
9.11705e-10
0.00840001
1.8001e-09
0.00840012
6.80687e-09
0.00839965
1.27943e-08
0.00840016
5.1499e-08
0.00840031
1.2309e-07
0.00840115
3.8183e-07
0.00840971
2.83673e-07
0.00840354
4.83305e-06
0.00848662
7.19772e-06
0.00843299
3.76969e-05
0.0084752
8.39916e-05
0.00881535
0.000285228
0.00992992
0.00089778
0.0096401
0.00315727
0.00929923
0.00306573
0.00892409
0.00295712
0.00866049
0.0028509
0.00846203
0.00280434
0.0082718
0.00283431
0.00809548
0.00287877
0.00792749
0.00292341
0.00776325
0.00296623
0.00760236
0.00300807
0.00745006
0.00305325
0.00730941
0.00310225
0.00717931
0.00315467
0.0070621
0.00321037
0.00696433
0.00326904
0.0068863
0.00333456
0.00683678
0.00340051
0.00681773
0.00347392
0.00683489
0.00354316
0.00690302
0.00360816
0.00701738
0.00366592
0.00720516
0.00368871
0.00744412
0.00369716
0.00774259
0.00362008
0.00804947
0.00352836
0.00322355
0.00826911
0.00840003
3.76008e-14
0.00840003
1.91201e-13
0.00840003
6.87535e-13
0.00840003
1.64103e-12
0.00840003
3.45913e-12
0.00840003
7.1454e-12
0.00840003
1.7666e-11
0.00840003
2.20546e-11
0.00840003
1.50733e-10
0.00840003
1.99489e-10
0.00840003
9.26132e-10
0.00840004
2.37436e-09
0.00840002
3.54625e-09
0.00840018
4.38705e-09
0.00840009
4.69869e-08
0.00839958
7.72588e-08
0.00840272
2.93214e-07
0.00839758
8.09229e-07
0.00842362
1.58694e-06
0.00821867
2.77603e-06
0.00847951
2.21496e-05
0.00791137
4.15151e-05
0.00855841
0.000202116
0.00890478
0.000560695
0.00933569
0.00268203
0.00920557
0.0031901
0.00899828
0.0031598
0.00885828
0.00298694
0.00870851
0.00295252
0.00856582
0.00297658
0.00842911
0.00301649
0.00829496
0.0030587
0.00816222
0.00309957
0.00802983
0.00313974
0.00790339
0.00317826
0.00778681
0.00321772
0.00768282
0.00325801
0.00759372
0.00329959
0.00752269
0.00334081
0.00747682
0.00338185
0.00745575
0.00342304
0.00747264
0.00345811
0.00752125
0.00349525
0.00761774
0.00351187
0.00775234
0.00353123
0.00793259
0.0035081
0.00814473
0.0034846
0.00836939
0.00339491
0.00860036
0.003297
0.00310305
0.00872086
0.00840003
2.75774e-14
0.00840003
4.58265e-14
0.00840003
3.64182e-13
0.00840003
2.78956e-13
0.00840003
2.75283e-12
0.00840003
1.03872e-12
0.00840003
1.90746e-11
0.00840003
1.02844e-11
0.00840003
1.56992e-10
0.00840003
6.31322e-11
0.00840003
1.17167e-09
0.00840003
5.87211e-10
0.00840001
6.12846e-09
0.00840019
2.75809e-09
0.0084
6.92952e-08
0.00840058
5.62002e-09
0.00840051
5.01934e-07
0.00840049
4.49151e-07
0.0083992
1.10321e-06
0.00836505
1.44058e-06
0.00840361
2.83177e-05
0.00809577
7.9578e-06
0.00841518
0.000257403
0.00845181
0.000441631
0.00900185
0.00215506
0.00896047
0.00323117
0.00886885
0.00324989
0.00878521
0.00306976
0.00869209
0.00304594
0.00861634
0.00305348
0.00854472
0.00308973
0.00847174
0.00313302
0.00839339
0.00317926
0.00831014
0.00322385
0.00823055
0.00325732
0.00815885
0.00328825
0.00809547
0.00331981
0.00804567
0.00334834
0.00800888
0.00337705
0.00799325
0.0033977
0.00799708
0.00341985
0.00802842
0.0034274
0.00808633
0.00343775
0.00817501
0.00342333
0.00829414
0.00341187
0.00843682
0.0033652
0.00860649
0.0033145
0.00877658
0.00322505
0.0089533
0.00312056
0.0029689
0.00908784
0.00840003
4.93998e-15
0.00840003
1.00298e-14
0.00840003
7.29084e-14
0.00840003
6.83277e-14
0.00840003
5.51932e-13
0.00840003
1.35006e-12
0.00840003
5.36023e-12
0.00840003
1.44835e-11
0.00840003
4.41815e-11
0.00840003
1.33436e-10
0.00840003
3.44628e-10
0.00840003
1.01382e-09
0.00840005
2.70569e-09
0.0084
7.8672e-09
0.00840019
1.74833e-08
0.00840031
7.43522e-08
0.00840124
1.77592e-07
0.00839966
5.7057e-07
0.00839439
1.59399e-06
0.00839648
1.36146e-06
0.00848468
5.81894e-06
0.00840307
2.43835e-05
0.00859985
6.74765e-05
0.00876002
0.000269762
0.0100454
0.000855319
0.00992677
0.00334532
0.00964914
0.00352615
0.00930643
0.00341181
0.00914383
0.00320784
0.00901896
0.00317898
0.00890435
0.00320537
0.00879887
0.00323922
0.00870796
0.00327074
0.00863398
0.00329784
0.00856803
0.00332236
0.00851334
0.00334142
0.00847036
0.00336133
0.00844307
0.00337457
0.00843069
0.00338901
0.0084362
0.00339222
0.00845938
0.00339715
0.00850221
0.00338512
0.00856519
0.00337549
0.00864582
0.00334313
0.00874872
0.00330947
0.00886028
0.00325304
0.00898851
0.00318574
0.00911339
0.00309853
0.00923754