/*--------------------------------*- C++ -*----------------------------------*\
| =========                 |                                                 |
| \\      /  F ield         | OpenFOAM: The Open Source CFD Toolbox           |
|  \\    /   O peration     | Version:  2112                                  |
|   \\  /    A nd           | Website:  www.openfoam.com                      |
|    \\/     M anipulation  |                                                 |
\*---------------------------------------------------------------------------*/
FoamFile
{
    version     2.0;
    format      ascii;
    arch        "LSB;label=32;scalar=64";
    class       volScalarField;
    location    "4.9995";
    object      T;
}
// * * * * * * * * * * * * * * * * * * * * * * * * * * * * * * * * * * * * * //

dimensions      [0 0 0 1 0 0 0];

internalField   nonuniform List<scalar> 
7000
(
1
1
1
1
1
1
1
1.00001
1.00001
1.00003
1.00003
1.00034
1.00053
1.00225
1.00402
1.00917
1.04023
1.10468
1.33198
1.89977
2.3896
2.68364
2.68137
2.67627
2.67283
2.68018
2.68687
2.69681
2.70536
2.71282
2.72039
2.72739
2.73464
2.7412
2.74683
2.75215
2.75574
2.75961
2.76165
2.76344
2.76522
2.76604
2.7663
2.76729
2.76915
2.76797
2.76378
2.76115
2.76026
2.76056
1
1
1
1
1
1
1
1.00001
1.00001
1.00003
1.00003
1.00032
1.0005
1.00203
1.00378
1.00783
1.03864
1.10061
1.32194
1.85424
2.37162
2.68065
2.68448
2.67993
2.67649
2.68332
2.69093
2.70084
2.71058
2.71749
2.72555
2.73191
2.7395
2.74504
2.75091
2.75472
2.7581
2.76054
2.76287
2.7644
2.76466
2.76478
2.76616
2.76656
2.76602
2.76574
2.76396
2.76167
2.76
2.75832
1
1
1
1
1
1
1
1.00001
1
1.00003
1.00003
1.0003
1.00046
1.00179
1.00357
1.00631
1.03771
1.09803
1.31592
1.82715
2.35533
2.67595
2.68585
2.68079
2.67691
2.68367
2.69025
2.70184
2.71045
2.71884
2.72495
2.73283
2.73844
2.7453
2.74899
2.75439
2.75697
2.76095
2.76161
2.7638
2.7638
2.7643
2.76419
2.76465
2.76422
2.76327
2.76275
2.76211
2.76101
2.75973
1
1
1
1
1
1
1
1.00001
1
1.00003
1.00003
1.00033
1.00053
1.00213
1.00398
1.00972
1.03697
1.09641
1.30028
1.79248
2.33544
2.67005
2.68727
2.68145
2.67686
2.68346
2.6902
2.70228
2.71073
2.71898
2.72569
2.73267
2.73849
2.74439
2.7496
2.75393
2.75721
2.75955
2.76142
2.76267
2.7644
2.76419
2.76431
2.76347
2.7633
2.76293
2.76254
2.76217
2.76121
2.75897
1
1
1
1
1
1
1
1
1
1.00004
1.00004
1.0004
1.00063
1.00244
1.00466
1.00936
1.03854
1.09283
1.28712
1.75448
2.31197
2.66417
2.69098
2.684
2.67818
2.68348
2.69058
2.70257
2.71056
2.71811
2.72438
2.7318
2.73808
2.74373
2.74797
2.75157
2.75442
2.75704
2.75981
2.76143
2.7625
2.76374
2.76329
2.76435
2.76355
2.76327
2.7628
2.76227
2.7615
2.7606
1
1
1
1
1
1
1
1
1
1.00004
1.00005
1.00039
1.00063
1.00235
1.00459
1.00832
1.03705
1.08746
1.27307
1.70834
2.28057
2.65508
2.69603
2.68875
2.68126
2.68469
2.69221
2.70267
2.71074
2.71814
2.72486
2.73034
2.73572
2.74014
2.74472
2.74851
2.75291
2.75594
2.75784
2.76016
2.76048
2.76207
2.76194
2.76064
2.76312
2.76275
2.76295
2.76276
2.76182
2.75972
1
1
1
1
1
1
1
1
1
1.00003
1.00005
1.00037
1.00061
1.00215
1.00453
1.00669
1.03579
1.07851
1.26242
1.65333
2.24087
2.6448
2.7008
2.69223
2.68332
2.6851
2.69461
2.70235
2.71157
2.71591
2.72285
2.72726
2.73433
2.73839
2.74413
2.74691
2.74998
2.75297
2.75483
2.75665
2.75783
2.75757
2.76071
2.7606
2.75982
2.76316
2.76281
2.76255
2.76233
2.76141
1
1
1
1
1
1
1
1
1
1.00003
1.00005
1.00035
1.00057
1.00202
1.00402
1.00627
1.03246
1.0743
1.241
1.59678
2.19355
2.62958
2.70693
2.69759
2.68513
2.68535
2.6944
2.70138
2.70986
2.71602
2.72121
2.72681
2.73028
2.73579
2.73733
2.74266
2.74357
2.74766
2.74892
2.75182
2.7545
2.75607
2.75646
2.76003
2.75982
2.75914
2.76343
2.76245
2.76119
2.75914
1
1
1
1
1
1
1
1
1
1.00003
1.00005
1.00033
1.00053
1.00183
1.00387
1.00646
1.02885
1.06341
1.22393
1.53108
2.13342
2.61077
2.71123
2.6981
2.68274
2.68227
2.69085
2.69919
2.7046
2.71016
2.71341
2.71925
2.72253
2.72764
2.73187
2.73491
2.73967
2.74146
2.74617
2.74673
2.75077
2.7533
2.7538
2.75458
2.75874
2.75862
2.75827
2.76225
2.76166
2.76071
1
1
1
1
1
1
1
1
1
1.00003
1.00005
1.00031
1.00051
1.00169
1.00362
1.00492
1.02723
1.05844
1.19881
1.47312
2.04305
2.57999
2.71062
2.69627
2.67546
2.67386
2.68016
2.68875
2.69668
2.703
2.70738
2.71211
2.71757
2.72114
2.72602
2.72971
2.7335
2.73693
2.73925
2.74319
2.74409
2.74957
2.75321
2.75337
2.75464
2.75804
2.75944
2.75859
2.75902
2.75686
1
1
1
1
1
1
1
1
1
1.00003
1.00006
1.00029
1.0005
1.00153
1.0033
1.00461
1.02364
1.04956
1.17375
1.41167
1.94551
2.53594
2.7043
2.68707
2.66493
2.66376
2.6729
2.68079
2.68907
2.69514
2.70143
2.70579
2.71225
2.71725
2.7219
2.72682
2.73107
2.73692
2.73961
2.74358
2.74533
2.74525
2.75086
2.75421
2.75358
2.75395
2.75479
2.76037
2.75895
2.75914
1
1
1
1
1
1
1
1
1.00001
1.00002
1.00015
1.00025
1.00097
1.0014
1.00467
1.00659
1.01566
1.04811
1.1419
1.37461
1.81695
2.53105
2.7096
2.6865
2.65785
2.65632
2.66715
2.67565
2.68545
2.69154
2.69793
2.7027
2.70796
2.7134
2.71822
2.72446
2.72772
2.73265
2.73591
2.73979
2.74521
2.74591
2.74577
2.74985
2.75438
2.75409
2.75161
2.75043
2.7543
2.75056
1
1
1
1
1
1
1
1
1.00001
1.00002
1.00014
1.00022
1.00088
1.00128
1.00501
1.00489
1.01705
1.03095
1.12782
1.322
1.81056
2.58009
2.71937
2.69398
2.66974
2.66262
2.67092
2.67662
2.68544
2.69125
2.69683
2.70258
2.70725
2.71331
2.71565
2.72144
2.72552
2.72873
2.73216
2.73319
2.73854
2.74469
2.74587
2.74464
2.74583
2.74962
2.75081
2.75203
2.74909
2.7507
1
1
1
1
1
1
1
1
1.00001
1.00002
1.00012
1.00019
1.00074
1.00106
1.00407
1.0036
1.01486
1.02153
1.11614
1.28284
1.78004
2.58002
2.71012
2.67699
2.67439
2.6682
2.67387
2.67845
2.686
2.69104
2.69455
2.69939
2.70182
2.70685
2.7101
2.71334
2.71956
2.72339
2.72729
2.72885
2.72894
2.73403
2.73954
2.74389
2.74303
2.74208
2.74058
2.7383
2.74274
2.73797
1
1
1
1
1
1
1
1
1.00001
1.00002
1.0001
1.00016
1.00057
1.00087
1.0031
1.00314
1.01195
1.01137
1.10093
1.25092
1.74611
2.55168
2.68981
2.68546
2.67289
2.66579
2.67027
2.67662
2.68342
2.68844
2.69209
2.69694
2.70149
2.70465
2.70819
2.70913
2.71272
2.71617
2.72048
2.72387
2.72548
2.72527
2.72697
2.73
2.73477
2.73721
2.73732
2.73573
2.73114
2.73368
1
1
1
1
1
1
1
1
1.00001
1.00002
1.00009
1.00014
1.00052
1.00071
1.00283
0.999518
1.01645
1.00327
1.08739
1.21461
1.70689
2.49687
2.66654
2.68521
2.67551
2.66568
2.66729
2.67319
2.67776
2.68346
2.6859
2.69032
2.69404
2.69853
2.70236
2.70429
2.7062
2.70742
2.709
2.71224
2.71531
2.71923
2.71993
2.72062
2.72017
2.72128
2.72035
2.71815
2.72108
2.7139
1
1
1
1
1
1
1
1
1.00001
1.00004
1.00006
1.00025
1.0004
1.00123
1.00214
1.00905
1.00663
1.02906
1.06369
1.25114
1.61328
2.23353
2.63026
2.69438
2.68438
2.67261
2.67111
2.67532
2.67789
2.68198
2.68339
2.68484
2.68801
2.69058
2.69513
2.69785
2.70063
2.70243
2.70184
2.70143
2.70155
2.7028
2.70506
2.70664
2.70973
2.70991
2.70957
2.70604
2.69896
2.70177
1
1
1
1
1
1
1
1
1.00001
1.00001
1.00005
1.00008
1.00026
1.00054
1.00089
1.00437
1.00186
1.02529
1.05922
1.19954
1.48849
2.08093
2.55156
2.68316
2.67622
2.67137
2.66869
2.67362
2.67595
2.67974
2.68166
2.68222
2.68398
2.68428
2.68596
2.68768
2.68935
2.69144
2.69408
2.69388
2.69301
2.69151
2.68959
2.6873
2.68518
2.68565
2.68263
2.67984
2.67781
2.6662
1
1
1
1
1
1
1
1
1.00001
1.00001
1.00004
1.00005
1.00019
1.00041
1.00058
1.00355
1.00154
1.02031
1.04352
1.15575
1.37373
1.90952
2.46125
2.65035
2.63803
2.64056
2.6416
2.65352
2.66113
2.66942
2.67433
2.67627
2.67871
2.68011
2.68036
2.67998
2.67934
2.67817
2.67788
2.67794
2.67728
2.67655
2.67464
2.67103
2.6673
2.66137
2.65899
2.64745
2.63349
2.62782
1
1
1
1
1
1
1
1
1
1.00001
1.00002
1.00005
1.00004
1.00041
1.00065
1.00337
1.00324
1.01479
1.02031
1.11575
1.28612
1.77285
2.51465
2.6494
2.63521
2.62833
2.62159
2.62966
2.6369
2.64588
2.65425
2.66026
2.66443
2.66832
2.6706
2.67158
2.67122
2.66996
2.66717
2.66382
2.66118
2.65543
2.65178
2.64383
2.63518
2.62566
2.61107
2.60089
2.5699
2.48051
1
1
1
1
1
1
1
1
1
1
1.00002
1.00002
1.00013
1.00007
1.0012
1.00178
1.01124
1.00758
1.03472
1.08196
1.29318
1.73688
2.3016
2.62379
2.64596
2.63677
2.62462
2.62479
2.62842
2.63246
2.63756
2.64078
2.64431
2.64608
2.64852
2.64895
2.64935
2.6482
2.64626
2.64213
2.6379
2.63297
2.62316
2.61473
2.5971
2.57703
2.55038
2.5034
2.45183
2.33921
1
1
1
1
1
1
1
1
1
1
1.00001
1.00001
1.00007
1.00007
1.00052
1.00063
1.0055
1.00178
1.02832
1.06156
1.22133
1.51717
2.12315
2.52287
2.62589
2.62089
2.62009
2.61802
2.62115
2.62293
2.62669
2.62892
2.6312
2.63319
2.63322
2.63263
2.62976
2.6266
2.61951
2.61439
2.60369
2.5953
2.58348
2.56661
2.55125
2.51872
2.48847
2.43383
2.35184
2.27494
1
1
1
1
1
1
1
1
1
1
1
1.00001
1.00003
1.00004
1.00029
1.00042
1.00345
1.00117
1.01977
1.03595
1.13674
1.33167
1.76922
2.41583
2.59943
2.59188
2.58524
2.57846
2.58182
2.58882
2.59429
2.59954
2.60292
2.60738
2.61001
2.6103
2.60939
2.60695
2.60233
2.59281
2.58428
2.56604
2.55355
2.52848
2.50497
2.47505
2.43019
2.39147
2.31161
2.26494
1
1
1
1
1
1
1
1
1
1
1
1.00001
1.00003
1.00002
1.00025
1.0004
1.00221
1.00247
1.01617
1.0098
1.09445
1.24393
1.69107
2.43719
2.60107
2.6105
2.5943
2.58016
2.5734
2.57547
2.57618
2.57653
2.57657
2.577
2.57641
2.57572
2.57452
2.57163
2.56826
2.56071
2.5517
2.539
2.51903
2.50162
2.46765
2.44339
2.39334
2.36081
2.29561
2.25502
1
1
1
1
1
1
1
1
1
1
1
1
1.00002
1.00002
1.0002
1.00026
1.00165
1.0018
1.01351
1.00591
1.0773
1.17121
1.57896
2.31764
2.50958
2.59024
2.57848
2.5751
2.56711
2.5658
2.56566
2.56514
2.5638
2.56028
2.55721
2.55274
2.54878
2.54392
2.53702
2.53057
2.51845
2.50892
2.48914
2.47497
2.44425
2.42399
2.38168
2.35084
2.30079
2.25853
1
1
1
1
1
1
1
1
1
1
1
1.00001
1.00001
1.00005
1.00004
1.00038
1.00055
1.00316
1.00241
1.01453
1.0199
1.1198
1.29457
1.76141
2.41179
2.56668
2.56309
2.55275
2.54472
2.54147
2.54181
2.54169
2.54006
2.53709
2.53283
2.52946
2.5232
2.51841
2.50856
2.50152
2.48688
2.47703
2.45618
2.4428
2.4158
2.39483
2.36406
2.33292
2.29804
2.26195
1
1
1
1
1
1
1
1
1
1
1
1
1.00001
1.00003
1.00003
1.00027
1.00038
1.00232
1.00254
1.0177
1.00465
1.09123
1.19406
1.63373
2.33319
2.5287
2.56947
2.55182
2.54011
2.53159
2.52713
2.52538
2.52126
2.51697
2.51088
2.50666
2.49943
2.49464
2.48503
2.47853
2.4648
2.45571
2.43716
2.42301
2.40078
2.37887
2.35279
2.3242
2.29217
2.26187
1
1
1
1
1
1
1
1
1
1
1
1
1
1.00002
1.00002
1.00018
1.00026
1.00154
1.00169
1.0118
1.00208
1.06211
1.12705
1.45603
2.09169
2.38482
2.54323
2.53782
2.53091
2.52145
2.51733
2.51531
2.51027
2.50559
2.49583
2.48972
2.47807
2.47142
2.45805
2.45072
2.4362
2.4262
2.41109
2.39606
2.37939
2.36008
2.33934
2.31652
2.29036
2.2631
1
1
1
1
1
1
1
1
1
1
1
1
1
1.00001
1.00001
1.00011
1.00017
1.001
1.00105
1.00793
1.00017
1.04009
1.0856
1.2632
1.68254
2.16263
2.45034
2.4971
2.49397
2.49519
2.49647
2.49933
2.49866
2.49629
2.48917
2.48324
2.47105
2.46344
2.44964
2.43847
2.42406
2.40969
2.39476
2.37805
2.36063
2.3419
2.32219
2.30056
2.27892
2.25793
1
1
1
1
1
1
1
1
1
1
1
1
1
1
1.00002
1.00002
1.00018
1.00024
1.00157
1.00173
1.0123
1.00221
1.06436
1.12837
1.45463
2.06871
2.32812
2.46283
2.46661
2.46075
2.45639
2.45795
2.46167
2.46429
2.46347
2.46107
2.45472
2.44683
2.43687
2.42461
2.41255
2.39788
2.38347
2.36743
2.35101
2.33279
2.31442
2.29403
2.27282
2.25229
1
1
1
1
1
1
1
1
1
1
1
1
1
1
1.00001
1.00001
1.00011
1.00013
1.0009
1.00096
1.00688
1.00117
1.03644
1.07519
1.24408
1.62428
2.11115
2.39277
2.44686
2.44684
2.44464
2.44158
2.44198
2.44303
2.44253
2.4408
2.43728
2.43092
2.42332
2.41276
2.40111
2.38756
2.37306
2.35743
2.34118
2.32397
2.30629
2.28765
2.26809
2.24909
1
1
1
1
1
1
1
1
1
1
1
1
1
1
1.00001
1.00002
1.00002
1.00017
1.00023
1.00134
1.00135
1.01108
1.00292
1.05178
1.11366
1.34765
1.89644
2.22419
2.40172
2.41034
2.40662
2.40437
2.40289
2.40363
2.40529
2.40684
2.40673
2.40555
2.40303
2.39755
2.38959
2.37866
2.36619
2.35156
2.33646
2.31926
2.30244
2.28367
2.26534
2.24668
1
1
1
1
1
1
1
1
1
1
1
1
1
1
1
1.00001
1.00003
1.00003
1.00024
1.00026
1.00187
1.00196
1.01427
1.00277
1.07753
1.14619
1.54812
2.16161
2.353
2.39947
2.3972
2.38808
2.3784
2.37321
2.36898
2.36785
2.36543
2.36459
2.3626
2.36171
2.35969
2.35665
2.35073
2.34054
2.32917
2.31453
2.29956
2.28225
2.26478
2.24731
1
1
1
1
1
1
1
1
1
1
1
1
1
1
1
1.00001
1.00001
1.00005
1.00002
1.00037
1.00042
1.00274
1.00233
1.01953
1.00658
1.09673
1.21806
1.62305
2.23702
2.3614
2.38861
2.38542
2.37748
2.36756
2.3593
2.35105
2.34528
2.33689
2.33174
2.32419
2.32047
2.31431
2.31163
2.30733
2.30309
2.29666
2.28792
2.27569
2.26171
2.247
1
1
1
1
1
1
1
1
1
1
1
1
1
1
1
1
1.00001
1.00002
1.00006
1.00012
1.00041
1.00082
1.00258
1.00608
1.01619
1.04756
1.1027
1.32548
1.83504
2.18819
2.3671
2.37761
2.37051
2.36372
2.35489
2.34576
2.33874
2.32972
2.32124
2.3113
2.30201
2.29262
2.28317
2.27564
2.26707
2.26056
2.25277
2.24767
2.23887
2.23215
1
1
1
1
1
1
1
1
1
1
1
1
1
1
1
1
1
1.00001
1.00003
1.00003
1.00022
1.00022
1.0016
1.00168
1.01145
1.00158
1.06477
1.12324
1.46056
2.02478
2.2678
2.36411
2.36457
2.35477
2.34679
2.33644
2.32788
2.32064
2.31168
2.30369
2.29339
2.28454
2.27406
2.26419
2.25465
2.24449
2.23623
2.22652
2.21861
2.20957
1
1
1
1
1
1
1
1
1
1
1
1
1
1
1
1
1
1
1.00001
1.00001
1.00009
1.00009
1.00069
1.00074
1.00569
1.00089
1.03276
1.05628
1.20286
1.54091
1.96403
2.26495
2.32751
2.33327
2.32882
2.32385
2.31574
2.30883
2.30082
2.29271
2.28394
2.27443
2.26531
2.2552
2.24599
2.23612
2.2266
2.21662
2.20708
2.19902
1
1
1
1
1
1
1
1
1
1
1
1
1
1
1
1
1
1
1
1.00002
1.00002
1.00014
1.00005
1.00072
1.00183
1.00421
1.0127
1.03469
1.07674
1.22398
1.63928
1.9963
2.23344
2.27352
2.28555
2.29068
2.29139
2.29023
2.28768
2.28329
2.27797
2.27069
2.26353
2.25489
2.24638
2.23675
2.22767
2.21836
2.21064
2.20331
1
1
1
1
1
1
1
1
1
1
1
1
1
1
1
1
1
1
1
1.00001
1.00001
1.00007
1.00006
1.00053
1.00058
1.0041
1.00131
1.02624
1.00268
1.10276
1.22963
1.59457
2.13433
2.2304
2.23406
2.23431
2.23518
2.23534
2.23681
2.24051
2.2445
2.24742
2.24801
2.24667
2.24369
2.23816
2.23349
2.22769
2.22406
2.22438
1
1
1
1
1
1
1
1
1
1
1
1
1
1
1
1
1
1
1
1
1.00002
1.00002
1.00014
1.00013
1.00061
1.00054
1.00439
1.00147
1.02768
1.00407
1.10816
1.22386
1.6188
2.10812
2.24628
2.2485
2.24221
2.23475
2.22523
2.21898
2.21598
2.21616
2.21704
2.21957
2.22289
2.2263
2.22921
2.23548
2.24233
2.25181
1
1
1
1
1
1
1
1
1
1
1
1
1
1
1
1
1
1
1
1
1
1.00002
1.00002
1.00008
1.00013
1.00042
1.00089
1.00258
1.00556
1.01737
1.04366
1.08727
1.2553
1.6906
2.00823
2.21759
2.24469
2.24188
2.23391
2.22878
2.22242
2.22106
2.22234
2.22524
2.23124
2.23931
2.25009
2.26338
2.28082
2.29945
1
1
1
1
1
1
1
1
1
1
1
1
1
1
1
1
1
1
1
1
1
1
1
1.00002
1.00007
1.00015
1.00011
1.00103
1.00091
1.00917
1.00295
1.04453
1.09404
1.25792
1.69764
1.98154
2.17676
2.21891
2.22434
2.23104
2.23526
2.2414
2.25072
2.26198
2.27682
2.29077
2.31024
2.32875
2.34749
2.36215
1
1
1
1
1
1
1
1
1
1
1
1
1
1
1
1
1
1
1
1
1
1
1.00001
1.00001
1.00004
1.00006
1.00025
1.0003
1.0013
1.00179
1.00635
1.012
1.04389
1.09525
1.21933
1.56403
2.03836
2.17699
2.21641
2.24186
2.26691
2.29122
2.31771
2.34259
2.36679
2.38957
2.40603
2.41619
2.42174
2.42085
1
1
1
1
1
1
1
1
1
1
1
1
1
1
1
1
1
1
1
1
1
1
1
1
1.00002
1.00002
1.0001
1.00012
1.00051
1.00072
1.00261
1.00463
1.01718
1.0355
1.09776
1.22837
1.6091
1.9049
2.18479
2.29347
2.36956
2.40726
2.42791
2.43976
2.4446
2.44166
2.43781
2.43372
2.42543
2.41759
1
1
1
1
1
1
1
1
1
1
1
1
1
1
1
1
1
1
1
1
1
1
1
1
1
1.00001
1.00002
1.00008
1.00011
1.00048
1.00056
1.00191
1.00481
1.00868
1.03929
1.07864
1.23872
1.63229
2.03155
2.38978
2.57225
2.59016
2.56094
2.5362
2.50058
2.4711
2.44988
2.43444
2.42196
2.40974
1
1
1
1
1
1
1
1
1
1
1
1
1
1
1
1
1
1
1
1
1
1
1
1
1
1
1.00002
1.00004
1.00009
1.00032
1.00028
1.00183
1.00213
1.00905
1.01741
1.05231
1.15248
1.38975
1.92856
2.63288
2.75438
2.70106
2.6741
2.6296
2.59447
2.56819
2.54537
2.52886
2.50678
2.49331
1
1
1
1
1
1
1
1
1
1
1
1
1
1
1
1
1
1
1
1
1
1
1
1
1.00001
1.00001
1.00003
1.00004
1.00015
1.0002
1.00074
1.00086
1.00371
1.0072
1.01363
1.05073
1.13858
1.32808
1.9139
2.63682
2.79225
2.76149
2.7425
2.69693
2.6491
2.60943
2.58009
2.55483
2.53408
2.51839
1
1
1
1
1
1
1
1
1
1
1
1
1
1
1
1
1
1
1
1
1
1
1
1
1
1
1.00001
1.00002
1.00006
1.0001
1.00035
1.00074
1.00179
1.0048
1.01431
1.03599
1.06882
1.35801
1.97276
2.40813
2.6691
2.70021
2.70337
2.70001
2.69509
2.68168
2.66332
2.63828
2.61659
2.59354
1
1
1
1
1
1
1
1
1
1
1
1
1
1
1
1
1
1
1
1
1
1
1
1
1
1
1.00001
1.00001
1.00006
1.00008
1.00032
1.0006
1.00174
1.00379
1.0127
1.0267
1.06787
1.27505
1.79113
2.24361
2.65699
2.71904
2.71222
2.71193
2.71813
2.72196
2.72024
2.71323
2.70291
2.69594
1
1
1
1
1
1
1
1
1
1
1
1
1
1
1
1
1
1
1
1
1
1
1
1
1
1
1.00001
1.00001
1.00007
1.00007
1.00037
1.00044
1.00173
1.0031
1.01135
1.02099
1.06393
1.21457
1.65434
2.14423
2.68987
2.77431
2.76046
2.7432
2.73161
2.72507
2.72276
2.72076
2.71817
2.71609
1
1
1
1
1
1
1
1
1
1
1
1
1
1
1
1
1
1
1
1
1
1
1
1
1
1
1.00001
1.00002
1.00002
1.00011
1.00029
1.00038
1.00208
1.00248
1.01163
1.01845
1.08259
1.1703
1.55104
2.08023
2.69079
2.80713
2.79132
2.75631
2.7306
2.72274
2.72215
2.72175
2.71989
2.71278
1
1
1
1
1
1
1
1
1
1
1
1
1
1
1
1
1
1
1
1
1
1
1
1
1
1
1.00001
1.00002
1.00003
1.00012
1.00007
1.00064
1.00133
1.003
1.0095
1.02164
1.0514
1.17908
1.49823
2.03918
2.66913
2.81418
2.79722
2.75877
2.73723
2.73227
2.73124
2.72748
2.7169
2.69368
1
1
1
1
1
1
1
1
1
1
1
1
1
1
1
1
1
1
1
1
1
1
1
1
1
1
1.00001
1.00002
1.00003
1.0001
1.0002
1.00056
1.00163
1.00258
1.01126
1.01611
1.05269
1.15894
1.45654
1.99722
2.64637
2.81211
2.79748
2.77509
2.76369
2.74801
2.73397
2.70776
2.68027
2.64994
1
1
1
1
1
1
1
1
1
1
1
1
1
1
1
1
1
1
1
1
1
1
1
1
1
1
1.00001
1.00002
1.00003
1.00012
1.00008
1.00059
1.00113
1.00272
1.00861
1.01831
1.04657
1.16384
1.44971
1.99402
2.59957
2.80176
2.7958
2.79284
2.78272
2.75181
2.71446
2.67633
2.64798
2.62784
1
1
1
1
1
1
1
1
1
1
1
1
1
1
1
1
1
1
1
1
1
1
1
1
1
1
1.00001
1.00002
1.00003
1.00009
1.00009
1.00044
1.00009
1.00362
1.00629
1.01279
1.06005
1.14179
1.44822
1.96951
2.58003
2.80422
2.80558
2.80529
2.78313
2.73078
2.68677
2.65651
2.63863
2.62785
1
1
1
1
1
1
1
1
1
1
1
1
1
1
1
1
1
1
1
1
1
1
1
1
1
1
1
1.00002
1.00003
1.00015
1.0001
1.00052
1.00063
1.00401
1.00288
1.02007
1.04048
1.14517
1.38866
1.98014
2.59546
2.81936
2.817
2.80719
2.76272
2.69995
2.66119
2.6404
2.63229
2.62656
1
1
1
1
1
1
1
1
1
1
1
1
1
1
1
1
1
1
1
1
1
1
1
1
1
1
1
1.00001
1.00001
1.00005
1.00009
1.00027
1.00104
1.00015
1.00767
0.962919
1.06216
1.07349
1.5962
2.44854
2.62526
2.67442
2.69526
2.70647
2.71028
2.71624
2.72503
2.73409
2.73791
2.73957
1
1
1
1
1
1
1
1
1
1
1
1
1
1
1
1
1
1
1
1
1
1
1
1
1
1
1
1.00001
1.00002
1.00006
1.0001
1.00019
1.00084
1.00153
1.00384
1.00961
1.04835
1.07727
1.44919
2.20219
2.55997
2.68726
2.69029
2.6841
2.68978
2.705
2.7254
2.74558
2.75556
2.76058
1
1
1
1
1
1
1
1
1
1
1
1
1
1
1
1
1
1
1
1
1
1
1
1
1
1
1
1.00003
1.00003
1.00018
1.0002
1.00109
1.00121
1.00625
1.00407
1.03496
0.977805
1.14681
1.32121
1.95722
2.71571
2.83908
2.81198
2.77229
2.72372
2.68568
2.66461
2.65745
2.65361
2.65356
1
1
1
1
1
1
1
1
1
1
1
1
1
1
1
1
1
1
1
1
1
1
1
1
1
1
1
1.00001
1.00002
1.00008
1.00009
1.00042
1.00061
1.00221
1.0041
1.01315
1.03766
1.0933
1.35491
2.00106
2.45418
2.72513
2.73754
2.73295
2.71395
2.71529
2.72225
2.74341
2.76467
2.77363
2.08933
2.61976
2.78681
2.92221
2.88083
2.85982
2.83736
2.81919
2.78644
2.76349
2.73578
2.71799
2.68975
2.66984
2.63936
2.62332
2.6056
2.60028
2.59872
2.60618
2.62024
2.64522
2.67714
2.71145
2.7434
2.77249
2.79464
2.8166
2.82974
2.84259
2.85267
2.86121
2.86641
2.87154
2.87319
2.874
2.87285
2.87057
2.86841
2.86541
2.86202
2.85975
2.8547
2.85193
2.84637
2.84312
2.83568
2.83201
2.82433
2.82029
2.81155
2.80731
2.79857
2.79442
2.78571
2.78142
2.7723
2.76795
2.75893
2.75475
2.74617
2.74215
2.734
2.72963
2.72216
2.7171
2.71059
2.70488
2.69912
2.69313
2.68748
2.68147
2.67548
2.6693
2.66295
2.65643
2.64965
2.64299
2.6355
2.62891
2.62064
2.61414
2.60516
2.59874
2.58934
2.58235
2.57336
2.5652
2.55659
2.54783
2.53903
2.53017
2.52148
2.51248
2.50392
2.49566
2.48762
2.4811
2.47528
2.47246
2.11242
2.40345
2.62647
2.83533
2.97354
3.036
2.97176
2.95689
2.92344
2.90992
2.89752
2.88192
2.86927
2.84935
2.8401
2.82868
2.82546
2.82576
2.84753
2.86813
2.89557
2.93303
2.96483
2.99861
3.02238
3.03583
3.03991
3.03879
3.02821
3.01088
2.9886
2.97185
2.95331
2.93371
2.90985
2.88947
2.87197
2.85465
2.83702
2.82068
2.80457
2.79066
2.77468
2.76269
2.7493
2.73993
2.72597
2.71736
2.70611
2.69886
2.68834
2.68093
2.67154
2.66477
2.65627
2.65033
2.6422
2.63691
2.62893
2.62401
2.61648
2.61152
2.60463
2.59931
2.59286
2.58715
2.58079
2.57469
2.56816
2.56173
2.55491
2.54822
2.54114
2.53428
2.52684
2.51991
2.51196
2.50502
2.49645
2.48959
2.48051
2.47352
2.46435
2.45682
2.44803
2.43976
2.43126
2.42259
2.41397
2.4052
2.39659
2.38767
2.3792
2.3706
2.36215
2.35452
2.34667
2.34079
2.33505
2.333
2.16474
2.27507
2.392
2.51927
2.61806
2.80432
2.89227
2.94513
2.99613
3.07437
3.02586
2.97102
2.96696
2.9663
2.97301
2.9799
2.98603
3.00053
3.03241
3.04746
3.08154
3.1143
3.1392
3.14714
3.14852
3.14505
3.13295
3.11476
3.08991
3.06722
3.0442
3.01812
2.99198
2.96764
2.93891
2.91532
2.88675
2.86417
2.83628
2.81299
2.78624
2.76235
2.73822
2.71546
2.69259
2.67268
2.65442
2.63513
2.61764
2.601
2.58637
2.57264
2.55951
2.54817
2.53647
2.52727
2.51752
2.51013
2.50244
2.49659
2.49058
2.48596
2.48116
2.47782
2.47444
2.47244
2.47013
2.46881
2.46682
2.46543
2.46291
2.46065
2.45683
2.4535
2.44845
2.44431
2.43809
2.43315
2.42586
2.42021
2.41208
2.40569
2.39727
2.38995
2.38165
2.37348
2.36519
2.35657
2.34815
2.33942
2.33103
2.3222
2.31392
2.30545
2.29724
2.28956
2.28201
2.27593
2.27046
2.2679
2.17605
2.19407
2.25813
2.33182
2.3991
2.48603
2.59422
2.72025
2.78073
2.90788
2.96409
2.9641
2.97102
2.99823
3.0495
3.0869
3.07186
3.04674
3.04722
3.07116
3.0929
3.1071
3.10697
3.09975
3.09226
3.07411
3.0596
3.03762
3.01628
2.99078
2.967
2.93519
2.90915
2.87303
2.84396
2.81154
2.78561
2.75841
2.73572
2.71252
2.69274
2.67177
2.65254
2.63217
2.61343
2.59468
2.57781
2.56282
2.5468
2.53276
2.51782
2.50451
2.48974
2.4764
2.46215
2.44903
2.43571
2.42344
2.41137
2.40059
2.38983
2.38067
2.37114
2.36323
2.35464
2.34754
2.3402
2.33439
2.32868
2.32453
2.32057
2.31817
2.31587
2.31469
2.31315
2.3123
2.31078
2.30982
2.30787
2.30654
2.30373
2.30166
2.298
2.29419
2.28959
2.28417
2.27864
2.27242
2.26626
2.25961
2.2531
2.24622
2.23942
2.23277
2.22572
2.21965
2.21298
2.20822
2.20317
2.2018
2.18567
2.1671
2.18174
2.21506
2.24822
2.30616
2.35421
2.43534
2.50378
2.58084
2.67471
2.77951
2.8449
2.88293
2.92482
2.97629
3.00724
3.01835
3.0238
3.02654
3.01252
2.99947
2.97159
2.94137
2.91285
2.87108
2.84149
2.80663
2.77391
2.7444
2.71513
2.68899
2.66139
2.63537
2.60922
2.58574
2.56335
2.54341
2.52445
2.50764
2.49159
2.47752
2.46381
2.4523
2.43941
2.4296
2.41883
2.41161
2.4024
2.39567
2.38792
2.38252
2.3764
2.37121
2.36536
2.35995
2.35376
2.34829
2.3419
2.33647
2.32995
2.32437
2.31747
2.31147
2.3038
2.29682
2.28798
2.28023
2.27124
2.26407
2.25569
2.24973
2.24253
2.23782
2.23198
2.22822
2.22324
2.22007
2.21553
2.21263
2.20814
2.20529
2.20071
2.19787
2.19313
2.18999
2.18492
2.18132
2.17561
2.1715
2.16509
2.16066
2.15365
2.14911
2.14174
2.13732
2.13025
2.12653
2.12119
2.1203
2.19576
2.16611
2.15387
2.15504
2.16636
2.19013
2.2202
2.25395
2.3037
2.34711
2.40674
2.46172
2.5308
2.60297
2.66266
2.7311
2.78636
2.84181
2.86661
2.87643
2.85828
2.82098
2.75953
2.69229
2.64271
2.57687
2.54917
2.5134
2.49862
2.48308
2.47118
2.45778
2.44585
2.43407
2.42391
2.41595
2.40853
2.40197
2.39565
2.39127
2.38559
2.38114
2.37387
2.36835
2.36091
2.35515
2.34931
2.34514
2.34016
2.3343
2.32688
2.3192
2.31088
2.30269
2.294
2.28632
2.27799
2.27079
2.26269
2.25579
2.24811
2.24158
2.23451
2.22858
2.2224
2.21796
2.21317
2.21016
2.20558
2.20264
2.19762
2.19462
2.18947
2.18682
2.18224
2.17994
2.17577
2.17347
2.16907
2.16628
2.16151
2.15841
2.15343
2.15019
2.14514
2.14161
2.13673
2.13278
2.12794
2.12355
2.1185
2.11358
2.1082
2.10274
2.09724
2.09144
2.08613
2.08062
2.07635
2.07332
2.19996
2.16758
2.1437
2.12973
2.12352
2.12554
2.1385
2.15111
2.1765
2.20186
2.23326
2.26767
2.30446
2.35023
2.40115
2.45457
2.50398
2.55126
2.5716
2.58682
2.5591
2.508
2.44332
2.38817
2.34104
2.30504
2.28791
2.27577
2.2812
2.29049
2.29895
2.30526
2.30994
2.31256
2.31528
2.31644
2.31675
2.31741
2.31716
2.31646
2.31492
2.31304
2.31045
2.30826
2.30574
2.30291
2.2999
2.29651
2.29303
2.28867
2.28254
2.27627
2.26966
2.26356
2.25678
2.25071
2.2441
2.23804
2.23142
2.22479
2.21773
2.21061
2.20303
2.19559
2.18741
2.18001
2.17177
2.16517
2.15755
2.15207
2.14511
2.14045
2.13375
2.12939
2.12286
2.11867
2.11278
2.1092
2.10435
2.10165
2.09764
2.09527
2.09153
2.08919
2.0855
2.08296
2.07923
2.07641
2.07242
2.06938
2.06504
2.0617
2.05717
2.05326
2.04855
2.04416
2.03938
2.03521
2.03112
2.02947
2.20827
2.17289
2.14382
2.11939
2.10303
2.09109
2.08879
2.09031
2.09714
2.11069
2.12544
2.14741
2.17096
2.20484
2.24219
2.28932
2.32391
2.37096
2.40448
2.40169
2.37486
2.33299
2.28915
2.24388
2.20635
2.18746
2.17236
2.16742
2.17347
2.18797
2.20791
2.2263
2.24146
2.25189
2.25909
2.26269
2.2647
2.26517
2.26478
2.26385
2.26151
2.25984
2.25686
2.25304
2.24909
2.24416
2.2382
2.23266
2.22659
2.22059
2.2137
2.20767
2.2015
2.19659
2.19138
2.18694
2.18228
2.178
2.17379
2.16962
2.16552
2.16107
2.15657
2.15188
2.14686
2.14213
2.13668
2.13224
2.12664
2.1227
2.11706
2.11337
2.10725
2.10305
2.09605
2.09126
2.08405
2.07921
2.0725
2.06805
2.06213
2.05826
2.05293
2.0495
2.04467
2.04151
2.03724
2.03411
2.03032
2.02682
2.02321
2.01923
2.01536
2.0113
2.007
2.00314
1.99853
1.99524
1.99109
1.99012
2.21098
2.17862
2.14951
2.11972
2.09667
2.0767
2.06371
2.05519
2.05239
2.05347
2.06
2.07371
2.09483
2.12522
2.15627
2.19941
2.23981
2.28637
2.3144
2.29671
2.27586
2.23708
2.19857
2.15155
2.12066
2.09941
2.08615
2.08085
2.07879
2.0856
2.09757
2.11589
2.13744
2.15538
2.16905
2.17767
2.18319
2.18597
2.18869
2.1902
2.19163
2.1922
2.19204
2.19141
2.19058
2.18867
2.18665
2.18547
2.1843
2.18328
2.18127
2.1782
2.17382
2.16939
2.16485
2.16029
2.15575
2.1507
2.14565
2.14003
2.1345
2.12867
2.1228
2.11699
2.11083
2.10519
2.09875
2.0934
2.08673
2.0818
2.07511
2.07073
2.06463
2.06122
2.05602
2.05336
2.04862
2.04604
2.04143
2.03862
2.03402
2.03107
2.02655
2.0236
2.01925
2.01633
2.01221
2.00913
2.00523
2.00192
1.99803
1.9945
1.99037
1.98661
1.98221
1.97833
1.97388
1.97033
1.96645
1.96509
2.20938
2.18135
2.15223
2.12461
2.09706
2.07343
2.05431
2.03916
2.02986
2.02523
2.02603
2.03889
2.05894
2.09151
2.123
2.16452
2.2249
2.25352
2.25298
2.24041
2.21376
2.17987
2.13452
2.09763
2.06869
2.04612
2.03645
2.02841
2.02403
2.02519
2.03175
2.04325
2.05857
2.08076
2.10403
2.12328
2.1376
2.14786
2.15497
2.15916
2.1627
2.16434
2.16519
2.16513
2.16444
2.16383
2.16292
2.16204
2.16089
2.15964
2.15758
2.15486
2.15103
2.14637
2.14202
2.13753
2.13375
2.12909
2.12497
2.11965
2.115
2.10932
2.1043
2.09853
2.0932
2.08753
2.08172
2.07603
2.06952
2.06377
2.05673
2.05115
2.04384
2.03854
2.03122
2.02626
2.01928
2.01495
2.00863
2.00508
1.99958
1.99663
1.99185
1.98923
1.98494
1.98256
1.97869
1.97646
1.97303
1.97081
1.96773
1.96532
1.96224
1.95959
1.95616
1.95325
1.94949
1.94672
1.94321
1.94242
2.20937
2.18116
2.15596
2.12673
2.10218
2.07547
2.05371
2.03563
2.0231
2.01801
2.02223
2.03954
2.06143
2.09041
2.13428
2.18922
2.22298
2.23343
2.22286
2.20483
2.17326
2.1333
2.09869
2.06794
2.0423
2.02174
2.00793
1.9993
1.99292
1.9901
1.99092
1.99657
2.00541
2.01897
2.03813
2.06151
2.08317
2.10101
2.11348
2.12222
2.12728
2.13057
2.13186
2.13286
2.13283
2.13244
2.13114
2.12974
2.12744
2.12483
2.12214
2.11856
2.11507
2.11078
2.10653
2.10208
2.09804
2.09417
2.09005
2.08578
2.0808
2.07598
2.07058
2.06598
2.06073
2.05651
2.05135
2.04724
2.0419
2.0376
2.0319
2.02735
2.02132
2.0167
2.0104
2.00585
1.99926
1.99478
1.98794
1.9835
1.97678
1.9726
1.96631
1.96247
1.95681
1.95337
1.94839
1.94529
1.94093
1.93811
1.93422
1.93152
1.928
1.92522
1.92189
1.91923
1.91579
1.91375
1.91062
1.91051
2.20987
2.18189
2.15704
2.13044
2.105
2.08213
2.06053
2.04268
2.03098
2.03183
2.04411
2.06259
2.08945
2.1289
2.1832
2.21885
2.22418
2.21501
2.20063
2.17268
2.13929
2.10954
2.08102
2.05615
2.03352
2.01446
1.99931
1.98604
1.97605
1.97101
1.96853
1.96877
1.97186
1.9781
1.98773
2.00217
2.02305
2.04606
2.06652
2.08204
2.09297
2.09926
2.10218
2.10353
2.10345
2.10304
2.1028
2.10262
2.1023
2.10202
2.10125
2.09947
2.09715
2.09392
2.09032
2.08588
2.08172
2.07763
2.07373
2.06939
2.06471
2.05941
2.05393
2.04806
2.04211
2.03604
2.02978
2.02378
2.01736
2.01163
2.00522
1.9997
1.9932
1.9877
1.98096
1.97563
1.9689
1.96421
1.95797
1.95426
1.94864
1.94565
1.94049
1.93785
1.93301
1.93049
1.92592
1.92341
1.91916
1.91675
1.91286
1.91065
1.90709
1.90506
1.90171
1.89979
1.8965
1.89481
1.8921
1.8917
2.21149
2.18408
2.15914
2.13417
2.11063
2.0888
2.07427
2.0618
2.06268
2.07171
2.08743
2.11601
2.15057
2.19731
2.22616
2.2261
2.21756
2.20282
2.17877
2.15227
2.1244
2.10082
2.0772
2.05704
2.03631
2.02061
2.00272
1.98952
1.97449
1.96553
1.95598
1.95421
1.95299
1.95395
1.95784
1.96405
1.97585
1.99286
2.01441
2.03554
2.05303
2.06582
2.07411
2.07862
2.08044
2.08059
2.08022
2.07943
2.07757
2.07613
2.07486
2.07235
2.06995
2.06734
2.06464
2.06117
2.05731
2.05318
2.04903
2.04491
2.04049
2.03589
2.03092
2.02589
2.0208
2.01602
2.01111
2.00668
2.00158
1.99704
1.99129
1.98631
1.97987
1.97456
1.9677
1.96218
1.95496
1.94931
1.94191
1.93638
1.9292
1.92414
1.91753
1.91324
1.9074
1.90391
1.89874
1.8959
1.89137
1.88896
1.88504
1.88295
1.87954
1.87778
1.87472
1.87333
1.87056
1.86962
1.86775
1.86797
2.21491
2.19024
2.16486
2.14213
2.12098
2.10473
2.0955
2.09884
2.10974
2.12459
2.15519
2.19445
2.22605
2.24324
2.24123
2.23379
2.21475
2.19036
2.16453
2.14198
2.12065
2.10258
2.08386
2.06545
2.04745
2.03002
2.01289
1.99685
1.98089
1.96826
1.95624
1.94864
1.94027
1.93899
1.93691
1.93799
1.94142
1.9484
1.96129
1.98013
2.00112
2.02022
2.03489
2.045
2.05047
2.05364
2.05468
2.05517
2.05501
2.05446
2.05388
2.05322
2.0517
2.04939
2.04708
2.04394
2.04069
2.0368
2.03281
2.02896
2.02497
2.02103
2.01639
2.01174
2.00633
2.00108
1.9951
1.98958
1.98332
1.97794
1.97164
1.96638
1.9599
1.95443
1.94768
1.9421
1.93534
1.92989
1.92323
1.91801
1.91144
1.90647
1.90016
1.89559
1.88965
1.88559
1.88012
1.87665
1.87176
1.8689
1.8647
1.86241
1.85883
1.85714
1.85406
1.85283
1.85033
1.84971
1.84842
1.84875
2.21066
2.19379
2.17515
2.15583