/*--------------------------------*- C++ -*----------------------------------*\
| =========                 |                                                 |
| \\      /  F ield         | OpenFOAM: The Open Source CFD Toolbox           |
|  \\    /   O peration     | Version:  2112                                  |
|   \\  /    A nd           | Website:  www.openfoam.com                      |
|    \\/     M anipulation  |                                                 |
\*---------------------------------------------------------------------------*/
FoamFile
{
    version     2.0;
    format      ascii;
    arch        "LSB;label=32;scalar=64";
    class       volVectorField;
    location    "4.9995";
    object      U;
}
// * * * * * * * * * * * * * * * * * * * * * * * * * * * * * * * * * * * * * //

dimensions      [0 1 -1 0 0 0 0];

internalField   nonuniform List<vector> 
7000
(
(3 -5.82508e-07 0.000805021)
(3 -1.36553e-06 0.000764326)
(3 -1.91803e-06 0.000723861)
(3 -2.12944e-06 0.000683626)
(3 -1.88196e-06 0.000643624)
(3 -1.61611e-06 0.000603866)
(3 -1.36511e-06 0.000564354)
(3 -1.25234e-06 0.00052517)
(2.99999 -6.27074e-07 0.000486173)
(2.99998 -6.7906e-07 0.000447759)
(2.99994 2.42441e-07 0.000410091)
(2.9998 1.1172e-06 0.000375016)
(2.99956 1.48309e-05 0.000340886)
(2.99874 2.94403e-05 0.000324088)
(2.99787 0.000155266 0.00029096)
(2.98874 8.50806e-05 0.000563365)
(2.98012 0.000459878 0.000552874)
(2.90689 -0.00110984 0.00312909)
(2.76426 -0.00156933 0.00491545)
(2.37725 -0.00682161 0.0155912)
(1.24161 -0.0206059 0.0237038)
(0.601466 -0.010773 0.00944256)
(0.574322 -0.00934742 0.000195064)
(0.616259 -0.00727296 -0.000752679)
(0.632099 -0.00528836 -0.000522836)
(0.615704 -0.00429975 -0.000243884)
(0.580138 -0.00346217 -0.000150656)
(0.539862 -0.00265245 -0.00024633)
(0.50794 -0.00151416 -0.000483805)
(0.480469 -0.000256459 -0.000676171)
(0.452859 0.00101315 -0.000824116)
(0.423826 0.00229362 -0.000963858)
(0.393651 0.00359195 -0.0011104)
(0.36269 0.00488067 -0.00126278)
(0.331109 0.00613292 -0.00141805)
(0.298971 0.0073106 -0.00157487)
(0.266443 0.00839996 -0.00173226)
(0.233707 0.00936376 -0.00189107)
(0.201013 0.0102124 -0.0020496)
(0.168659 0.0109393 -0.00220875)
(0.136875 0.0115223 -0.00236812)
(0.106023 0.0119794 -0.00252659)
(0.0764481 0.0122713 -0.00268402)
(0.0484891 0.01229 -0.00284095)
(0.0226826 0.0117072 -0.00299719)
(-0.000217437 0.00966491 -0.00314271)
(-0.0179969 0.00411367 -0.00327272)
(-0.0230913 -0.00171147 -0.00340128)
(-0.0201392 -0.00545452 -0.00353286)
(-0.00815821 -0.00849675 -0.00367063)
(3 -6.08289e-07 0.000777211)
(3 -1.39479e-06 0.00073787)
(3 -1.9236e-06 0.000698757)
(3 -2.04321e-06 0.000659871)
(3 -1.70125e-06 0.000621218)
(3 -1.35573e-06 0.000582808)
(3 -1.04815e-06 0.000544638)
(3 -9.02375e-07 0.000506784)
(2.99999 1.57059e-07 0.000469125)
(2.99998 4.38757e-07 0.000432012)
(2.99994 2.81126e-06 0.000395593)
(2.99982 8.04707e-06 0.000361491)
(2.9996 4.19728e-05 0.000328187)
(2.99884 9.88161e-05 0.000310176)
(2.9981 0.000387318 0.000276038)
(2.98926 0.000613179 0.000532409)
(2.98128 0.00148855 0.000510268)
(2.91034 0.00128158 0.00293129)
(2.77435 0.00405315 0.004556)
(2.40055 0.00618473 0.0145339)
(1.28182 0.014405 0.022897)
(0.626868 0.0499461 0.00939438)
(0.576456 0.0421904 0.000467539)
(0.616795 0.0362089 -0.000711923)
(0.632789 0.0340696 -0.000512117)
(0.616378 0.0321054 -0.000240244)
(0.580623 0.0314926 -0.000148103)
(0.539618 0.0311928 -0.000234967)
(0.506731 0.0313331 -0.000462238)
(0.478361 0.0316869 -0.000647586)
(0.450113 0.0321492 -0.000790911)
(0.42078 0.0327844 -0.000925551)
(0.39068 0.0335135 -0.00106647)
(0.360211 0.0343146 -0.00121218)
(0.329545 0.035083 -0.00136096)
(0.298731 0.0357853 -0.00151015)
(0.267867 0.0363426 -0.0016603)
(0.237091 0.0367145 -0.00181082)
(0.20659 0.0368466 -0.00196204)
(0.17661 0.036699 -0.0021132)
(0.147373 0.0361871 -0.00226345)
(0.119194 0.0352815 -0.0024134)
(0.0924151 0.0338668 -0.00256378)
(0.0675071 0.0317763 -0.00271216)
(0.0450953 0.0286837 -0.00285816)
(0.0258481 0.0238239 -0.00300243)
(0.0103718 0.0160094 -0.00314321)
(2.50321e-05 0.00512729 -0.00327966)
(-0.00779955 -0.00743192 -0.00340606)
(-0.00353203 -0.0182317 -0.00352499)
(3 -4.84869e-08 0.000748287)
(3 -8.29629e-08 0.00071036)
(3 -1.39724e-07 0.000672657)
(3 -1.38479e-07 0.000635179)
(3 -1.19711e-07 0.000597931)
(3 -1.03708e-07 0.000560922)
(3 -1.0281e-07 0.000524149)
(3 -2.27156e-07 0.000487682)
(2.99999 3.65343e-07 0.000451413)
(2.99998 -1.06294e-06 0.000415661)
(2.99994 -5.44035e-06 0.000380552)
(2.99983 -1.33985e-05 0.000347485)
(2.99963 -2.60264e-05 0.000315119)
(2.99895 -6.77643e-05 0.000295771)
(2.99834 -9.97934e-05 0.000261912)
(2.98968 -0.00100452 0.000504756)
(2.98228 0.000608707 0.000470051)
(2.91266 -0.00211263 0.00277523)
(2.78088 0.00400117 0.00426957)
(2.41591 0.00408708 0.0136677)
(1.31145 0.00963737 0.0218923)
(0.646199 0.052364 0.00928739)
(0.572719 0.0422471 0.000714962)
(0.614838 0.0350076 -0.00070593)
(0.633292 0.0337767 -0.000524775)
(0.61796 0.0330108 -0.00024787)
(0.582897 0.034121 -0.000153752)
(0.541802 0.0356137 -0.000227445)
(0.508741 0.0375247 -0.000443913)
(0.480309 0.0396637 -0.000621975)
(0.452245 0.0419524 -0.000759185)
(0.423314 0.0444076 -0.000888381)
(0.39382 0.0468844 -0.001022)
(0.364168 0.049318 -0.00116117)
(0.33454 0.0515909 -0.00130159)
(0.304974 0.0536386 -0.00144399)
(0.275565 0.0553715 -0.00158593)
(0.24642 0.0567041 -0.00172946)
(0.217709 0.0575759 -0.00187155)
(0.189594 0.0578908 -0.00201501)
(0.162291 0.0575858 -0.00215694)
(0.136072 0.0565485 -0.00229912)
(0.111216 0.0546114 -0.00244022)
(0.0880359 0.0514755 -0.00258089)
(0.0669505 0.0466998 -0.00271958)
(0.0483806 0.0394978 -0.00285679)
(0.0323959 0.0288987 -0.00299395)
(0.0197135 0.0152629 -0.00313134)
(0.00790079 -0.00012182 -0.00326615)
(0.00214295 -0.0174297 -0.0033837)
(3 -8.37194e-09 0.000718202)
(3 4.45224e-08 0.00068175)
(3 9.28046e-08 0.000645518)
(3 9.92926e-08 0.000609508)
(3 1.04898e-07 0.000573723)
(3 9.92558e-08 0.000538174)
(3 7.97171e-08 0.000502857)
(3 -6.986e-08 0.000467835)
(2.99999 3.28373e-07 0.00043303)
(2.99998 -3.06405e-06 0.000398753)
(2.99994 -1.53829e-05 0.000365081)
(2.99981 -3.91003e-05 0.000333649)
(2.99958 -0.000110755 0.000303576)
(2.99883 -0.000276299 0.000286992)
(2.99777 -0.000644593 0.000276272)
(2.99001 -0.00241035 0.000451856)
(2.98245 -0.000742215 0.000488399)
(2.91559 -0.00402025 0.00251961)
(2.79091 0.00551087 0.00386148)
(2.43518 0.00847622 0.0128011)
(1.35197 0.0261297 0.0208524)
(0.67409 0.0816686 0.00922838)
(0.572135 0.0696708 0.00101404)
(0.615512 0.0608788 -0.000685444)
(0.636435 0.0588616 -0.000529142)
(0.622114 0.0575171 -0.000248712)
(0.587659 0.0582931 -0.000153646)
(0.54633 0.0597668 -0.000215116)
(0.512817 0.0613772 -0.000420657)
(0.484163 0.0631132 -0.000591857)
(0.456231 0.0651424 -0.000724036)
(0.427721 0.0674072 -0.000847243)
(0.39888 0.0697785 -0.00097441)
(0.370122 0.0721332 -0.00110632)
(0.341604 0.0743884 -0.00124018)
(0.313365 0.0764182 -0.00137469)
(0.28543 0.0781337 -0.00150934)
(0.25789 0.0793965 -0.00164413)
(0.230841 0.0801345 -0.00177907)
(0.20443 0.080229 -0.00191394)
(0.178768 0.0795718 -0.00204915)
(0.154066 0.0780029 -0.0021828)
(0.130474 0.0752656 -0.00231628)
(0.108207 0.0710527 -0.00244834)
(0.087423 0.0648984 -0.00258039)
(0.0683037 0.0561455 -0.00271201)
(0.0507942 0.0441199 -0.00284413)
(0.035124 0.0289092 -0.00297763)
(0.019091 0.0113902 -0.00311178)
(0.00779123 -0.00818107 -0.00323738)
(3 1.94107e-08 0.000686908)
(3 1.93662e-07 0.000651993)
(3 4.30072e-07 0.000617296)
(3 6.62819e-07 0.000582816)
(3 7.27138e-07 0.000548557)
(3 7.41138e-07 0.000514529)
(3 7.03741e-07 0.000480729)
(3 4.98939e-07 0.000447211)
(2.99999 1.08447e-06 0.000413933)
(2.99997 -1.3909e-06 0.00038122)
(2.99993 -9.84628e-06 0.000349093)
(2.99978 -2.6493e-05 0.000319346)
(2.99952 -7.05994e-05 0.000291124)
(2.99869 -0.000174998 0.000275428)
(2.99732 -0.000333607 0.000267522)
(2.98996 -0.00114538 0.000422255)
(2.98311 -0.000247763 0.000436264)
(2.91886 -0.00141208 0.00230584)
(2.80088 0.00609605 0.0035416)
(2.45696 0.0114476 0.0118078)
(1.39636 0.0361461 0.019738)
(0.701034 0.104455 0.00921494)
(0.564314 0.0870152 0.00134675)
(0.611 0.0752471 -0.000669615)
(0.636545 0.07283 -0.000540236)
(0.624902 0.0716941 -0.000255407)
(0.592682 0.0731953 -0.000160523)
(0.552228 0.0761187 -0.000206178)
(0.518957 0.0784681 -0.000398202)
(0.490769 0.0807863 -0.000563258)
(0.463521 0.0834709 -0.000689935)
(0.435764 0.0863737 -0.000806596)
(0.407757 0.0893403 -0.000926733)
(0.379969 0.0922152 -0.00105118)
(0.352563 0.0949186 -0.00117702)
(0.325548 0.0973106 -0.00130327)
(0.298924 0.0993058 -0.00142966)
(0.272733 0.10078 -0.00155642)
(0.247039 0.10163 -0.00168371)
(0.221908 0.10173 -0.00181057)
(0.197403 0.10093 -0.00193719)
(0.173582 0.0990598 -0.00206384)
(0.150552 0.0958883 -0.00218912)
(0.128382 0.091049 -0.00231545)
(0.107135 0.0841657 -0.00244017)
(0.0867253 0.0747199 -0.00256571)
(0.0670166 0.0621867 -0.00269221)
(0.0481285 0.0465917 -0.00282058)
(0.0277727 0.0287676 -0.00295046)
(0.0119264 0.00963484 -0.0030817)
(3 1.33818e-08 0.00065435)
(3 2.16331e-07 0.000621041)
(3 4.87818e-07 0.000587944)
(3 8.75728e-07 0.00055506)
(3 9.49946e-07 0.000522393)
(3 9.63968e-07 0.000489949)
(3 9.12094e-07 0.000457729)
(3 6.76728e-07 0.000425776)
(2.99999 1.4848e-06 0.00039407)
(2.99997 7.16499e-07 0.000362909)
(2.99993 -5.40908e-08 0.00033229)
(2.99979 -1.98717e-06 0.000303887)
(2.99952 6.46481e-06 0.000276912)
(2.99872 1.23455e-05 0.000261358)
(2.99741 0.000116606 0.000251504)
(2.9904 0.000119676 0.000392133)
(2.98403 0.00133924 0.000398486)
(2.92304 0.00122027 0.0020874)
(2.81266 0.00874167 0.00319278)
(2.48358 0.0172479 0.0107523)
(1.45497 0.049337 0.0184938)
(0.737564 0.131944 0.00924365)
(0.554953 0.106343 0.00172079)
(0.604867 0.0908133 -0.000669328)
(0.635482 0.0883208 -0.00056212)
(0.626427 0.0882962 -0.000263426)
(0.59685 0.0905801 -0.00017062)
(0.55765 0.0944203 -0.000197883)
(0.525007 0.0972003 -0.000372071)
(0.498196 0.0999048 -0.000533492)
(0.472577 0.10296 -0.000655145)
(0.446384 0.106184 -0.000764225)
(0.419847 0.109415 -0.000876574)
(0.393465 0.11253 -0.00099287)
(0.367421 0.115445 -0.00111095)
(0.341727 0.118056 -0.00122924)
(0.316379 0.120244 -0.00134829)
(0.291382 0.121897 -0.00146708)
(0.266762 0.122875 -0.00158566)
(0.242505 0.123058 -0.00170466)
(0.218626 0.122293 -0.00182262)
(0.195123 0.120386 -0.00194155)
(0.17196 0.117131 -0.00205931)
(0.14917 0.112222 -0.00217642)
(0.126678 0.105236 -0.00229693)
(0.104361 0.0958451 -0.00241599)
(0.0819481 0.0836009 -0.00253718)
(0.0596336 0.0684698 -0.00266026)
(0.035099 0.0512124 -0.00278452)
(0.0150692 0.0325215 -0.00290921)
(3 1.01297e-08 0.000620474)
(3 2.31973e-07 0.000588841)
(3 5.31492e-07 0.000557414)
(3 1.01238e-06 0.000526195)
(3 1.21216e-06 0.000495187)
(3 1.35007e-06 0.000464395)
(3 1.41696e-06 0.000433821)
(3 1.31608e-06 0.000403499)
(2.99999 2.09694e-06 0.000373424)
(2.99997 1.94049e-06 0.00034386)
(2.99993 3.59991e-06 0.000314783)
(2.9998 6.54441e-06 0.000287745)
(2.99955 2.89914e-05 0.000261695)
(2.9988 5.93907e-05 0.000246807)
(2.99759 0.000223782 0.000232894)
(2.99105 0.000309681 0.000360938)
(2.98553 0.00194283 0.00033267)
(2.9278 0.00192768 0.00187976)
(2.82581 0.0111778 0.00285856)
(2.51453 0.0217191 0.00961031)
(1.52817 0.0638639 0.0171229)
(0.784466 0.162984 0.00934495)
(0.54693 0.126893 0.0021349)
(0.601619 0.106442 -0.00068459)
(0.638755 0.103489 -0.000597028)
(0.632185 0.105114 -0.000272073)
(0.604526 0.107915 -0.000177044)
(0.566381 0.111777 -0.000189675)
(0.534434 0.114927 -0.000346833)
(0.509161 0.118116 -0.000503177)
(0.485412 0.121603 -0.000618994)
(0.46107 0.125241 -0.000720284)
(0.436289 0.12885 -0.000825252)
(0.411549 0.132335 -0.000933574)
(0.38702 0.135584 -0.0010441)
(0.36268 0.138518 -0.00115388)
(0.338495 0.141009 -0.001264)
(0.314429 0.142952 -0.00137438)
(0.290473 0.144218 -0.00148454)
(0.266595 0.144681 -0.00159501)
(0.242714 0.144221 -0.00170521)
(0.21882 0.142649 -0.00181494)
(0.194824 0.139736 -0.00192728)
(0.170685 0.135238 -0.00203793)
(0.14637 0.128806 -0.00214902)
(0.121594 0.120027 -0.00226439)
(0.0961446 0.108808 -0.00237877)
(0.0702289 0.0948884 -0.00249565)
(0.0415442 0.0788858 -0.00261447)
(0.0176368 0.0613454 -0.00273421)
(3 8.10166e-09 0.000585223)
(3 2.23284e-07 0.000555339)
(3 5.12887e-07 0.000525654)
(3 9.7689e-07 0.000496173)
(3 1.25494e-06 0.000466895)
(3 1.47461e-06 0.000437825)
(3 1.6226e-06 0.000408966)
(3 1.61918e-06 0.000380346)
(2.99999 2.34384e-06 0.000351968)
(2.99997 2.42147e-06 0.00032406)
(2.99993 4.83314e-06 0.000296601)
(2.99981 9.46844e-06 0.000270887)
(2.99958 3.50661e-05 0.000246355)
(2.99889 7.44587e-05 0.000230422)
(2.99776 0.00023184 0.000217687)
(2.99181 0.000349397 0.000322276)
(2.98675 0.00197834 0.000317024)
(2.93294 0.00194331 0.00165049)
(2.84045 0.0130154 0.00246724)
(2.54906 0.025193 0.00851661)
(1.61469 0.0796523 0.015638)
(0.839563 0.197128 0.00953539)
(0.538288 0.147908 0.00258805)
(0.60141 0.121689 -0.000720658)
(0.648068 0.118305 -0.000650279)
(0.644654 0.121562 -0.000282671)
(0.618374 0.124902 -0.000173235)
(0.581472 0.128664 -0.00018015)
(0.55047 0.132047 -0.000323595)
(0.526591 0.135592 -0.000472891)
(0.504545 0.139451 -0.000581848)
(0.481945 0.143507 -0.000675932)
(0.458844 0.147559 -0.000771952)
(0.435626 0.151495 -0.000872452)
(0.412425 0.155205 -0.000973209)
(0.389143 0.15861 -0.00107543)
(0.365725 0.161611 -0.00117618)
(0.342093 0.164101 -0.0012785)
(0.318199 0.165977 -0.00137988)
(0.294001 0.1671 -0.00148248)
(0.269413 0.167346 -0.00158544)
(0.24437 0.166566 -0.00168828)
(0.218831 0.164532 -0.00179117)
(0.192681 0.160965 -0.00189694)
(0.16588 0.155582 -0.00200137)
(0.138349 0.147985 -0.002107)
(0.109704 0.138093 -0.00221824)
(0.0801902 0.125834 -0.00232772)
(0.0476071 0.111531 -0.00243883)
(0.020101 0.0954636 -0.00255065)
(3 1.60563e-08 0.000548536)
(3 1.98818e-07 0.000520478)
(3 5.05433e-07 0.000492613)
(3 9.16755e-07 0.000464944)
(3 1.31974e-06 0.000437471)
(3 1.60941e-06 0.000410197)
(3 1.83914e-06 0.000383126)
(3 1.92659e-06 0.000356279)
(2.99999 2.66109e-06 0.000329669)
(2.99998 2.49356e-06 0.000303487)
(2.99994 3.89103e-06 0.00027771)
(2.99982 6.68625e-06 0.00025347)
(2.99961 2.62756e-05 0.000230027)
(2.99897 5.58149e-05 0.000215388)
(2.99795 0.00019333 0.000200668)
(2.99251 0.000294576 0.000288731)
(2.9882 0.00175406 0.000240927)
(2.93884 0.00142471 0.00144557)
(2.8562 0.0141687 0.00214311)
(2.58833 0.0295612 0.00730088)
(1.71939 0.0935042 0.0140118)
(0.904336 0.232464 0.00985794)
(0.531166 0.168325 0.00305936)
(0.607521 0.135996 -0.000780963)
(0.666856 0.132276 -0.000718421)
(0.667492 0.136844 -0.0002947)
(0.642359 0.140999 -0.0001638)
(0.60658 0.145072 -0.000167486)
(0.576417 0.148633 -0.00029975)
(0.55356 0.152372 -0.000440889)
(0.532677 0.156525 -0.000542252)
(0.511211 0.160981 -0.000628563)
(0.489088 0.165551 -0.000716149)
(0.466659 0.170089 -0.000808061)
(0.443981 0.174503 -0.000901189)
(0.420963 0.178693 -0.000994186)
(0.39746 0.182566 -0.00108787)
(0.373429 0.186006 -0.00118082)
(0.348775 0.188896 -0.00127533)
(0.323469 0.191121 -0.00136853)
(0.297431 0.192511 -0.00146404)
(0.270582 0.192931 -0.0015595)
(0.242861 0.192198 -0.00165468)
(0.214223 0.190062 -0.00175118)
(0.184548 0.186215 -0.00185117)
(0.153894 0.18029 -0.00195014)
(0.122128 0.172061 -0.00205093)
(0.0892641 0.161531 -0.00215695)
(0.0529987 0.149008 -0.00226112)
(0.0221669 0.134519 -0.00236647)
(3 2.5074e-08 0.000510349)
(3 1.70706e-07 0.000484199)
(3 4.87108e-07 0.000458233)
(3 8.27921e-07 0.000432455)
(3 1.3183e-06 0.000406865)
(3 1.61445e-06 0.000381465)
(3 1.8307e-06 0.000356259)
(3 1.88925e-06 0.000331261)
(2.99999 2.69817e-06 0.000306496)
(2.99998 2.22559e-06 0.000282125)
(2.99994 2.70403e-06 0.000258112)
(2.99983 2.52586e-06 0.000235468)
(2.99963 1.74094e-05 0.000213551)
(2.99905 2.983e-05 0.000198669)
(2.99809 0.000169469 0.000184731)
(2.99316 0.000194577 0.00025713)
(2.98905 0.00192122 0.000234733)
(2.94515 0.00155135 0.0011915)
(2.87434 0.0157777 0.00172998)
(2.63123 0.0338789 0.00621976)
(1.841 0.103791 0.0121252)
(0.987026 0.26108 0.0103095)
(0.536377 0.186219 0.00353559)
(0.627022 0.150488 -0.000858202)
(0.699869 0.145899 -0.000798772)
(0.704602 0.150868 -0.000310052)
(0.680254 0.155494 -0.000152252)
(0.645135 0.160411 -0.000151605)
(0.614946 0.164526 -0.000272924)
(0.591935 0.168718 -0.00040672)
(0.570811 0.173405 -0.00050157)
(0.548938 0.178499 -0.000580074)
(0.526196 0.183828 -0.000659954)
(0.502995 0.18923 -0.000743168)
(0.47942 0.194615 -0.000828179)
(0.455367 0.199879 -0.000913041)
(0.43071 0.20491 -0.000998083)
(0.405333 0.209605 -0.00108324)
(0.379179 0.213833 -0.00116842)
(0.352138 0.217488 -0.00125478)
(0.324164 0.22042 -0.00134055)
(0.295176 0.222427 -0.00142949)
(0.265086 0.223358 -0.00151864)
(0.233854 0.223008 -0.00160718)
(0.201392 0.221115 -0.00169785)
(0.167644 0.21734 -0.00179155)
(0.132706 0.211219 -0.00188599)
(0.0969168 0.202717 -0.00198096)
(0.0575386 0.192039 -0.00207801)
(0.023905 0.179237 -0.00217423)
(3 2.68866e-08 0.000470595)
(3 1.53128e-07 0.000446438)
(3 4.51755e-07 0.000422457)
(3 7.58893e-07 0.000398653)
(3 1.21526e-06 0.000375028)
(3 1.74381e-06 0.000351583)
(3 2.33593e-06 0.00032832)
(3 1.59036e-06 0.000305251)
(2.99999 1.09311e-06 0.000282407)
(2.99998 -5.23459e-06 0.000259923)
(2.99994 -8.98363e-06 0.000237767)
(2.99984 -4.69255e-05 0.000216763)
(2.99965 -6.02354e-05 0.000196483)
(2.99912 -0.000243563 0.000181787)
(2.99823 -0.000315504 0.000168772)
(2.99403 -0.00113272 0.000220658)
(2.99063 0.000472035 0.00019988)
(2.95186 4.83188e-05 0.000977351)
(2.89324 0.0155601 0.00135246)
(2.67655 0.0298308 0.00516316)
(1.97855 0.105594 0.010169)
(1.08888 0.26519 0.0108827)
(0.566855 0.19822 0.00395371)
(0.666702 0.171995 -0.00091666)
(0.74928 0.165362 -0.000871408)
(0.755988 0.168325 -0.000330294)
(0.730084 0.171977 -0.000147533)
(0.692688 0.17755 -0.000139101)
(0.659169 0.18239 -0.000244595)
(0.633226 0.187196 -0.000371394)
(0.6097 0.192498 -0.000460519)
(0.585752 0.19828 -0.000531614)
(0.561136 0.204385 -0.000603558)
(0.536199 0.210675 -0.000678824)
(0.511033 0.217049 -0.000755617)
(0.485464 0.223441 -0.000832593)
(0.459333 0.229727 -0.00090954)
(0.432491 0.235805 -0.000987372)
(0.404834 0.241532 -0.00106468)
(0.376245 0.246786 -0.00114309)
(0.346552 0.251449 -0.00122111)
(0.315716 0.255345 -0.00129934)
(0.283631 0.258258 -0.0013814)
(0.250216 0.259966 -0.00146376)
(0.215457 0.260247 -0.00154562)
(0.179225 0.258856 -0.00162953)
(0.141514 0.255352 -0.00171549)
(0.102983 0.249333 -0.00180637)
(0.0609942 0.241027 -0.00189395)
(0.025072 0.230164 -0.00198348)
(3 1.95262e-08 0.000429205)
(3 1.45546e-07 0.000407131)
(3 4.01651e-07 0.000385222)
(3 7.06867e-07 0.00036348)
(3 1.09363e-06 0.000341904)
(3 1.65769e-06 0.000320498)
(3 2.29979e-06 0.000299273)
(3 1.81842e-06 0.000278221)
(2.99999 9.10544e-07 0.000257416)
(2.99997 -4.37296e-06 0.000236886)
(2.99991 -6.38827e-06 0.000216969)
(2.9998 -3.55309e-05 0.00019764)
(2.99951 -3.79369e-05 0.000180137)
(2.9989 -0.000206693 0.000166905)
(2.99756 -0.000221804 0.000153651)
(2.99397 -0.0014717 0.000189423)
(2.99124 0.000899351 0.000183611)
(2.95926 0.00180333 0.000754369)
(2.90853 0.0128028 0.00110213)
(2.71927 0.0295099 0.0041096)
(2.11973 0.0734782 0.00814626)
(1.19783 0.207884 0.011628)
(0.587879 0.184697 0.00424035)
(0.682381 0.189614 -0.000879747)
(0.766696 0.184668 -0.00086202)
(0.776777 0.186977 -0.00034836)
(0.752309 0.190466 -0.000152978)
(0.715545 0.197097 -0.000134065)
(0.68096 0.203008 -0.000217175)
(0.654301 0.208555 -0.000335436)
(0.630491 0.214382 -0.000419133)
(0.606335 0.220673 -0.000483633)
(0.58146 0.227379 -0.00054762)
(0.556192 0.234428 -0.000614862)
(0.530655 0.241725 -0.000683601)
(0.504689 0.249212 -0.000752877)
(0.478099 0.256785 -0.000821393)
(0.450728 0.264325 -0.00089064)
(0.422423 0.271701 -0.000959769)
(0.393094 0.278741 -0.00102987)
(0.362555 0.285318 -0.00110129)
(0.33067 0.291281 -0.00117171)
(0.297365 0.296443 -0.00124287)
(0.262538 0.300549 -0.00131723)
(0.226185 0.303307 -0.00139341)
(0.188276 0.304404 -0.00146886)
(0.148744 0.303507 -0.00154459)
(0.108289 0.300235 -0.00162267)
(0.0641157 0.294385 -0.00170441)
(0.0262196 0.285646 -0.00178238)
(3 1.05136e-08 0.000386103)
(3 1.37512e-07 0.000366207)
(3 3.50569e-07 0.000346464)
(3 6.52903e-07 0.000326875)
(3 9.91092e-07 0.000307441)
(3 1.32152e-06 0.000288163)
(3 1.59065e-06 0.000269051)
(3 2.24382e-06 0.0002501)
(2.99999 2.50804e-06 0.000231368)
(2.99997 4.36068e-06 0.000212867)
(2.99992 9.06698e-06 0.000194905)
(2.99983 2.74002e-05 0.000177363)
(2.99955 6.48751e-05 0.000162342)
(2.99905 0.000150342 0.000148708)
(2.99741 0.000379618 0.000151531)
(2.99514 0.000389281 0.000145595)
(2.99434 0.00289689 0.000111504)
(2.96333 0.00454222 0.000641501)
(2.92566 0.0113041 0.000770051)
(2.74364 0.028489 0.00365731)
(2.19822 0.0398407 0.00679044)
(1.27815 0.125255 0.011642)
(0.560683 0.175316 0.00423198)
(0.654406 0.211885 -0.000681303)
(0.739203 0.207118 -0.000715856)
(0.759594 0.207444 -0.000348413)
(0.741818 0.209785 -0.000159791)
(0.709561 0.216496 -0.000131504)
(0.676799 0.223126 -0.000191025)
(0.651987 0.229459 -0.000298942)
(0.630269 0.236003 -0.000376941)
(0.608093 0.243045 -0.000435641)
(0.584921 0.250592 -0.000492407)
(0.561087 0.25861 -0.000552016)
(0.53675 0.267023 -0.000612264)
(0.511803 0.275767 -0.000673393)
(0.486047 0.28478 -0.00073404)
(0.459347 0.293942 -0.000794667)
(0.431534 0.303162 -0.000855574)
(0.40249 0.312276 -0.000916268)
(0.372072 0.321118 -0.000979133)
(0.340108 0.329498 -0.00104323)
(0.3065 0.337193 -0.00110658)
(0.271154 0.344011 -0.00117013)
(0.233977 0.349648 -0.00123591)
(0.194942 0.353691 -0.00130427)
(0.154109 0.355684 -0.00137301)
(0.112312 0.355083 -0.00144334)
(0.0665736 0.351765 -0.00151229)
(0.0270107 0.34504 -0.00158425)
(3 7.53254e-09 0.000341213)
(3 1.1942e-07 0.000323594)
(3 3.08462e-07 0.000306115)
(3 5.73081e-07 0.000288776)
(3 8.85298e-07 0.000271578)
(3 1.14837e-06 0.000254522)
(3 1.34694e-06 0.000237615)
(3 2.00524e-06 0.000220856)
(2.99999 2.43105e-06 0.000204286)
(2.99998 4.67793e-06 0.000187914)
(2.99994 9.80885e-06 0.000171965)
(2.99985 3.00958e-05 0.000156376)
(2.99962 6.68017e-05 0.000142557)
(2.99921 0.0001968 0.000129781)
(2.99788 0.000395853 0.000128675)
(2.99609 0.00126221 0.00012141)
(2.99559 0.00252128 8.70679e-05)
(2.96807 0.00245501 0.000514854)
(2.93823 0.0111805 0.000565255)
(2.76515 0.0210576 0.00309374)
(2.2632 0.0372593 0.00562512)
(1.374 0.0933237 0.0106234)
(0.585613 0.197724 0.00399855)
(0.63074 0.231411 -0.00030813)
(0.700147 0.228032 -0.000500582)
(0.73025 0.227156 -0.000335674)
(0.720065 0.228348 -0.000167131)
(0.692908 0.234131 -0.000133025)
(0.66209 0.241462 -0.000169273)
(0.639054 0.248686 -0.000263207)
(0.619505 0.256094 -0.000334193)
(0.599577 0.264065 -0.00038672)
(0.578503 0.272671 -0.000435983)
(0.556598 0.281883 -0.000487633)
(0.534021 0.291653 -0.000540031)
(0.510704 0.301917 -0.000592556)
(0.486448 0.312636 -0.000645569)
(0.461106 0.323699 -0.000698206)
(0.434527 0.335017 -0.000751113)
(0.406532 0.346466 -0.000803659)
(0.376968 0.357899 -0.000856309)
(0.345632 0.369133 -0.000911125)
(0.312405 0.379888 -0.000967134)
(0.277216 0.389875 -0.00102397)
(0.239973 0.39877 -0.00108014)
(0.200568 0.40618 -0.00113738)
(0.158863 0.411549 -0.00119544)
(0.115894 0.414165 -0.00125458)
(0.0687946 0.413569 -0.00131745)
(0.0278549 0.409078 -0.00137677)
(3 8.04979e-09 0.000294452)
(3 9.86381e-08 0.000279216)
(3 2.68715e-07 0.000264104)
(3 4.85303e-07 0.000249117)
(3 7.82912e-07 0.000234254)
(3 9.74453e-07 0.000219518)
(3 1.10512e-06 0.000204912)
(3 1.68574e-06 0.000190438)
(2.99999 1.93496e-06 0.000176125)
(2.99998 3.43152e-06 0.000161975)
(2.99995 6.78683e-06 0.000148144)
(2.99988 2.11906e-05 0.00013459)
(2.9997 4.56522e-05 0.00012221)
(2.99937 0.000135738 0.000110849)
(2.99839 0.000284909 0.000106064)
(2.99698 0.000823669 9.93419e-05)
(2.99629 0.00228772 7.27116e-05)
(2.9727 0.00295295 0.000389569)
(2.95062 0.0114481 0.00039262)
(2.78643 0.0182138 0.00256288)
(2.33019 0.0371805 0.00450561)
(1.48937 0.0864508 0.00915276)
(0.642608 0.221459 0.00376692)
(0.617938 0.238173 5.62589e-05)
(0.677511 0.240333 -0.000386781)
(0.709177 0.241926 -0.000296623)
(0.702262 0.244288 -0.000159312)
(0.678597 0.249722 -0.000131251)
(0.649018 0.25811 -0.000151879)
(0.626209 0.266441 -0.00022622)
(0.607632 0.274891 -0.000289341)
(0.589177 0.283931 -0.000336131)
(0.569695 0.293715 -0.000378942)
(0.549387 0.304232 -0.000422736)
(0.528402 0.315473 -0.000467378)
(0.506661 0.327399 -0.000511598)
(0.483961 0.33999 -0.000556054)
(0.460115 0.353177 -0.000600442)
(0.434979 0.366856 -0.000645221)
(0.408356 0.380921 -0.000690038)
(0.380053 0.395227 -0.000734776)
(0.349839 0.409624 -0.000779496)
(0.317492 0.423885 -0.000825284)
(0.282852 0.437679 -0.000872259)
(0.245804 0.450565 -0.000920787)
(0.206277 0.462024 -0.000969755)
(0.164053 0.471391 -0.001019)
(0.120111 0.477774 -0.00106885)
(0.0715003 0.48057 -0.00111833)
(0.0287565 0.478507 -0.00117134)
(3 1.47337e-09 0.000245734)
(3 8.69406e-08 0.000232991)
(3 2.15278e-07 0.000220355)
(3 4.1834e-07 0.000207826)
(3 6.40497e-07 0.000195404)
(3 9.05428e-07 0.000183091)
(3 9.09132e-07 0.000170888)
(3 1.03239e-06 0.0001588)
(2.99999 -1.09035e-07 0.000146847)
(2.99998 9.16082e-08 0.000135029)
(2.99995 -5.31916e-06 0.000123454)
(2.99989 6.80836e-07 0.000112115)
(2.99973 -2.86391e-05 0.000101594)
(2.99945 1.4022e-05 9.14395e-05)
(2.99854 -0.000232989 8.62073e-05)
(2.9979 -8.16505e-05 7.08565e-05)
(2.99835 -0.00175549 4.86427e-05)
(2.97779 -0.00600289 0.00028347)
(2.96004 0.0156836 0.000273844)
(2.80641 -0.0277523 0.00201279)
(2.39797 0.0841737 0.00346879)
(1.61217 0.0741142 0.0074243)
(0.721343 0.266074 0.0034688)
(0.610213 0.266206 0.000378133)
(0.662447 0.263348 -0.00030176)
(0.69493 0.262318 -0.000255478)
(0.689854 0.26441 -0.000144436)
(0.668939 0.268682 -0.000123269)
(0.640633 0.276435 -0.000134673)
(0.617448 0.284936 -0.000189184)
(0.599114 0.293937 -0.000242712)
(0.581481 0.303744 -0.000282855)
(0.563034 0.314504 -0.000318457)
(0.543873 0.326218 -0.000354753)
(0.52414 0.338877 -0.000391668)
(0.503736 0.352455 -0.000428276)
(0.48245 0.366943 -0.000464625)
(0.460053 0.382323 -0.000500654)
(0.436366 0.398519 -0.000536725)
(0.411175 0.415454 -0.000573184)
(0.384256 0.432991 -0.000609827)
(0.355361 0.450961 -0.000646992)
(0.32423 0.469151 -0.000683861)
(0.290587 0.487255 -0.000721175)
(0.254153 0.504855 -0.00075875)
(0.2147 0.521312 -0.000797405)
(0.171846 0.535787 -0.000836247)
(0.126577 0.54711 -0.000875913)
(0.0758853 0.554123 -0.00091801)
(0.0305204 0.555172 -0.000957949)
(3 3.63581e-09 0.000194968)
(3 6.56918e-08 0.000184835)
(3 1.74603e-07 0.000174789)
(3 3.25837e-07 0.00016483)
(3 5.03816e-07 0.00015496)
(3 7.22328e-07 0.000145179)
(3 9.30892e-07 0.000135487)
(3 1.00329e-06 0.000125892)
(2.99999 1.28875e-06 0.000116396)
(2.99998 3.19406e-06 0.000107042)
(2.99995 8.10497e-06 9.78141e-05)
(2.99987 2.28863e-05 8.90061e-05)
(2.99973 5.57566e-05 8.03828e-05)
(2.99922 0.000132958 7.4445e-05)
(2.99835 0.000259843 6.90417e-05)
(2.99554 0.000705722 7.86517e-05)
(2.99147 0.000693216 8.1923e-05)
(2.9902 -0.0042545 5.38393e-05)
(2.93416 0.0113559 0.000562494)
(2.84154 -0.0289382 0.000821375)
(2.53591 0.0637296 0.00289927)
(1.5878 0.0749148 0.00526343)
(0.825658 0.294184 0.00291085)
(0.585915 0.282007 0.000695089)
(0.640173 0.276145 -0.000221094)
(0.680133 0.273873 -0.000215835)
(0.680127 0.279198 -0.000127004)
(0.662131 0.285304 -0.000104928)
(0.635875 0.294123 -0.000112644)
(0.613036 0.303418 -0.000152004)
(0.594988 0.313108 -0.000194314)
(0.578018 0.323642 -0.000226672)
(0.560453 0.335307 -0.000255082)
(0.542269 0.348152 -0.000283519)
(0.523612 0.36218 -0.000312616)
(0.504397 0.377385 -0.000341493)
(0.484432 0.393772 -0.000370195)
(0.463471 0.411353 -0.000398562)
(0.441301 0.430115 -0.000426477)
(0.417693 0.450035 -0.000454317)
(0.392361 0.471019 -0.000482164)
(0.365016 0.492958 -0.00051026)
(0.335321 0.515688 -0.000538653)
(0.302926 0.538904 -0.000567131)
(0.267411 0.562184 -0.000596196)
(0.228348 0.584822 -0.000625062)
(0.185037 0.605917 -0.000654239)
(0.138013 0.623999 -0.000683491)
(0.0838998 0.637303 -0.000712745)
(0.0337475 0.642855 -0.000745894)
(3 8.71577e-09 0.000142059)
(3 4.26223e-08 0.000134658)
(3 1.41496e-07 0.000127322)
(3 2.32877e-07 0.000120053)
(3 3.97812e-07 0.00011285)
(3 4.78961e-07 0.000105713)
(3 7.44748e-07 9.86434e-05)
(3 9.86207e-07 9.16428e-05)
(3 2.57915e-06 8.47165e-05)
(2.99999 5.51903e-06 7.78634e-05)
(2.99997 1.82927e-05 7.11225e-05)
(2.99994 3.77346e-05 6.44711e-05)
(2.99985 0.000117371 5.81558e-05)
(2.99969 0.000205274 5.20739e-05)
(2.99922 0.00069898 4.74679e-05)
(2.99864 0.00125998 4.2458e-05)
(2.99398 0.00396291 6.21987e-05)
(2.99027 0.00480404 5.89602e-05)
(2.94503 0.0040551 0.0003334)
(2.87271 0.0227136 0.00047933)
(2.61999 0.0476539 0.00178661)
(1.78906 0.149631 0.00340865)
(0.974476 0.363287 0.00252812)
(0.593122 0.325583 0.000836214)
(0.64108 0.304521 -0.000162488)
(0.685822 0.291679 -0.000179692)
(0.689995 0.295264 -0.00011184)
(0.671597 0.301333 -8.31241e-05)
(0.644483 0.311561 -8.6106e-05)
(0.619427 0.32177 -0.000110844)
(0.599944 0.332106 -0.000142389)
(0.582491 0.343348 -0.000167027)
(0.564992 0.355906 -0.000188046)
(0.547169 0.36986 -0.000208577)
(0.529131 0.385232 -0.000229454)
(0.510787 0.402049 -0.000250296)
(0.491941 0.420351 -0.000270966)
(0.472349 0.440184 -0.000291527)
(0.451774 0.461607 -0.000312054)
(0.429916 0.484669 -0.000332103)
(0.406476 0.509285 -0.000351926)
(0.381198 0.535418 -0.000371654)
(0.353642 0.563163 -0.000391187)
(0.323244 0.59231 -0.000410473)
(0.289335 0.62252 -0.000429606)
(0.251281 0.65324 -0.000449079)
(0.207966 0.683605 -0.000468091)
(0.15901 0.711884 -0.000487472)
(0.0999534 0.735636 -0.000507604)
(0.0411734 0.75008 -0.000527822)
(3 2.91434e-09 8.6904e-05)
(3 3.64873e-08 8.23652e-05)
(3 9.38684e-08 7.78681e-05)
(3 1.77682e-07 7.34125e-05)
(3 2.73068e-07 6.89987e-05)
(3 3.70665e-07 6.46267e-05)
(3 3.86731e-07 6.02971e-05)
(3 4.46105e-07 5.60102e-05)
(3 8.96266e-07 5.17685e-05)
(2.99999 2.76676e-06 4.75713e-05)