/*--------------------------------*- C++ -*----------------------------------*\
| =========                 |                                                 |
| \\      /  F ield         | OpenFOAM: The Open Source CFD Toolbox           |
|  \\    /   O peration     | Version:  2112                                  |
|   \\  /    A nd           | Website:  www.openfoam.com                      |
|    \\/     M anipulation  |                                                 |
\*---------------------------------------------------------------------------*/
FoamFile
{
    version     2.0;
    format      ascii;
    arch        "LSB;label=32;scalar=64";
    class       volVectorField;
    location    "72.5";
    object      U;
}
// * * * * * * * * * * * * * * * * * * * * * * * * * * * * * * * * * * * * * //

dimensions      [0 1 -1 0 0 0 0];

internalField   nonuniform List<vector> 
8800
(
(0.980135 -0.09152 0)
(1.00234 -0.0587303 0)
(0.999586 -0.0321281 0)
(0.999989 -0.0165201 0)
(1.0001 -0.00883842 0)
(1.00012 -0.00509228 0)
(1.00007 -0.00298776 0)
(1.00003 -0.00167681 0)
(0.999998 -0.000775005 0)
(1.00007 -7.55722e-05 0)
(0.999973 0.000634591 0)
(0.999984 0.00139316 0)
(1.00003 0.00241385 0)
(1.00006 0.00400983 0)
(1.00004 0.00675344 0)
(1 0.0120539 0)
(0.999814 0.0230955 0)
(0.999036 0.0431549 0)
(1.00724 0.0790245 0)
(0.775027 0.0478395 0)
(0.359001 -0.0147478 0)
(1.04651 -0.0724752 0)
(1.08848 -0.0660107 0)
(1.04945 -0.0509011 0)
(1.02556 -0.0376761 0)
(1.01278 -0.025866 0)
(1.00661 -0.0166649 0)
(1.00365 -0.0101703 0)
(1.00219 -0.0055347 0)
(1.00151 -0.00193601 0)
(1.00137 0.00127843 0)
(1.00171 0.00459132 0)
(1.0027 0.00847865 0)
(1.00476 0.0137769 0)
(1.00898 0.0214455 0)
(1.01795 0.0319312 0)
(1.0358 0.0446979 0)
(1.06743 0.0581351 0)
(1.09468 0.0699473 0)
(0.845604 0.0555092 0)
(0.217827 -0.00137928 0)
(1.07571 -0.0506263 0)
(1.09944 -0.0489035 0)
(1.06442 -0.03998 0)
(1.03995 -0.0325123 0)
(1.02386 -0.025288 0)
(1.01406 -0.0180569 0)
(1.00854 -0.0114242 0)
(1.00566 -0.00565738 0)
(1.00447 -0.000358982 0)
(1.00477 0.00475508 0)
(1.00661 0.0100438 0)
(1.01057 0.0159974 0)
(1.01789 0.0227318 0)
(1.03047 0.0298235 0)
(1.05046 0.0368996 0)
(1.08003 0.0446658 0)
(1.10563 0.0519777 0)
(0.943203 0.0410277 0)
(0.217138 0.00140716 0)
(0.17671 -0.00062738 0)
(1.01949 -0.03543 0)
(1.10577 -0.041358 0)
(1.07804 -0.0363297 0)
(1.05253 -0.0302711 0)
(1.03531 -0.0243786 0)
(1.02343 -0.0185657 0)
(1.01559 -0.0125504 0)
(1.01096 -0.00643861 0)
(1.0089 -0.000189239 0)
(1.0094 0.00597201 0)
(1.01247 0.0118859 0)
(1.01846 0.0176322 0)
(1.02804 0.0231772 0)
(1.04221 0.028709 0)
(1.06303 0.0344724 0)
(1.09382 0.0403416 0)
(1.09436 0.0418454 0)
(0.830025 0.0228051 0)
(0.175534 0.000649831 0)
(0.154835 -0.000461039 0)
(0.958373 -0.025648 0)
(1.10451 -0.0350425 0)
(1.08818 -0.0325751 0)
(1.06138 -0.0280505 0)
(1.04334 -0.0230669 0)
(1.03093 -0.0177418 0)
(1.0223 -0.0121763 0)
(1.01671 -0.00624364 0)
(1.01402 0.000226124 0)
(1.01462 0.00669011 0)
(1.01838 0.0125589 0)
(1.0252 0.0178459 0)
(1.03532 0.022814 0)
(1.05002 0.0276159 0)
(1.07195 0.0320325 0)
(1.10092 0.0358874 0)
(1.06953 0.034064 0)
(0.742214 0.01449 0)
(0.15307 0.000486231 0)
(0.140192 -0.000332734 0)
(0.901493 -0.019274 0)
(1.09699 -0.0301278 0)
(1.09636 -0.0292243 0)
(1.06913 -0.0254191 0)
(1.0503 -0.0213077 0)
(1.0373 -0.0165794 0)
(1.02828 -0.0113002 0)
(1.02229 -0.0055492 0)
(1.01925 0.000827191 0)
(1.01981 0.00720577 0)
(1.02378 0.0128502 0)
(1.03083 0.0177949 0)
(1.04131 0.0222162 0)
(1.05663 0.0261356 0)
(1.07941 0.0296209 0)
(1.10316 0.0323067 0)
(1.03761 0.0282542 0)
(0.675209 0.0103533 0)
(0.137703 0.000362641 0)
(0.129502 -0.000251033 0)
(0.851781 -0.0148677 0)
(1.08474 -0.0260069 0)
(1.1021 -0.0263183 0)
(1.07601 -0.0229696 0)
(1.05666 -0.019284 0)
(1.04324 -0.0150529 0)
(1.03384 -0.0101538 0)
(1.02757 -0.00461986 0)
(1.02429 0.00157441 0)
(1.02471 0.00773704 0)
(1.02868 0.0130973 0)
(1.03588 0.0176142 0)
(1.04663 0.0214249 0)
(1.06231 0.0247417 0)
(1.08554 0.0277421 0)
(1.10231 0.029519 0)
(1.00273 0.0237455 0)
(0.622928 0.00796187 0)
(0.126128 0.000287395 0)
(0.121372 -0.000191938 0)
(0.809479 -0.0116726 0)
(1.06956 -0.0223907 0)
(1.1057 -0.0236573 0)
(1.08231 -0.0207557 0)
(1.06251 -0.0172924 0)
(1.04881 -0.0133382 0)
(1.03915 -0.00875497 0)
(1.03259 -0.00348964 0)
(1.02906 0.00247537 0)
(1.0293 0.00836907 0)
(1.03321 0.013374 0)
(1.04046 0.0174275 0)
(1.0513 0.0207586 0)
(1.06722 0.0236768 0)
(1.09083 0.0263541 0)
(1.09855 0.0272143 0)
(0.967379 0.0202102 0)
(0.580871 0.00640735 0)
(0.116921 0.000236096 0)
(0.115088 -0.000147008 0)
(0.773869 -0.00927806 0)
(1.05286 -0.019202 0)
(1.10813 -0.0211921 0)
(1.08824 -0.0186666 0)
(1.06803 -0.0153593 0)
(1.05407 -0.0115678 0)
(1.04421 -0.00717979 0)
(1.03741 -0.00214692 0)
(1.03361 0.00356284 0)
(1.03361 0.00914872 0)
(1.03737 0.013774 0)
(1.04455 0.0174191 0)
(1.05539 0.0203662 0)
(1.07154 0.0229505 0)
(1.09483 0.0252724 0)
(1.09194 0.0253177 0)
(0.932892 0.0174848 0)
(0.546023 0.0053457 0)
(0.109328 0.000200581 0)
(0.110202 -0.00011142 0)
(0.744029 -0.00741954 0)
(1.03573 -0.016369 0)
(1.10962 -0.0188678 0)
(1.09388 -0.016649 0)
(1.07337 -0.0134363 0)
(1.05913 -0.0097368 0)
(1.04907 -0.00546577 0)
(1.04205 -0.000596031 0)
(1.03794 0.0048718 0)
(1.03764 0.0101397 0)
(1.04117 0.0144024 0)
(1.0482 0.0176788 0)
(1.05901 0.0202751 0)
(1.07537 0.0225663 0)
(1.09753 0.0245072 0)
(1.08285 0.0237772 0)
(0.899847 0.0154214 0)
(0.516307 0.00460905 0)
(0.102851 0.000176298 0)
(0.106424 -8.19406e-05 0)
(0.719143 -0.00592017 0)
(1.01899 -0.0138205 0)
(1.11029 -0.0166156 0)
(1.09942 -0.0146718 0)
(1.07864 -0.0114722 0)
(1.06409 -0.00780192 0)
(1.0538 -0.00358867 0)
(1.04651 0.00117621 0)
(1.04207 0.00644266 0)
(1.04139 0.0114144 0)
(1.0446 0.0153397 0)
(1.05144 0.0182626 0)
(1.0622 0.0205188 0)
(1.07874 0.0225444 0)
(1.09886 0.024073 0)
(1.07165 0.022591 0)
(0.868359 0.0139075 0)
(0.490244 0.00410585 0)
(0.0971411 0.000160684 0)
(0.103564 -5.63736e-05 0)
(0.698567 -0.00466151 0)
(1.00328 -0.0114901 0)
(1.1103 -0.0143988 0)
(1.10482 -0.0126502 0)
(1.08391 -0.00941454 0)
(1.06903 -0.00571352 0)
(1.05847 -0.00149424 0)
(1.05087 0.00321754 0)
(1.04601 0.00833344 0)
(1.04486 0.0130397 0)
(1.04769 0.0166419 0)
(1.05431 0.019219 0)
(1.06497 0.0211419 0)
(1.08166 0.022907 0)
(1.09914 0.0240389 0)
(1.05861 0.0217734 0)
(0.838261 0.0128549 0)
(0.466728 0.0037792 0)
(0.0919334 0.000151855 0)
(0.1015 -3.27817e-05 0)
(0.68183 -0.00355518 0)
(0.989038 -0.00930766 0)
(1.10986 -0.0121319 0)
(1.11004 -0.0104942 0)
(1.08927 -0.00720015 0)
(1.07403 -0.00340816 0)
(1.06315 0.000882517 0)
(1.05516 0.00559905 0)
(1.0498 0.0106184 0)
(1.04809 0.0150911 0)
(1.05046 0.0183807 0)
(1.05679 0.0206097 0)
(1.06734 0.0221939 0)
(1.08408 0.0236863 0)
(1.0984 0.0243915 0)
(1.04387 0.0213363 0)
(0.809209 0.0121919 0)
(0.444881 0.00359108 0)
(0.0870204 0.000148422 0)
(0.10017 -9.50036e-06 0)
(0.668629 -0.00253177 0)
(0.976644 -0.00719932 0)
(1.10929 -0.0097558 0)
(1.11523 -0.00814499 0)
(1.0948 -0.00475642 0)
(1.07917 -0.000808319 0)
(1.0679 0.00361698 0)
(1.05945 0.00840593 0)
(1.05346 0.0133819 0)
(1.05108 0.0176497 0)
(1.05289 0.0206325 0)
(1.05888 0.022501 0)
(1.06928 0.0237329 0)
(1.08604 0.0249528 0)
(1.09641 0.025196 0)
(1.02748 0.0212712 0)
(0.780762 0.0118655 0)
(0.423994 0.00351583 0)
(0.0822361 0.000149275 0)
(0.0995563 1.56726e-05 0)
(0.658806 -0.00153785 0)
(0.966412 -0.00509459 0)
(1.10892 -0.00720644 0)
(1.12052 -0.00552814 0)
(1.10059 -0.00199399 0)
(1.08454 0.00218071 0)
(1.07281 0.00680968 0)
(1.06377 0.0117417 0)
(1.05704 0.0167253 0)
(1.05384 0.020811 0)
(1.05499 0.023492 0)
(1.06057 0.0249858 0)
(1.07079 0.0258542 0)
(1.08746 0.0267585 0)
(1.09315 0.0264546 0)
(1.00937 0.0216216 0)
(0.752422 0.011849 0)
(0.403463 0.00353936 0)
(0.0774429 0.000153982 0)
(0.0996792 3.55493e-05 0)
(0.652335 -0.000529904 0)
(0.958651 -0.0029218 0)
(1.10909 -0.00441106 0)
(1.12608 -0.0025582 0)
(1.10673 0.00118504 0)
(1.09022 0.0056605 0)
(1.07794 0.0105764 0)
(1.0682 0.0157265 0)
(1.06056 0.0207745 0)
(1.05638 0.0247002 0)
(1.05674 0.0270721 0)
(1.06183 0.0281882 0)
(1.07183 0.0286653 0)
(1.0881 0.0291976 0)
(1.08828 0.0282406 0)
(0.989376 0.0224138 0)
(0.72363 0.0121259 0)
(0.382741 0.00365165 0)
(0.0725168 0.000161958 0)
(0.100602 7.18342e-05 0)
(0.649324 0.0005145 0)
(0.95368 -0.000600542 0)
(1.11018 -0.00128565 0)
(1.13211 0.000860033 0)
(1.11335 0.0048966 0)
(1.09632 0.00976715 0)
(1.08338 0.01506 0)
(1.0728 0.0205084 0)
(1.06406 0.0256778 0)
(1.0587 0.0294609 0)
(1.05812 0.0315052 0)
(1.06264 0.0322292 0)
(1.07235 0.0322909 0)
(1.08783 0.0323966 0)
(1.08156 0.0306484 0)
(0.967171 0.0236905 0)
(0.693762 0.0126895 0)
(0.36131 0.00384593 0)
(0.0673469 0.000172774 0)
(0.1025 0.000106419 0)
(0.650132 0.00169832 0)
(0.951858 0.00195499 0)
(1.11261 0.00227386 0)
(1.13881 0.00482361 0)
(1.12059 0.00929495 0)
(1.10297 0.0146641 0)
(1.08924 0.0204335 0)
(1.07761 0.0262656 0)
(1.06754 0.0316066 0)
(1.06078 0.0352514 0)
(1.0591 0.0369256 0)
(1.06292 0.037248 0)
(1.07228 0.0368601 0)
(1.08637 0.0364759 0)
(1.07269 0.0337624 0)
(0.942322 0.025483 0)
(0.662151 0.0135306 0)
(0.338683 0.00411302 0)
(0.0618382 0.000185584 0)
(0.105447 0.000155424 0)
(0.65521 0.00316876 0)
(0.953666 0.00490078 0)
(1.11689 0.00638421 0)
(1.14643 0.00949956 0)
(1.12862 0.0145577 0)
(1.11031 0.0205447 0)
(1.09561 0.0269082 0)
(1.08271 0.0332151 0)
(1.07104 0.0387732 0)
(1.06261 0.0422608 0)
(1.05965 0.0435293 0)
(1.06262 0.0434148 0)
(1.07156 0.0425261 0)
(1.08358 0.0416266 0)
(1.06129 0.0376979 0)
(0.914247 0.0278347 0)
(0.628076 0.0146413 0)
(0.314405 0.00444375 0)
(0.055913 0.000199518 0)
(0.109727 0.000219011 0)
(0.664958 0.0048722 0)
(0.959549 0.008373 0)
(1.12348 0.0112146 0)
(1.15524 0.0150925 0)
(1.13765 0.0209211 0)
(1.1185 0.0276761 0)
(1.10261 0.0347633 0)
(1.08815 0.0416292 0)
(1.07454 0.0474232 0)
(1.06414 0.0507069 0)
(1.05969 0.0515058 0)
(1.06169 0.0509148 0)
(1.07012 0.0494543 0)
(1.07955 0.0479593 0)
(1.04682 0.0425672 0)
(0.882193 0.0307642 0)
(0.590756 0.0159953 0)
(0.288058 0.00482019 0)
(0.0495184 0.000213162 0)
(0.115685 0.000304429 0)
(0.680163 0.00698781 0)
(0.97015 0.0125688 0)
(1.13298 0.0170078 0)
(1.16563 0.0218709 0)
(1.14794 0.0287069 0)
(1.12774 0.0364047 0)
(1.11035 0.0443492 0)
(1.09394 0.0518374 0)
(1.07799 0.0578403 0)
(1.06531 0.0608307 0)
(1.05905 0.0610433 0)
(1.06003 0.0599297 0)
(1.06794 0.0578593 0)
(1.07398 0.0556695 0)
(1.02856 0.0484433 0)
(0.845248 0.03426 0)
(0.549402 0.0175375 0)
(0.259317 0.00521316 0)
(0.0426434 0.000224492 0)
(0.123825 0.000427352 0)
(0.701775 0.00975736 0)
(0.986346 0.0178015 0)
(1.14604 0.0241104 0)
(1.17808 0.0302268 0)
(1.15982 0.0383685 0)
(1.13823 0.0472038 0)
(1.11891 0.0561262 0)
(1.10008 0.0642455 0)
(1.08134 0.0703518 0)
(1.06601 0.0728845 0)
(1.05772 0.0723733 0)
(1.05758 0.0706107 0)
(1.06491 0.0678577 0)
(1.0665 0.0647122 0)
(1.00561 0.0553744 0)
(0.80234 0.0382478 0)
(0.503273 0.0191672 0)
(0.228019 0.00557906 0)
(0.035336 0.000231017 0)
(0.134877 0.000601461 0)
(0.731026 0.013556 0)
(1.0093 0.0245461 0)
(1.16344 0.033078 0)
(1.19319 0.0407657 0)
(1.17364 0.0505915 0)
(1.15014 0.0607576 0)
(1.12829 0.0707091 0)
(1.10645 0.0793462 0)
(1.08439 0.0853109 0)
(1.06607 0.0871177 0)
(1.0556 0.0857098 0)
(1.05426 0.0832291 0)
(1.06068 0.0795999 0)
(1.05632 0.0753483 0)
(0.976746 0.0633201 0)
(0.75228 0.0425555 0)
(0.451806 0.0207246 0)
(0.194266 0.00585858 0)
(0.0277221 0.000229945 0)
(0.150114 0.00088238 0)
(0.769974 0.0189929 0)
(1.04068 0.0335955 0)
(1.18614 0.0448607 0)
(1.21178 0.0547075 0)
(1.18973 0.0664217 0)
(1.16352 0.078023 0)
(1.13835 0.0888732 0)
(1.11279 0.0976999 0)
(1.08689 0.103083 0)
(1.06528 0.103766 0)
(1.05252 0.101193 0)
(1.04997 0.0978697 0)
(1.05494 0.0934757 0)
(1.04257 0.0876121 0)
(0.940435 0.0720574 0)
(0.693905 0.0468628 0)
(0.394837 0.021974 0)
(0.158551 0.00597774 0)
(0.0200225 0.000218317 0)
(0.171763 0.00136782 0)
(0.82191 0.0272468 0)
(1.08315 0.0465391 0)
(1.21527 0.0613413 0)
(1.23436 0.0739751 0)
(1.20817 0.0874696 0)
(1.17811 0.100309 0)
(1.14865 0.11155 0)
(1.11865 0.119897 0)
(1.08843 0.123994 0)
(1.06334 0.122986 0)
(1.0483 0.118911 0)
(1.04457 0.114562 0)
(1.04772 0.109287 0)
(1.02398 0.101353 0)
(0.894762 0.0811344 0)
(0.626407 0.0506865 0)
(0.332989 0.0226366 0)
(0.121923 0.00586477 0)
(0.0125667 0.000193231 0)
(0.20328 0.00244828 0)
(0.892633 0.0410678 0)
(1.14023 0.0672607 0)
(1.25122 0.0860709 0)
(1.26073 0.101385 0)
(1.22836 0.116108 0)
(1.19309 0.129221 0)
(1.15837 0.13972 0)
(1.12331 0.14647 0)
(1.0885 0.148273 0)
(1.05995 0.144838 0)
(1.04277 0.138878 0)
(1.03795 0.133308 0)
(1.03841 0.127008 0)
(0.998757 0.116129 0)
(0.837518 0.0897496 0)
(0.550045 0.0534082 0)
(0.268422 0.0225232 0)
(0.0863127 0.00551512 0)
(0.00587378 0.000156695 0)
(0.246207 0.00879592 3.72924e-20)
(0.986224 0.068673 3.27668e-20)
(1.20967 0.102011 -1.15689e-20)
(1.29097 0.12264 0)
(1.28806 0.140558 -3.07014e-34)
(1.24813 0.154678 4.51757e-21)
(1.20689 0.166279 -8.29981e-21)
(1.1664 0.174606 0)
(1.12597 0.178663 1.74272e-34)
(1.08634 0.177369 -1.06146e-20)
(1.05416 0.171048 0)
(1.0348 0.163092 -1.27785e-20)
(1.02927 0.156634 -3.78208e-20)
(1.02565 0.149987 -1.79132e-20)
(0.962327 0.134341 -5.41038e-21)
(0.761935 0.0991084 -3.21875e-21)
(0.45958 0.0551724 0)
(0.19979 0.0219598 2.24954e-21)
(0.0517676 0.00515814 2.65542e-21)
(-0.000102106 0.000105601 4.7898e-20)
(0.276292 0.0245454 2.4517e-20)
(1.06353 0.111842 5.51794e-22)
(1.26692 0.151549 2.95743e-21)
(1.32664 0.172375 0)
(1.31209 0.190043 -1.51478e-20)
(1.26516 0.201993 -1.74422e-20)
(1.21804 0.211278 -8.26949e-21)
(1.17176 0.217141 -2.99716e-20)
(1.12579 0.218464 0)
(1.08101 0.214153 4.50253e-20)
(1.04486 0.205093 4.49564e-20)
(1.02317 0.19522 1.34079e-20)
(1.01539 0.187217 4.92641e-20)
(1.00204 0.178551 6.95794e-20)
(0.903999 0.155165 0)
(0.658379 0.10815 9.83371e-20)
(0.353121 0.0560935 1.40928e-19)
(0.128618 0.0205828 1.56431e-19)
(0.0172542 0.00359282 -1.78783e-19)
(-0.00606615 -0.00051313 -3.36977e-21)
(0.277341 0.0406419 0)
(1.11247 0.167748 3.66644e-21)
(1.30559 0.212476 0)
(1.35441 0.232712 -1.79142e-20)
(1.33102 0.247221 0)
(1.27822 0.255278 -3.34496e-20)
(1.2256 0.260812 1.66865e-20)
(1.17386 0.263078 -5.95361e-20)
(1.12265 0.260765 -1.59315e-21)
(1.07303 0.252759 2.31096e-20)
(1.0332 0.240468 9.88622e-20)
(1.00937 0.228343 -1.89648e-22)
(0.999137 0.218539 -3.57737e-20)
(0.975989 0.206687 -6.54027e-20)
(0.850502 0.174606 7.75336e-20)
(0.582369 0.115664 -1.37259e-19)
(0.28912 0.0568078 -1.80923e-20)
(0.0902086 0.0189468 0)
(-0.00124614 0.00123772 -1.58721e-23)
(-0.00949132 -0.00134535 0)
(0.27074 0.0545405 3.05491e-20)
(1.13889 0.226929 -1.75515e-20)
(1.3295 0.277879 -1.69398e-20)
(1.37289 0.298202 7.99272e-21)
(1.3434 0.308691 -1.3654e-20)
(1.28621 0.312178 6.94662e-20)
(1.22908 0.313258 3.45056e-20)
(1.17265 0.311246 0)
(1.11679 0.304707 -1.1406e-19)
(1.06277 0.292471 0)
(1.01957 0.276511 -5.15859e-20)
(0.993704 0.261756 -6.43405e-20)
(0.981001 0.249716 -3.88816e-20)
(0.949364 0.233821 -4.74455e-20)
(0.806585 0.192979 0)
(0.531788 0.123983 0)
(0.252855 0.0589891 -1.17527e-19)
(0.0681897 0.0175002 2.31824e-20)
(-0.0134493 -0.00157953 -1.35773e-20)
(-0.0122909 -0.00239664 -1.58842e-20)
(0.262788 0.0667737 8.06785e-22)
(1.1504 0.285886 0)
(1.34263 0.344141 2.77478e-20)
(1.38305 0.365041 2.08145e-20)
(1.34933 0.371592 3.25725e-20)
(1.28895 0.370469 0)
(1.22829 0.36696 3.2963e-20)
(1.168 0.36045 6.51342e-20)
(1.10816 0.349419 5.78763e-20)
(1.05023 0.332657 1.0869e-19)
(1.00392 0.312718 0)
(0.976123 0.295031 -1.38446e-19)
(0.961103 0.280376 -8.37586e-20)
(0.92263 0.260121 -4.96064e-20)
(0.771379 0.211226 3.04583e-19)
(0.499849 0.133583 3.6182e-20)
(0.233622 0.0625674 1.69851e-19)
(0.0562555 0.016417 -8.02234e-19)
(-0.0216284 -0.00463342 4.74004e-19)
(-0.0147333 -0.00362523 -5.71353e-19)
(0.255027 0.0777583 1.66643e-20)
(1.15226 0.342725 -6.25024e-22)
(1.34787 0.409324 -1.31856e-21)
(1.38649 0.431327 -1.5736e-20)
(1.34974 0.43418 -2.43433e-20)
(1.287 0.428614 1.79947e-21)
(1.22355 0.420652 -3.57794e-20)
(1.1601 0.409693 6.67298e-20)
(1.09685 0.394155 -1.24464e-19)
(1.03545 0.372778 0)
(0.986274 0.348692 -6.24214e-20)
(0.956529 0.327849 -1.57158e-21)
(0.939253 0.310399 -9.1728e-20)
(0.895983 0.285834 0)
(0.742625 0.22982 -6.59055e-20)
(0.479917 0.144714 -1.56151e-19)
(0.224811 0.0676544 4.15368e-19)
(0.0520233 0.016274 -4.09191e-19)
(-0.025544 -0.00730234 5.7992e-19)
(-0.0164172 -0.00485773 -6.02644e-19)
(0.248341 0.0878394 -4.25624e-22)
(1.14805 0.396764 5.18194e-21)
(1.34739 0.472425 5.07956e-21)
(1.38465 0.495854 3.78537e-21)
(1.34572 0.495405 -1.17558e-20)
(1.28119 0.485678 0)
(1.21551 0.47351 -3.20034e-20)
(1.14941 0.458287 -6.95042e-20)
(1.08321 0.438369 -6.43213e-20)
(1.01868 0.412433 0)
(0.966808 0.38417 -6.44076e-20)
(0.935111 0.360086 -8.05339e-20)
(0.915723 0.339741 9.95247e-20)
(0.869304 0.310954 -6.0566e-20)
(0.717997 0.248941 -2.87689e-19)
(0.466714 0.157422 1.70404e-19)
(0.222897 0.0742631 5.04794e-20)
(0.0531905 0.0173334 0)
(-0.0257163 -0.00905819 -5.60648e-19)
(-0.017167 -0.00590216 -2.05808e-20)
(0.242863 0.0973314 5.67368e-21)
(1.1401 0.447816 -8.36434e-21)
(1.34271 0.532976 -4.07665e-21)
(1.37878 0.557906 1.72005e-20)
(1.33821 0.554609 -3.85718e-20)
(1.27232 0.541088 5.82192e-20)
(1.20483 0.525013 6.90568e-20)
(1.13649 0.505783 -1.10942e-19)
(1.06768 0.481698 4.06331e-20)
(1.00027 0.451347 -2.66896e-19)
(0.945839 0.418977 -7.33213e-20)
(0.91221 0.391661 0)
(0.890804 0.368431 1.08144e-19)
(0.842238 0.335657 1.29969e-19)
(0.695162 0.26852 1.55199e-19)
(0.456407 0.171156 -1.85495e-19)
(0.223318 0.0821647 -5.47884e-20)
(0.0573194 0.0199009 6.43853e-20)
(-0.0229324 -0.00959949 0)
(-0.0169572 -0.00659156 -4.47897e-20)
(0.238537 0.106403 -8.35842e-20)
(1.13011 0.495989 4.74708e-20)
(1.33508 0.590767 6.05142e-21)
(1.36992 0.617162 6.93536e-21)
(1.32804 0.611402 -1.44283e-20)
(1.26112 0.594458 -4.11704e-21)
(1.19214 0.574824 -7.60203e-20)
(1.12186 0.551895 -4.02874e-20)
(1.05069 0.523902 -1.12024e-19)
(0.98062 0.489345 3.26573e-22)
(0.923728 0.452993 -2.29136e-19)
(0.888171 0.4225 1.95534e-19)
(0.864802 0.396449 -1.19274e-19)
(0.814701 0.35993 1.43701e-19)
(0.673012 0.287817 0)
(0.446436 0.185416 -1.01187e-19)
(0.224171 0.0908564 3.28857e-22)
(0.062641 0.0236448 -2.81845e-19)
(-0.0184761 -0.00907735 -4.13194e-20)
(-0.0160743 -0.00696085 0)
(0.235254 0.115203 0)
(1.11907 0.541514 5.4157e-20)
(1.32545 0.646244 2.45293e-20)
(1.35889 0.673491 -2.65829e-21)
(1.31589 0.665585 -2.21389e-20)
(1.24817 0.645579 0)
(1.17796 0.622731 -3.27227e-20)
(1.10599 0.596432 -1.03938e-21)
(1.03269 0.564833 2.40387e-19)
(0.960081 0.526318 -3.64941e-20)
(0.900788 0.486133 -1.65806e-19)
(0.863346 0.452534 1.01457e-19)
(0.838156 0.423729 -2.23296e-21)
(0.786817 0.383526 1.53162e-19)
(0.650305 0.306692 9.40179e-20)
(0.43519 0.199684 -2.1867e-19)
(0.223703 0.0997709 2.58644e-19)
(0.0675547 0.0281283 7.6674e-20)
(-0.0133197 -0.00767128 3.1566e-19)
(-0.0147045 -0.00700761 -8.43266e-19)
(0.23294 0.123897 -2.69326e-20)
(1.10773 0.584577 3.69671e-20)
(1.31442 0.698712 -2.53996e-20)
(1.34632 0.72688 -5.26713e-21)
(1.30236 0.717066 0)
(1.234 0.694328 -2.2723e-20)
(1.16277 0.668612 1.12152e-19)
(1.0893 0.639278 8.77629e-20)
(1.01401 0.604393 0)
(0.938953 0.562197 -5.29057e-19)
(0.877295 0.518332 4.49954e-19)
(0.83801 0.481707 0)
(0.81106 0.450145 1.4008e-19)
(0.758597 0.406244 -2.20786e-21)
(0.626619 0.324641 -3.02644e-19)
(0.422127 0.213133 1.18086e-19)
(0.220897 0.108432 0)
(0.0709552 0.0328522 4.14863e-19)
(-0.00852137 -0.00578508 0)
(-0.0131598 -0.00682664 -4.00282e-19)
(0.231462 0.132546 3.20649e-20)
(1.09651 0.62544 4.74044e-20)
(1.3026 0.74825 -2.5304e-20)
(1.33269 0.777346 0)
(1.2879 0.76583 -1.31506e-20)
(1.21905 0.74067 0)
(1.14695 0.712403 -1.0767e-19)
(1.07213 0.68037 -3.94058e-20)
(0.994971 0.642535 4.19329e-20)
(0.917525 0.596952 -2.62042e-19)
(0.853481 0.549578 4.63268e-20)
(0.812367 0.509968 0)
(0.783741 0.475583 -2.9974e-19)
(0.730083 0.427815 2.10346e-21)
(0.601552 0.341321 0)
(0.407102 0.225178 8.86159e-22)
(0.215501 0.116137 3.80426e-19)
(0.0721281 0.0371274 -3.59197e-19)
(-0.00486324 -0.00392573 1.05918e-19)
(-0.0117128 -0.00653673 0)
(0.230494 0.141065 0)
(1.08569 0.664222 5.6717e-20)
(1.29024 0.795017 3.62952e-20)
(1.31844 0.824944 -2.56333e-21)
(1.2729 0.811905 2.08364e-22)
(1.20367 0.784607 -5.1222e-20)
(1.13083 0.754095 4.13275e-20)
(1.05479 0.719684 -4.78362e-20)
(0.975854 0.679233 1.89011e-19)
(0.896024 0.630582 -4.1986e-19)
(0.829529 0.579881 -4.2442e-21)
(0.786555 0.537276 -1.30623e-19)
(0.756282 0.499904 4.87574e-19)
(0.701406 0.447985 -2.55614e-21)
(0.575649 0.356262 -2.3616e-19)
(0.390011 0.235468 -4.18741e-19)
(0.207752 0.122364 0)
(0.0710396 0.0404091 0)
(-0.00261688 -0.00249101 1.14521e-19)
(-0.0105119 -0.00626273 -6.71861e-20)
(0.230252 0.149575 4.45022e-20)
(1.0755 0.700823 -1.28341e-19)
(1.27756 0.839157 -3.8889e-20)
(1.3039 0.869738 0)
(1.25766 0.855352 -1.49924e-21)
(1.18813 0.826169 -4.14673e-20)
(1.11468 0.793698 9.62814e-20)
(1.03752 0.75722 1.84889e-19)
(0.956886 0.714488 2.44974e-19)
(0.874663 0.663103 -3.42898e-19)
(0.805608 0.609279 -3.89016e-19)
(0.760677 0.563631 3.4987e-19)
(0.72874 0.523009 0)
(0.672543 0.466458 -1.0772e-19)
(0.54898 0.36911 -2.5547e-19)
(0.371323 0.243498 -3.0162e-19)
(0.197834 0.126773 -3.55686e-19)
(0.0680831 0.0423409 1.05041e-19)
(-0.00164083 -0.00169293 -6.17257e-20)
(-0.00959088 -0.00606829 3.17564e-22)
(0.230181 0.158001 0)
(1.06604 0.735535 0)
(1.26486 0.880765 2.45919e-21)
(1.2893 0.911841 0)
(1.24241 0.896262 -1.43683e-20)
(1.17267 0.865418 2.35452e-20)
(1.09871 0.831246 0)
(1.02053 0.792993 2.1318e-20)
(0.93827 0.748311 4.0817e-19)
(0.853639 0.694546 -7.90061e-19)
(0.781863 0.637832 0)
(0.734786 0.589076 -2.25886e-19)
(0.70105 0.544835 -2.99995e-21)
(0.643439 0.482981 -2.22022e-21)
(0.521783 0.37948 2.7404e-19)
(0.351219 0.248923 1.4973e-23)
(0.186269 0.129015 -7.67091e-19)
(0.0635829 0.0428976 2.26139e-19)
(-0.00171783 -0.00153458 6.68617e-20)
(-0.00891921 -0.00595286 0)
(0.23023 0.166295 -1.76737e-19)
(1.05709 0.768597 -8.59332e-20)
(1.25223 0.919929 -1.12898e-19)
(1.27481 0.951394 1.13158e-19)
(1.22735 0.934712 -4.0556e-20)
(1.15747 0.902421 0)
(1.08308 0.866786 5.58542e-20)
(1.00399 0.827032 -4.82603e-20)
(0.920173 0.780723 3.93168e-21)
(0.833125 0.724953 5.86088e-20)
(0.758426 0.665617 5.05371e-19)
(0.708903 0.61372 -7.92316e-20)
(0.673125 0.565388 -3.01891e-19)
(0.613975 0.497326 -1.25859e-19)
(0.494095 0.386969 1.48688e-19)
(0.330209 0.251419 1.67228e-22)
(0.173672 0.128954 2.06776e-19)
(0.0580761 0.0420847 -4.87082e-19)
(-0.00243475 -0.00188783 5.75779e-19)
(-0.00840582 -0.00588843 8.39303e-20)
(0.230277 0.174349 6.69157e-20)
(1.04865 0.800087 -4.8269e-20)
(1.23981 0.956754 6.2588e-21)
(1.26057 0.98853 7.19333e-20)
(1.21262 0.970816 1.53874e-20)
(1.14266 0.937253 -3.69225e-20)
(1.06794 0.900371 1.44883e-20)
(0.988019 0.859361 -2.00309e-19)
(0.902733 0.811729 -4.49275e-19)
(0.813264 0.754338 -4.71423e-19)
(0.73544 0.692724 0)
(0.683057 0.637714 -3.49718e-19)
(0.644833 0.584745 4.3624e-19)
(0.583889 0.509302 0)
(0.465937 0.391143 -3.18928e-19)
(0.309118 0.250538 1.89269e-19)
(0.161069 0.126407 -2.22536e-19)
(0.0526118 0.0401357 -2.62234e-19)
(-0.0033523 -0.0025292 -4.63867e-19)
(-0.00803089 -0.00586935 -3.61774e-19)
(0.230661 0.182281 -7.55468e-20)
(1.04056 0.830004 5.16471e-20)
(1.22767 0.991318 1.1778e-19)
(1.24667 1.02334 1.04787e-19)
(1.19831 1.00467 -2.84684e-20)
(1.12834 0.970003 -1.41408e-20)
(1.05337 0.932054 4.98903e-20)
(0.972722 0.890023 -2.04207e-19)
(0.886048 0.841355 -2.66273e-19)
(0.794186 0.782726 4.93811e-19)
(0.713032 0.719239 1.11373e-18)
(0.657305 0.661235 0)
(0.616034 0.603067 0)
(0.552813 0.51885 -1.45064e-19)
(0.437036 0.39149 0)
(0.288347 0.245276 4.0677e-19)
(0.150187 0.120476 4.78451e-19)
(0.0492969 0.0368528 0)
(-0.00328709 -0.00325709 0)
(-0.00779717 -0.00590135 3.88978e-19)
(0.230762 0.189797 8.57461e-20)
(1.03285 0.858348 6.92013e-20)
(1.21587 1.02375 8.55048e-20)
(1.23318 1.05596 -1.00471e-19)
(1.18451 1.03638 -3.74473e-20)
(1.11459 1.00075 5.98566e-21)
(1.03945 0.961898 -6.74272e-20)
(0.958168 0.919049 -7.57982e-22)
(0.870205 0.869609 -5.12548e-21)
(0.775996 0.810121 -4.28448e-21)
(0.69135 0.745231 5.74428e-19)
(0.631748 0.684458 0)
(0.586631 0.620617 4.439e-19)
(0.520281 0.526114 3.10369e-19)
(0.406613 0.387686 7.45701e-19)
(0.267528 0.234079 2.19467e-19)
(0.142765 0.108043 -2.57458e-19)
(0.0531541 0.0285621 -1.51156e-19)
(0.00458013 -0.0053843 0)
(-0.00543169 -0.00521626 4.18172e-19)
(0.231208 0.197337 -1.93041e-19)
(1.02548 0.885211 0)
(1.2044 1.0541 1.00372e-19)
(1.22013 1.08644 -8.50028e-20)
(1.17127 1.06605 5.08717e-20)
(1.10143 1.02958 8.82871e-21)
(1.02622 0.989959 1.23563e-19)
(0.9444 0.946472 -1.70547e-20)
(0.855257 0.896501 0)
(0.75878 0.836501 -5.44935e-19)
(0.670538 0.77073 -1.25045e-18)
(0.606535 0.707555 5.17867e-20)
(0.556634 0.637731 6.14958e-19)
(0.485913 0.531534 0)
(0.373339 0.380036 5.04395e-19)
(0.244268 0.215449 0)
(0.136506 0.0821906 0)
(0.0694494 -0.000459601 -1.63482e-19)
(0.043138 -0.0189857 0)
(0.0260622 0.00939832 1.12156e-19)
(0.231318 0.204308 -2.15492e-19)
(1.01839 0.910943 0)
(1.19327 1.08258 1.66976e-19)
(1.20749 1.11504 0)
(1.15854 1.09394 -3.08978e-20)
(1.08883 1.05678 0)
(1.01363 1.01655 4.74377e-21)
(0.931322 0.972628 2.79914e-20)
(0.841078 0.922388 3.35361e-20)
(0.742368 0.862246 -5.97371e-19)
(0.6504 0.79617 3.7359e-20)
(0.581408 0.731183 4.18805e-19)
(0.525554 0.655267 6.00977e-19)
(0.448717 0.535735 8.11666e-20)
(0.335034 0.369839 3.96452e-19)
(0.212945 0.190337 0)
(0.118626 0.0377528 5.42967e-19)
(0.0652909 -0.0417842 -3.16727e-19)
(0.0408882 0.0392612 3.68553e-19)
(-0.0690882 0.439057 -4.34081e-19)
(0.23144 0.2111 1.78361e-19)
(1.01134 0.935313 2.74944e-19)
(1.18236 1.1095 0)
(1.19511 1.1422 4.86642e-21)
(1.14614 1.12063 9.13349e-20)
(1.07651 1.08303 -5.34975e-20)
(1.00136 1.04246 3.83834e-20)
(0.918514 0.998445 0)
(0.827126 0.948344 2.18887e-19)
(0.726075 0.888646 -3.08127e-20)
(0.630001 0.82302 0)
(0.555062 0.756996 0)
(0.491297 0.674649 5.40084e-19)
(0.40615 0.539183 -2.51612e-19)
(0.288291 0.35882 -4.03269e-19)
(0.168254 0.161694 0)
(0.0701421 0.0511402 2.74388e-19)
(0.00249191 0.435698 -3.16111e-19)
(0.0322094 1.8968 -1.72018e-19)
(0.0613043 2.81493 -2.20772e-19)
(0.23142 0.217097 -1.33744e-19)
(1.00453 0.958513 -3.52556e-19)
(1.1717 1.13486 9.8996e-20)
(1.183 1.16778 8.22572e-20)
(1.13407 1.14588 0)
(1.06454 1.10804 -4.79628e-20)
(0.989597 1.06738 4.54395e-20)
(0.906173 1.0235 -1.32119e-20)
(0.813677 0.97386 3.29279e-20)
(0.710296 0.915102 5.68733e-19)
(0.609955 0.850667 6.34054e-19)
(0.528419 0.784666 4.7159e-19)
(0.454652 0.696156 5.45215e-19)
(0.359641 0.54103 -5.9418e-19)
(0.238155 0.350746 -6.1132e-19)
(0.114459 0.208429 0)
(0.0408342 0.836021 0)
(0.09814 2.55523 1.5087e-19)
(0.0995142 3.20448 0)
(0.102961 3.3892 3.57154e-19)
(0.233934 0.222672 0)
(0.998566 0.980748 0)
(1.16106 1.1585 0)
(1.17095 1.19163 2.47686e-20)
(1.122 1.16946 8.32667e-20)
(1.05272 1.13169 -4.76814e-20)
(0.978241 1.09121 2.66071e-20)
(0.89426 1.04767 -1.26836e-20)
(0.8007 0.998804 2.70008e-19)
(0.695068 0.941483 -8.66075e-21)
(0.590429 0.879029 1.25313e-18)
(0.501784 0.814076 -5.47062e-20)
(0.415796 0.72108 6.60786e-20)
(0.311694 0.538999 8.63043e-20)
(0.174586 0.36203 -6.02572e-21)
(0.0947937 0.962173 1.84366e-21)
(0.136214 2.72785 -8.05385e-19)
(0.143969 3.29356 -3.00135e-19)
(0.133693 3.42537 1.53291e-19)
(0.121874 3.44753 -1.70034e-19)
(0.152854 0.180206 7.90593e-20)
(0.987177 1.00475 0)
(1.15003 1.18062 -1.97424e-19)
(1.15947 1.21425 -2.22437e-19)
(1.11082 1.19218 1.9523e-19)
(1.04197 1.15467 5.50428e-20)
(0.967228 1.11404 -2.37423e-20)
(0.882888 1.07112 1.30027e-19)
(0.788372 1.02335 -2.19117e-19)
(0.680692 0.967976 0)
(0.571859 0.908333 6.15162e-19)
(0.475723 0.845143 -3.85743e-19)
(0.377069 0.752344 0)
(0.256553 0.533565 8.09488e-20)
(0.137613 0.719354 1.92722e-19)
(0.151997 2.50333 -2.22207e-19)
(0.207916 3.32171 2.48163e-19)
(0.188798 3.43687 1.32146e-19)
(0.157388 3.45868 1.47112e-19)
(0.136142 3.46918 2.3081e-19)
(0.276546 0.26016 -1.44518e-19)
(0.971459 1.01412 0)
(1.13158 1.20577 2.14791e-19)
(1.14413 1.24462 2.42503e-19)
(1.09323 1.22515 -2.15541e-19)
(1.0236 1.18799 -7.77736e-20)
(0.947922 1.14901 3.27841e-21)
(0.863045 1.10731 1.0421e-20)
(0.767152 1.06173 2.04928e-19)
(0.656581 1.0103 4.86336e-19)
(0.542166 0.957171 3.43628e-20)
(0.434285 0.898418 3.43232e-19)
(0.304952 0.785442 6.22541e-20)
(0.209635 0.898959 -7.96538e-20)
(0.226755 2.35093 -1.79129e-19)
(0.288442 3.32267 1.68103e-19)
(0.27128 3.46418 -1.83612e-19)
(0.236171 3.48667 -1.05159e-19)
(0.199452 3.51479 -8.48424e-20)
(0.148131 3.5095 -9.97013e-21)
(0.264302 0.256958 0)
(0.968827 1.03651 6.19503e-20)
(1.12303 1.22911 -4.42542e-20)
(1.13331 1.2682 -2.88704e-20)
(1.08223 1.24831 -1.48733e-19)
(1.01255 1.21138 8.03651e-20)
(0.93654 1.17252 5.78308e-21)
(0.851438 1.13163 9.03665e-21)
(0.754966 1.08755 -2.11105e-19)
(0.642989 1.03903 -1.34944e-20)
(0.525532 0.990848 -1.1088e-18)
(0.411983 0.936371 4.91866e-20)
(0.284833 0.849972 -5.85949e-20)
(0.25312 1.4702 -7.32817e-20)
(0.329187 3.09924 1.82142e-20)
(0.34792 3.46076 3.24106e-23)
(0.307818 3.51744 2.54788e-19)
(0.270619 3.54511 1.19841e-19)
(0.222126 3.56911 -2.13227e-20)
(0.163287 3.56563 -4.30934e-20)
(0.248146 0.255446 1.56784e-19)
(0.964603 1.06157 4.2253e-19)
(1.11408 1.25455 -1.26782e-19)
(1.12191 1.2932 -1.08932e-19)
(1.0706 1.27281 0)
(1.00106 1.23594 1.42697e-19)
(0.925025 1.19732 2.32297e-20)
(0.83998 1.15722 7.53442e-21)
(0.743253 1.11474 -2.37921e-20)
(0.630409 1.06942 -4.33695e-19)
(0.510769 1.02659 -5.08887e-19)
(0.393202 0.975545 -3.99455e-19)
(0.285885 0.979945 -4.43415e-19)
(0.324127 2.19941 4.57607e-19)
(0.417451 3.37001 3.75113e-19)
(0.392988 3.51767 0)
(0.347805 3.56387 0)
(0.309802 3.60562 -1.54302e-20)
(0.259172 3.66625 0)
(0.176181 3.64283 -5.6001e-21)
(0.237516 0.257311 -2.34556e-19)
(0.958464 1.08771 -3.58458e-19)
(1.10367 1.28116 0)
(1.10912 1.31891 5.83771e-21)
(1.05768 1.2979 -1.60081e-19)
(0.988433 1.26097 2.29929e-19)
(0.912708 1.22265 2.35288e-20)