/*--------------------------------*- C++ -*----------------------------------*\
| =========                 |                                                 |
| \\      /  F ield         | OpenFOAM: The Open Source CFD Toolbox           |
|  \\    /   O peration     | Version:  2112                                  |
|   \\  /    A nd           | Website:  www.openfoam.com                      |
|    \\/     M anipulation  |                                                 |
\*---------------------------------------------------------------------------*/
FoamFile
{
    version     2.0;
    format      ascii;
    arch        "LSB;label=32;scalar=64";
    class       volScalarField;
    location    "80";
    object      T;
}
// * * * * * * * * * * * * * * * * * * * * * * * * * * * * * * * * * * * * * //

dimensions      [0 0 0 1 0 0 0];

internalField   nonuniform List<scalar> 
10000
(
7.81994e-14
7.02037e-14
6.16984e-14
5.48369e-14
4.93591e-14
4.55868e-14
4.37232e-14
4.37497e-14
4.60606e-14
4.94436e-14
4.47258e-13
3.99673e-13
3.50511e-13
3.10229e-13
2.78384e-13
2.56746e-13
2.46312e-13
2.47042e-13
2.60389e-13
2.80653e-13
1.42072e-12
1.25967e-12
1.09567e-12
9.61e-13
8.57229e-13
7.88445e-13
7.56824e-13
7.63183e-13
8.09476e-13
8.78169e-13
3.97731e-12
3.50724e-12
3.02069e-12
2.62084e-12
2.31986e-12
2.12541e-12
2.04155e-12
2.07064e-12
2.21184e-12
2.4093e-12
1.06193e-11
9.33098e-12
7.96364e-12
6.83684e-12
6.00198e-12
5.47362e-12
5.25797e-12
5.35695e-12
5.75386e-12
6.2812e-12
2.77727e-11
2.43377e-11
2.06114e-11
1.75275e-11
1.52639e-11
1.3851e-11
1.32925e-11
1.358e-11
1.46372e-11
1.59933e-11
7.18711e-11
6.28464e-11
5.28978e-11
4.46207e-11
3.85692e-11
3.48151e-11
3.33393e-11
3.40862e-11
3.67944e-11
4.02008e-11
1.84799e-10
1.61318e-10
1.35138e-10
1.13231e-10
9.72156e-11
8.72707e-11
8.32869e-11
8.50485e-11
9.17736e-11
1.00185e-10
4.73172e-10
4.12493e-10
3.44264e-10
2.86866e-10
2.44788e-10
2.18485e-10
2.07558e-10
2.11309e-10
2.27577e-10
2.48064e-10
1.20813e-09
1.05207e-09
8.75461e-10
7.26128e-10
6.16132e-10
5.46623e-10
5.16356e-10
5.23284e-10
5.61717e-10
6.11008e-10
3.0787e-09
2.67866e-09
2.22374e-09
1.83712e-09
1.55059e-09
1.367e-09
1.28278e-09
1.29225e-09
1.38094e-09
1.49813e-09
7.83473e-09
6.81196e-09
5.64428e-09
4.64667e-09
3.90222e-09
3.41742e-09
3.18279e-09
3.18322e-09
3.38249e-09
3.65784e-09
1.99176e-08
1.73079e-08
1.43183e-08
1.17504e-08
9.81997e-09
8.54035e-09
7.88747e-09
7.82234e-09
8.25518e-09
8.89438e-09
5.05933e-08
4.39442e-08
3.63034e-08
2.97086e-08
2.47097e-08
2.13358e-08
1.95237e-08
1.91752e-08
2.00747e-08
2.15342e-08
1.28415e-07
1.11499e-07
9.20022e-08
7.50995e-08
6.21735e-08
5.32875e-08
4.82726e-08
4.68891e-08
4.86351e-08
5.19004e-08
3.25657e-07
2.82683e-07
2.33038e-07
1.89815e-07
1.56438e-07
1.33066e-07
1.19232e-07
1.14369e-07
1.17362e-07
1.24477e-07
8.24932e-07
7.15926e-07
5.8995e-07
4.79709e-07
3.93668e-07
3.32263e-07
2.94222e-07
2.78256e-07
2.81989e-07
2.96956e-07
2.08615e-06
1.81079e-06
1.49245e-06
1.21215e-06
9.90901e-07
8.29671e-07
7.25364e-07
6.75269e-07
6.74375e-07
7.04195e-07
5.26281e-06
4.57179e-06
3.77116e-06
3.06188e-06
2.495e-06
2.07227e-06
1.7871e-06
1.63447e-06
1.60465e-06
1.6584e-06
1.3234e-05
1.15115e-05
9.51153e-06
7.72889e-06
6.28371e-06
5.17889e-06
4.40194e-06
3.94626e-06
3.79717e-06
3.87586e-06
3.31274e-05
2.88671e-05
2.39219e-05
1.9484e-05
1.58244e-05
1.29516e-05
1.08439e-05
9.5054e-06
8.93234e-06
8.98005e-06
8.23683e-05
7.19741e-05
5.99192e-05
4.90098e-05
3.9834e-05
3.24127e-05
2.67259e-05
2.28526e-05
2.08818e-05
2.06024e-05
0.00020289
0.000178038
0.000149214
0.000122857
0.000100174
8.11784e-05
6.59479e-05
5.48934e-05
4.85195e-05
4.67634e-05
0.000493471
0.000435584
0.000368477
0.000306351
0.000251374
0.000203432
0.000163069
0.00013194
0.000112148
0.000104931
0.00117979
0.00104974
0.000899137
0.000757648
0.000628092
0.000509617
0.000404318
0.000318013
0.000258367
0.000232674
0.00275681
0.00247892
0.00215763
0.00185046
0.00155722
0.00127348
0.0010053
0.000770936
0.000595675
0.000510326
0.0062529
0.00569857
0.00505981
0.00443647
0.00381015
0.00316162
0.00250346
0.00188605
0.00138437
0.00111061
0.0136577
0.0126533
0.0115039
0.0103559
0.00912651
0.00774474
0.00622049
0.00467066
0.0032903
0.00242938
0.028477
0.0268945
0.0251137
0.0232876
0.0211609
0.0185127
0.0152868
0.0116837
0.00812989
0.00548376
0.0561685
0.0541892
0.052055
0.0497993
0.0468024
0.0425095
0.0366379
0.0293477
0.0217889
0.0146423
7.11517e-14
6.40973e-14
5.6505e-14
5.0335e-14
4.53741e-14
4.19538e-14
4.02292e-14
4.02117e-14
4.22215e-14
4.51282e-14
4.05044e-13
3.64208e-13
3.20705e-13
2.84532e-13
2.5574e-13
2.36143e-13
2.26507e-13
2.26961e-13
2.38386e-13
2.55069e-13
1.27673e-12
1.14184e-12
9.98826e-13
8.78351e-13
7.84861e-13
7.22633e-13
6.9382e-13
6.98917e-13
7.37693e-13
7.92562e-13
3.55389e-12
3.16521e-12
2.74543e-12
2.39006e-12
2.11986e-12
1.94425e-12
1.86804e-12
1.8912e-12
2.00699e-12
2.16388e-12
9.45365e-12
8.39457e-12
7.22488e-12
6.23013e-12
5.48304e-12
5.00677e-12
4.80924e-12
4.88601e-12
5.20632e-12
5.62302e-12
2.46586e-11
2.18468e-11
1.86833e-11
1.59758e-11
1.3955e-11
1.26813e-11
1.21644e-11
1.238e-11
1.32219e-11
1.42862e-11
6.36942e-11
5.63241e-11
4.79205e-11
4.06855e-11
3.52949e-11
3.19087e-11
3.05286e-11
3.10639e-11
3.31959e-11
3.58606e-11
1.63576e-10
1.44423e-10
1.22363e-10
1.03278e-10
8.90382e-11
8.00614e-11
7.63089e-11
7.74925e-11
8.27304e-11
8.93002e-11
4.18483e-10
3.69006e-10
3.11614e-10
2.61728e-10
2.24365e-10
2.00607e-10
1.90275e-10
1.92537e-10
2.05068e-10
2.2104e-10
1.06786e-09
9.40612e-10
7.92227e-10
6.62647e-10
5.65075e-10
5.02265e-10
4.73624e-10
4.7689e-10
5.06119e-10
5.44455e-10
2.72014e-09
2.39389e-09
2.01197e-09
1.67678e-09
1.42281e-09
1.25684e-09
1.17726e-09
1.17812e-09
1.24449e-09
1.33537e-09
6.92034e-09
6.08593e-09
5.10588e-09
4.2414e-09
3.58183e-09
3.14359e-09
2.92252e-09
2.90346e-09
3.04955e-09
3.26216e-09
1.75899e-08
1.54597e-08
1.29495e-08
1.07259e-08
9.01508e-09
7.85941e-09
7.24653e-09
7.13854e-09
7.44757e-09
7.93748e-09
4.46768e-08
3.92473e-08
3.28301e-08
2.71209e-08
2.26892e-08
1.96435e-08
1.79487e-08
1.75123e-08
1.81279e-08
1.92369e-08
1.13401e-07
9.95806e-08
8.32025e-08
6.85708e-08
5.71054e-08
4.90868e-08
4.44137e-08
4.28654e-08
4.39732e-08
4.6428e-08
2.87612e-07
2.52501e-07
2.10796e-07
1.73369e-07
1.43749e-07
1.22652e-07
1.09801e-07
1.04693e-07
1.06281e-07
1.11553e-07
7.28655e-07
6.39686e-07
5.33853e-07
4.38328e-07
3.61977e-07
3.06465e-07
2.71218e-07
2.5514e-07
2.55874e-07
2.66703e-07
1.84335e-06
1.61849e-06
1.35101e-06
1.10817e-06
9.11867e-07
7.66007e-07
6.69588e-07
6.20357e-07
6.13433e-07
6.34122e-07
4.65356e-06
4.08856e-06
3.41584e-06
2.80136e-06
2.29823e-06
1.91599e-06
1.65296e-06
1.50522e-06
1.46414e-06
1.4986e-06
1.17124e-05
1.03041e-05
8.62342e-06
7.07881e-06
5.79471e-06
4.7964e-06
4.08098e-06
3.64505e-06
3.47777e-06
3.51733e-06
2.93513e-05
2.58732e-05
2.17204e-05
1.78716e-05
1.4618e-05
1.202e-05
1.0081e-05
8.81317e-06
8.21844e-06
8.19229e-06
7.31195e-05
6.46457e-05
5.45305e-05
4.50562e-05
3.68932e-05
3.01698e-05
2.49389e-05
2.12942e-05
1.93258e-05
1.89217e-05
0.000180659
0.000160405
0.000136221
0.000113311
9.30992e-05
7.58647e-05
6.18437e-05
5.14682e-05
4.52403e-05
4.33041e-05
0.000441218
0.00039408
0.000337785
0.000283733
0.000234651
0.000191076
0.000153859
0.000124651
0.000105527
9.81365e-05
0.00106068
0.000954984
0.000828722
0.0007055
0.000589614
0.000481686
0.000384365
0.000303255
0.000245828
0.000220187
0.00249655
0.00227156
0.00200264
0.00173504
0.0014723
0.00121318
0.000964561
0.000743539
0.000574421
0.000489581
0.00571578
0.00527083
0.00473831
0.00419609
0.0036347
0.00304125
0.00242907
0.00184394
0.0013563
0.00108169
0.012631
0.0118401
0.0108918
0.0098999
0.00880167
0.00753731
0.00611552
0.00463882
0.00328301
0.00240455
0.0267071
0.0255184
0.0240895
0.0225454
0.0206716
0.0182638
0.0152544
0.011817
0.00825979
0.00550492
0.053529
0.0522375
0.050676
0.0489027
0.0463799
0.0425705
0.0371487
0.030256
0.0226982
0.0147969
6.43282e-14
5.81508e-14
5.14088e-14
4.59032e-14
4.14527e-14
3.83656e-14
3.67878e-14
3.67329e-14
3.84961e-14
4.10252e-14
3.65488e-13
3.30064e-13
2.91655e-13
2.59459e-13
2.3366e-13
2.15976e-13
2.07171e-13
2.07312e-13
2.1719e-13
2.31508e-13
1.14279e-12
1.02817e-12
9.03638e-13
7.97339e-13
7.14156e-13
6.58355e-13
6.32067e-13
6.35561e-13
6.68105e-13
7.14048e-13
3.15174e-12
2.82717e-12
2.46879e-12
2.15927e-12
1.92097e-12
1.7646e-12
1.69479e-12
1.71095e-12
1.80477e-12
1.93249e-12
8.31435e-12
7.44433e-12
6.46325e-12
5.60801e-12
4.95464e-12
4.53236e-12
4.3501e-12
4.40119e-12
4.65254e-12
4.98326e-12
2.15398e-11
1.92658e-11
1.66484e-11
1.43462e-11
1.25918e-11
1.14655e-11
1.09833e-11
1.1116e-11
1.17577e-11
1.25838e-11
5.53511e-11
4.94606e-11
4.25797e-11
3.64826e-11
3.18304e-11
2.88402e-11
2.75399e-11
2.7832e-11
2.94141e-11
3.14457e-11
1.41614e-10
1.26427e-10
1.08508e-10
9.25334e-11
8.0298e-11
7.2377e-11
6.88187e-11
6.93386e-11
7.31294e-11
7.80687e-11
3.61334e-10
3.22315e-10
2.75956e-10
2.34398e-10
2.02392e-10
1.81437e-10
1.71619e-10
1.72168e-10
1.81011e-10
1.92881e-10
9.2034e-10
8.20359e-10
7.00939e-10
5.93333e-10
5.09905e-10
4.54521e-10
4.27349e-10
4.26387e-10
4.46457e-10
4.74643e-10
2.34143e-09
2.08572e-09
1.77901e-09
1.50124e-09
1.28429e-09
1.13802e-09
1.06281e-09
1.05362e-09
1.09774e-09
1.16386e-09
5.95196e-09
5.29891e-09
4.51277e-09
3.79734e-09
3.23409e-09
2.84808e-09
2.64021e-09
2.59814e-09
2.69124e-09
2.84425e-09
1.51208e-08
1.34551e-08
1.14433e-08
9.60374e-09
8.14315e-09
7.12517e-09
6.5521e-09
6.39424e-09
6.57909e-09
6.92749e-09
3.83946e-08
3.41511e-08
2.90109e-08
2.42876e-08
2.05041e-08
1.78212e-08
1.62454e-08
1.57071e-08
1.60376e-08
1.68151e-08
9.74446e-08
8.66464e-08
7.35336e-08
6.1426e-08
5.16362e-08
4.45704e-08
4.02483e-08
3.85125e-08
3.89792e-08
4.06686e-08
2.47168e-07
2.19733e-07
1.86351e-07
1.55374e-07
1.30079e-07
1.11483e-07
9.96565e-08
9.42609e-08
9.44484e-08
9.79815e-08
6.26438e-07
5.56881e-07
4.72145e-07
3.93087e-07
3.27853e-07
2.78959e-07
2.46666e-07
2.30315e-07
2.28115e-07
2.35077e-07
1.58579e-06
1.41006e-06
1.19581e-06
9.94733e-07
8.26904e-07
6.98527e-07
6.10537e-07
5.61876e-07
5.49093e-07
5.61425e-07
4.00745e-06
3.56587e-06
3.02693e-06
2.5179e-06
2.08751e-06
1.75108e-06
1.51181e-06
1.36898e-06
1.31711e-06
1.33414e-06
1.01024e-05
9.00043e-06
7.65472e-06
6.3745e-06
5.27583e-06
4.39643e-06
3.74718e-06
3.33245e-06
3.14801e-06
3.15296e-06
2.5378e-05
2.26538e-05
1.93282e-05
1.61373e-05
1.33515e-05
1.10612e-05
9.30394e-06
8.11012e-06
7.49749e-06
7.40648e-06
6.34347e-05
5.67889e-05
4.86852e-05
4.08317e-05
3.3834e-05
2.79033e-05
2.31638e-05
1.97522e-05
1.7799e-05
1.72842e-05
0.000157434
0.000141525
0.000122161
0.000103171
8.58293e-05
7.06054e-05
5.78919e-05
4.82092e-05
4.21464e-05
4.00485e-05
0.000386809
0.000349738
0.000304717
0.000259935
0.00021779
0.000179228
0.000145416
0.000118153
9.96765e-05
9.20953e-05
0.000937243
0.000854099
0.000753383
0.000651451
0.000551901
0.000456198
0.00036752
0.000291574
0.000236045
0.000210166
0.00222853
0.00205192
0.00183861
0.0016181
0.00139256
0.00116239
0.000935034
0.000726957
0.000562247
0.000476363
0.00516774
0.00482126
0.00440398
0.00396121
0.00348105
0.00295367
0.0023919
0.00183736
0.00135706
0.0010752
0.0115999
0.010998
0.0102753
0.00948225
0.00855276
0.00743251
0.00612564
0.00471757
0.00336499
0.00244746
0.0249868
0.0241407
0.0231259
0.021956
0.0204144
0.0183062
0.0155507
0.0122642
0.0086798
0.00574848
0.0511564
0.0504587
0.0496065
0.0484936
0.0465894
0.0433768
0.0385043
0.0319603
0.0244034
0.0159127
5.99091e-14
5.42753e-14
4.80883e-14
4.30282e-14
3.89207e-14
3.60534e-14
3.45696e-14
3.44839e-14
3.6087e-14
3.83983e-14
3.39125e-13
3.06962e-13
2.71928e-13
2.42456e-13
2.18735e-13
2.02364e-13
1.9411e-13
1.94031e-13
2.02916e-13
2.15945e-13
1.05189e-12
9.48722e-13
8.36441e-13
7.40097e-13
6.64293e-13
6.1307e-13
5.88505e-13
5.90911e-13
6.19672e-13
6.61069e-13
2.87408e-12
2.58619e-12
2.26808e-12
1.99123e-12
1.77636e-12
1.63397e-12
1.56872e-12
1.58018e-12
1.66092e-12
1.77361e-12
7.51581e-12
6.75643e-12
5.89965e-12
5.14504e-12
4.56184e-12
4.17974e-12
4.00851e-12
4.0422e-12
4.25182e-12
4.53682e-12
1.93247e-11
1.73705e-11
1.51188e-11
1.31127e-11
1.15607e-11
1.05462e-11
1.00897e-11
1.01657e-11
1.06832e-11
1.13784e-11
4.93585e-11
4.43662e-11
3.85217e-11
3.32636e-11
2.91778e-11
2.64923e-11
2.52528e-11
2.53769e-11
2.66104e-11
2.82826e-11
1.25706e-10
1.12978e-10
9.79084e-11
8.42404e-11
7.35517e-11
6.64508e-11
6.30457e-11
6.3105e-11
6.59624e-11
6.99502e-11
3.19691e-10
2.87262e-10
2.48557e-10
2.13201e-10
1.85342e-10
1.66577e-10
1.57177e-10
1.56536e-10
1.62973e-10
1.72399e-10
8.12405e-10
7.29805e-10
6.30609e-10
5.3941e-10
4.66958e-10
4.17399e-10
3.9143e-10
3.87544e-10
4.01598e-10
4.23666e-10
2.0636e-09
1.85322e-09
1.59931e-09
1.36447e-09
1.17631e-09
1.04549e-09
9.73869e-10
9.57799e-10
9.87266e-10
1.03837e-09
5.24028e-09
4.70451e-09
4.0551e-09
3.45107e-09
2.96288e-09
2.61779e-09
2.42078e-09
2.36325e-09
2.42143e-09
2.53821e-09
1.33042e-08
1.194e-08
1.02804e-08
8.72834e-09
7.46272e-09
6.55298e-09
6.01251e-09
5.82174e-09
5.92516e-09
6.18764e-09
3.37703e-08
3.02983e-08
2.60607e-08
2.20771e-08
1.87988e-08
1.6402e-08
1.49232e-08
1.43197e-08
1.44647e-08
1.50417e-08
8.5699e-08
7.68683e-08
6.60628e-08
5.58518e-08
4.73684e-08
4.10583e-08
3.70217e-08
3.51716e-08
3.52267e-08
3.64562e-08
2.17402e-07
1.9497e-07
1.67469e-07
1.41342e-07
1.19418e-07
1.02817e-07
9.18209e-08
8.6274e-08
8.55781e-08
8.80783e-08
5.51203e-07
4.94343e-07
4.24542e-07
3.57854e-07
3.01291e-07
2.57657e-07
2.27752e-07
2.11385e-07
2.07376e-07
2.12076e-07
1.39634e-06
1.25269e-06
1.07619e-06
9.06544e-07
7.60967e-07
6.46419e-07
5.65211e-07
5.17483e-07
5.01244e-07
5.08778e-07
3.5328e-06
3.1716e-06
2.72762e-06
2.2981e-06
1.92464e-06
1.62444e-06
1.40421e-06
1.26625e-06
1.2085e-06
1.2158e-06
8.92116e-06
8.01883e-06
6.91027e-06
5.82993e-06
4.8763e-06
4.09142e-06
3.49498e-06
3.09879e-06
2.90669e-06
2.89305e-06
2.24651e-05
2.02313e-05
1.74918e-05
1.47994e-05
1.23803e-05
1.03354e-05
8.72271e-06
7.59065e-06
6.97602e-06
6.85256e-06
5.63398e-05
5.08812e-05
4.42075e-05
3.7583e-05
3.1504e-05
2.62046e-05
2.18552e-05
1.86334e-05
1.67143e-05
1.61506e-05
0.00014045
0.000127355
0.000111421
9.54148e-05
8.03444e-05
6.67256e-05
5.5046e-05
4.5912e-05
4.00134e-05
3.78593e-05
0.000347108
0.000316536
0.000279554
0.00024186
0.000205233
0.000170687
0.000139558
0.000113794
9.58518e-05
8.82325e-05
0.000847453
0.000778788
0.000696332
0.000610788
0.000524326
0.000438463
0.000356571
0.000284499
0.000230349
0.000204394
0.00203445
0.00188864
0.00171523
0.00153129
0.00133583
0.00112911
0.000918429
0.00071979
0.000557801
0.000470959
0.00477377
0.00448932
0.00415521
0.00379042
0.00337659
0.00290315
0.00238102
0.00184819
0.00137079
0.001082
0.0108686
0.0103843
0.00982524
0.00918959
0.00839908
0.00739749
0.00618173
0.00482183
0.00346267
0.00250918
0.0238016
0.0231647
0.0224517
0.0215792
0.0203109
0.0184497
0.0158962
0.0127159
0.00909159
0.00600995
0.0496404
0.049297
0.04896
0.0483666
0.0469621
0.0442326
0.039793
0.0335187
0.0259414
0.0169694
5.7528e-14
5.21852e-14
4.62909e-14
4.14616e-14
3.75389e-14
3.47913e-14
3.33595e-14
3.32651e-14
3.47853e-14
3.69774e-14
3.25002e-13
2.94579e-13
2.61302e-13
2.3326e-13
2.10654e-13
1.94994e-13
1.87038e-13
1.86867e-13
1.95251e-13
2.0758e-13
1.00432e-12
9.06635e-13
8.00756e-13
7.09668e-13
6.37794e-13
5.88997e-13
5.65326e-13
5.67156e-13
5.93967e-13
6.33272e-13
2.73026e-12
2.45975e-12
2.16196e-12
1.90206e-12
1.69956e-12
1.56455e-12
1.50168e-12
1.51081e-12
1.5852e-12
1.69107e-12
7.10362e-12
6.39643e-12
5.60095e-12
4.89813e-12
4.35196e-12
3.99116e-12
3.82582e-12
3.8511e-12
4.0412e-12
4.30559e-12
1.8182e-11
1.63775e-11
1.43049e-11
1.24509e-11
1.10059e-11
1.0051e-11
9.60873e-12
9.65741e-12
1.01174e-11
1.07542e-11
4.62651e-11
4.16915e-11
3.63543e-11
3.15274e-11
2.77418e-11
2.52198e-11
2.40151e-11
2.40587e-11
2.51303e-11
2.66425e-11
1.17483e-10
1.059e-10
9.22296e-11
7.97496e-11
6.98821e-11
6.32234e-11
5.99085e-11
5.97478e-11
6.21696e-11
6.57318e-11
2.98131e-10
2.6878e-10
2.33842e-10
2.01687e-10
1.76034e-10
1.58455e-10
1.49304e-10
1.48097e-10
1.53407e-10
1.61735e-10
7.56439e-10
6.81976e-10
5.92771e-10
5.10055e-10
4.43451e-10
3.97055e-10
3.71808e-10
3.66539e-10
3.77773e-10
3.97076e-10
1.91932e-09
1.73026e-09
1.50252e-09
1.28989e-09
1.11709e-09
9.94684e-10
9.25207e-10
9.05924e-10
9.28525e-10
9.72824e-10
4.87021e-09
4.38991e-09
3.80841e-09
3.2621e-09
2.814e-09
2.49122e-09
2.3006e-09
2.23599e-09
2.27786e-09
2.37825e-09
1.23588e-08
1.11378e-08
9.65319e-09
8.25033e-09
7.08894e-09
6.23829e-09
5.71687e-09
5.51148e-09
5.57714e-09
5.80081e-09
3.13631e-08
2.82576e-08
2.44693e-08
2.08697e-08
1.78617e-08
1.56214e-08
1.41988e-08
1.3568e-08
1.36277e-08
1.41146e-08
7.95867e-08
7.16897e-08
6.2032e-08
5.28069e-08
4.50231e-08
3.91267e-08
3.52545e-08
3.33622e-08
3.32309e-08
3.42555e-08
2.0192e-07
1.81856e-07
1.57282e-07
1.33679e-07
1.13561e-07
9.80539e-08
8.75328e-08
8.19518e-08
8.0865e-08
8.29102e-08
5.12083e-07
4.61221e-07
3.98864e-07
3.38615e-07
2.86708e-07
2.45959e-07
2.17413e-07
2.01155e-07
1.96372e-07
2.00092e-07
1.29781e-06
1.16935e-06
1.01169e-06
8.58417e-07
7.24801e-07
6.17847e-07
5.4048e-07
4.93539e-07
4.75909e-07
4.81416e-07
3.28583e-06
2.96288e-06
2.56633e-06
2.17826e-06
1.83543e-06
1.55514e-06
1.34565e-06
1.21099e-06
1.15117e-06
1.15451e-06
8.30657e-06
7.49942e-06
6.50936e-06
5.53337e-06
4.65784e-06
3.92494e-06
3.35817e-06
2.97357e-06
2.77982e-06
2.75906e-06
2.09501e-05
1.89506e-05
1.65036e-05
1.40718e-05
1.18505e-05
9.94051e-06
8.40881e-06
7.31371e-06
6.70348e-06
6.56894e-06
5.26528e-05
4.77605e-05
4.17997e-05
3.58187e-05
3.02362e-05
2.52844e-05
2.11528e-05
1.80414e-05
1.61523e-05
1.5576e-05
0.000131631
0.000119866
0.000105649
9.12087e-05
7.73696e-05
6.46358e-05
5.35316e-05
4.47104e-05
3.89232e-05
3.6767e-05
0.000326499
0.000298985
0.000266038
0.000232076
0.00019845
0.000166122
0.000136483
0.000111559
9.39443e-05
8.63587e-05
0.000800842
0.00073902
0.000665711
0.000588823
0.000509502
0.000429087
0.000350957
0.000281026
0.000227671
0.000201771
0.0019338
0.00180243
0.00164907
0.00148451
0.00130552
0.00111182
0.000910377
0.000716891
0.000556379
0.000469162
0.00456984
0.00431421
0.00402194
0.00369862
0.00332124
0.00287784
0.00237767
0.00185658
0.00138047
0.00108809
0.0104918
0.0100614
0.00958478
0.00903285
0.00831866
0.00738317
0.0062179
0.00488384
0.00352032
0.00254737
0.0231982
0.0226561
0.0220943
0.0213787
0.0202594
0.0185352
0.0160936
0.0129714
0.00932201
0.00615859
0.0488977
0.0487139
0.0486295
0.0483039
0.0471655
0.0446989
0.0404972
0.0343633
0.0267643
0.0175164
5.74019e-14
5.20728e-14
4.62022e-14
4.139e-14
3.74731e-14
3.4728e-14
3.32961e-14
3.31931e-14
3.47007e-14
3.68851e-14
3.24256e-13
2.93937e-13
2.60789e-13
2.3282e-13
2.10248e-13
1.94605e-13
1.8665e-13
1.8645e-13
1.94768e-13
2.07033e-13
1.00178e-12
9.04939e-13
7.99243e-13
7.08281e-13
6.36493e-13
5.87752e-13
5.64102e-13
5.65908e-13
5.92641e-13
6.31429e-13
2.72381e-12
2.45495e-12
2.15775e-12
1.89832e-12
1.69608e-12
1.56123e-12
1.49838e-12
1.50735e-12
1.58144e-12
1.68633e-12
7.08762e-12
6.38324e-12
5.5896e-12
4.88812e-12
4.34277e-12
3.9824e-12
3.81707e-12
3.84186e-12
4.03098e-12
4.29365e-12
1.81415e-11
1.63427e-11
1.42747e-11
1.24243e-11
1.09817e-11
1.0028e-11
9.58572e-12
9.63311e-12
1.00905e-11
1.07237e-11
4.61615e-11
4.16002e-11
3.6274e-11
3.14565e-11
2.76774e-11
2.5159e-11
2.39545e-11
2.3995e-11
2.50603e-11
2.65647e-11
1.17217e-10
1.05664e-10
9.20154e-11
7.95599e-11
6.97109e-11
6.30627e-11
5.97494e-11
5.95814e-11
6.19884e-11
6.55336e-11
2.97451e-10
2.68162e-10
2.33272e-10
2.01182e-10
1.75581e-10
1.58033e-10
1.48888e-10
1.47665e-10
1.52942e-10
1.61231e-10
7.54711e-10
6.80294e-10
5.91256e-10
5.08719e-10
4.42259e-10
3.95951e-10
3.70731e-10
3.6543e-10
3.76587e-10
3.95802e-10
1.91477e-09
1.72574e-09
1.49854e-09
1.28639e-09
1.11398e-09
9.91825e-10
9.2244e-10
9.03097e-10
9.25529e-10
9.6963e-10
4.85802e-09
4.37826e-09
3.79806e-09
3.25301e-09
2.80595e-09
2.48387e-09
2.29355e-09
2.22886e-09
2.27037e-09
2.3703e-09
1.23269e-08
1.11079e-08
9.62643e-09
8.22684e-09
7.06824e-09
6.21953e-09
5.69907e-09
5.49366e-09
5.55854e-09
5.78119e-09
3.12809e-08
2.81821e-08
2.44003e-08
2.08092e-08
1.78086e-08
1.55737e-08
1.41541e-08
1.35237e-08
1.35819e-08
1.40665e-08
7.93792e-08
7.14993e-08
6.18539e-08
5.2651e-08
4.48876e-08
3.90061e-08
3.51427e-08
3.3253e-08
3.31192e-08
3.41389e-08
2.01404e-07
1.81357e-07
1.5682e-07
1.33278e-07
1.13216e-07
9.77499e-08
8.72548e-08
8.16841e-08
8.05944e-08
8.26296e-08
5.1077e-07
4.59873e-07
3.97673e-07
3.37587e-07
2.8583e-07
2.45196e-07
2.16726e-07
2.00503e-07
1.95722e-07
1.99423e-07
1.29434e-06
1.16584e-06
1.00865e-06
8.55803e-07
7.22579e-07
6.15938e-07
5.38788e-07
4.91962e-07
4.74359e-07
4.79835e-07
3.27667e-06
2.95405e-06
2.55859e-06
2.17163e-06
1.82983e-06
1.55038e-06
1.3415e-06
1.20719e-06
1.1475e-06
1.15081e-06
8.28286e-06
7.47708e-06
6.48967e-06
5.51656e-06
4.64372e-06
3.91307e-06
3.348e-06
2.96448e-06
2.77121e-06
2.75047e-06
2.08892e-05
1.88931e-05
1.64536e-05
1.40292e-05
1.18149e-05
9.91094e-06
8.38392e-06
7.292e-06
6.6834e-06
6.54917e-06
5.2495e-05
4.76129e-05
4.16731e-05
3.57109e-05
3.01465e-05
2.52106e-05
2.10918e-05
1.79896e-05
1.61056e-05
1.55308e-05
0.000131222
0.000119501
0.000105332
9.0937e-05
7.71434e-05
6.4451e-05
5.33818e-05
4.45866e-05
3.88152e-05
3.66644e-05
0.000325472
0.000298083
0.000265244
0.000231394
0.000197879
0.000165659
0.000136113
0.000111263
9.36951e-05
8.6128e-05
0.000798333
0.000736766
0.000663746
0.000587119
0.000508067
0.000427922
0.000350043
0.000280316
0.000227098
0.000201258
0.00192777
0.00179705
0.00164429
0.00148029
0.00130192
0.00110889
0.000908094
0.00071517
0.000555063
0.000468042
0.00455594
0.00430173
0.00401055
0.00368832
0.00331226
0.00287041
0.00237191
0.00185235
0.00137741
0.00108565
0.0104613
0.0100335
0.00955843
0.00900827
0.00829657
0.0073644
0.00620307
0.00487301
0.00351333
0.00254272
0.0231351
0.0225968
0.0220359
0.0213223
0.0202068
0.0184889
0.0160565
0.0129461
0.00930602
0.00614513
0.0487758
0.048594
0.048508
0.048182
0.0470466
0.0445892
0.0404041
0.0342925
0.0267337
0.0175324
5.95207e-14
5.39678e-14
4.78313e-14
4.27947e-14
3.87024e-14
3.58438e-14
3.4364e-14
3.42739e-14
3.58537e-14
3.81215e-14
3.36903e-13
3.05228e-13
2.70475e-13
2.41134e-13
2.17498e-13
2.01174e-13
1.92942e-13
1.92836e-13
2.01592e-13
2.14358e-13
1.04501e-12
9.43323e-13
8.31906e-13
7.36004e-13
6.60476e-13
6.09411e-13
5.84892e-13
5.87182e-13
6.15522e-13
6.56101e-13
2.85564e-12
2.57109e-12
2.25538e-12
1.97995e-12
1.76591e-12
1.62399e-12
1.55881e-12
1.56981e-12
1.6493e-12
1.76009e-12
7.46806e-12
6.71613e-12
5.86545e-12
5.11485e-12
4.5341e-12
4.15331e-12
3.98218e-12
4.01448e-12
4.22082e-12
4.50134e-12
1.92021e-11
1.72644e-11
1.50274e-11
1.30322e-11
1.14873e-11
1.04766e-11
1.00203e-11
1.00924e-11
1.06018e-11
1.12866e-11
4.90434e-11
4.40865e-11
3.82772e-11
3.30482e-11
2.89828e-11
2.63083e-11
2.50698e-11
2.51842e-11
2.63982e-11
2.80471e-11
1.24891e-10
1.12239e-10
9.72547e-11
8.36648e-11
7.30333e-11
6.59647e-11
6.25645e-11
6.2601e-11
6.54126e-11
6.9348e-11
3.17574e-10
2.85311e-10
2.46818e-10
2.1167e-10
1.8397e-10
1.65299e-10
1.5592e-10
1.55228e-10
1.6156e-10
1.70867e-10
8.06883e-10
7.2466e-10
6.26015e-10
5.35369e-10
4.63354e-10
4.14063e-10
3.88174e-10
3.84182e-10
3.97997e-10
4.19795e-10
2.04915e-09
1.83973e-09
1.58726e-09
1.35389e-09
1.16691e-09
1.03685e-09
9.65506e-10
9.49238e-10
9.78167e-10
1.02865e-09
5.2025e-09
4.66938e-09
4.02375e-09
3.42357e-09
2.93856e-09
2.5956e-09
2.39948e-09
2.34166e-09
2.39865e-09
2.51404e-09
1.32059e-08
1.18489e-08
1.01991e-08
8.6572e-09
7.40013e-09
6.49631e-09
5.95866e-09
5.76773e-09
5.86868e-09
6.12799e-09
3.35157e-08
3.00624e-08
2.58501e-08
2.18935e-08
1.86383e-08
1.62579e-08
1.47879e-08
1.41855e-08
1.43256e-08
1.48956e-08
8.50436e-08
7.62583e-08
6.5518e-08
5.53788e-08
4.69581e-08
4.06935e-08
3.66831e-08
3.48404e-08
3.4887e-08
3.61014e-08
2.15718e-07
1.93391e-07
1.66064e-07
1.40127e-07
1.18372e-07
1.01898e-07
9.0979e-08
8.54615e-08
8.47547e-08
8.72238e-08
5.46869e-07
4.90275e-07
4.20937e-07
3.54747e-07
2.98634e-07
2.55348e-07
2.25669e-07
2.09406e-07
2.05397e-07
2.10038e-07
1.38519e-06
1.2423e-06
1.06699e-06
8.9864e-07
7.54244e-07
6.40642e-07
5.60081e-07
5.12694e-07
4.96528e-07
5.03964e-07
3.50425e-06
3.14524e-06
2.70423e-06
2.27805e-06
1.90769e-06
1.61003e-06
1.39162e-06
1.25473e-06
1.19735e-06
1.20453e-06
8.84884e-06
7.95205e-06
6.85081e-06
5.77915e-06
4.83365e-06
4.05555e-06
3.46417e-06
3.07122e-06
2.88054e-06
2.86691e-06
2.22827e-05
2.00601e-05
1.73409e-05
1.46709e-05
1.2273e-05
1.02461e-05
8.64749e-06
7.52491e-06
6.91511e-06
6.79249e-06
5.58758e-05
5.04448e-05
4.38261e-05
3.72583e-05
3.12336e-05
2.59821e-05
2.16713e-05
1.84767e-05
1.6573e-05
1.60135e-05
0.000139269
0.000126263
0.000110464
9.45975e-05
7.96644e-05
6.61703e-05
5.45951e-05
4.55386e-05
3.9687e-05
3.75489e-05
0.000344159
0.000313832
0.000277171
0.000239814
0.000203526
0.0001693
0.000138451
0.000112904
9.51008e-05
8.75361e-05
0.000840258
0.000772182
0.000690468
0.000605705
0.000520051
0.000434991
0.000353839
0.000282371
0.000228626
0.000202846
0.00201738
0.00187286
0.00170104
0.00151878
0.00132517
0.0011204
0.00091164
0.000714659
0.000553844
0.00046755
0.00473468
0.00445269
0.00412157
0.00376011
0.00335019
0.00288129
0.00236398
0.00183565
0.00136161
0.00107453
0.010783
0.0103024
0.00974798
0.0091179
0.00833473
0.0073428
0.00613842
0.00479042
0.00344089
0.00249273
0.0236239
0.0229906
0.022282
0.0214161
0.0201588
0.0183156
0.0157866
0.0126359
0.00903738
0.00597184
0.0492959
0.0489501
0.0486104
0.0480172
0.046622
0.0439183
0.0395229
0.0333084
0.0257934
0.0168683
6.36909e-14
5.76536e-14
5.09925e-14
4.55217e-14
4.10952e-14
3.80211e-14
3.64509e-14
3.63908e-14
3.81212e-14
4.05857e-14
3.61843e-13
3.27273e-13
2.89317e-13
2.57306e-13
2.31637e-13
2.14018e-13
2.05261e-13
2.05377e-13
2.15066e-13
2.28981e-13
1.13144e-12
1.01944e-12
8.96283e-13
7.90648e-13
7.07889e-13
6.52338e-13
6.26141e-13
6.29498e-13
6.61403e-13
7.06046e-13
3.12105e-12
2.80226e-12
2.44774e-12
2.14049e-12
1.90354e-12
1.74794e-12
1.6783e-12
1.69383e-12
1.7857e-12
1.91025e-12
8.23437e-12
7.37669e-12
6.40564e-12
5.55708e-12
4.90782e-12
4.48781e-12
4.30587e-12
4.35485e-12
4.60086e-12
4.92401e-12
2.13338e-11
1.90858e-11
1.64929e-11
1.42095e-11
1.24673e-11
1.13476e-11
1.08661e-11
1.09925e-11
1.16205e-11
1.24291e-11
5.48198e-11
4.89843e-11
4.21627e-11
3.61167e-11
3.14999e-11
2.8529e-11
2.72306e-11
2.75059e-11
2.90543e-11
3.10465e-11
1.40236e-10
1.25167e-10
1.07396e-10
9.15584e-11
7.94224e-11
7.15575e-11
6.80072e-11
6.84862e-11
7.21964e-11
7.70463e-11
3.57745e-10
3.19e-10
2.73011e-10
2.31815e-10
2.00083e-10
1.79289e-10
1.69505e-10
1.6996e-10
1.78615e-10
1.9028e-10
9.10989e-10
8.1166e-10
6.93182e-10
5.86531e-10
5.0385e-10
4.48926e-10
4.21879e-10
4.20718e-10
4.40356e-10
4.68075e-10
2.31703e-09
2.06294e-09
1.75869e-09
1.48345e-09
1.26851e-09
1.12355e-09
1.04877e-09
1.03919e-09
1.08234e-09
1.14739e-09
5.88827e-09
5.23962e-09
4.45992e-09
3.75111e-09
3.19325e-09
2.81086e-09
2.60447e-09
2.56175e-09
2.65271e-09
2.80326e-09
1.49549e-08
1.33012e-08
1.13063e-08
9.48409e-09
8.038e-09
7.03005e-09
6.46163e-09
6.30317e-09
6.48346e-09
6.82631e-09
3.79644e-08
3.37521e-08
2.86554e-08
2.39784e-08
2.02342e-08
1.75791e-08
1.60176e-08
1.54805e-08
1.58019e-08
1.65671e-08
9.63327e-08
8.56114e-08
7.26124e-08
6.0628e-08
5.09454e-08
4.39564e-08
3.96777e-08
3.79525e-08
3.84027e-08
4.00656e-08
2.44293e-07
2.17045e-07
1.8397e-07
1.53321e-07
1.28316e-07
1.09933e-07
9.82356e-08
9.28859e-08
9.30498e-08
9.65283e-08
6.18991e-07
5.49947e-07
4.66032e-07
3.87837e-07
3.2337e-07
2.75065e-07
2.43149e-07
2.26963e-07
2.24753e-07
2.3161e-07
1.56661e-06
1.39235e-06
1.18022e-06
9.81381e-07
8.15559e-07
6.88778e-07
6.01868e-07
5.53763e-07
5.41086e-07
5.53237e-07
3.95848e-06
3.52083e-06
2.98729e-06
2.48405e-06
2.05893e-06
1.72676e-06
1.49053e-06
1.34947e-06
1.29819e-06
1.31499e-06
9.97855e-06
8.88617e-06
7.55418e-06
6.28888e-06
5.20407e-06
4.33599e-06
3.6952e-06
3.28585e-06
3.10371e-06
3.10866e-06
2.5066e-05
2.23646e-05
1.9074e-05
1.59213e-05
1.31713e-05
1.09113e-05
9.17734e-06
7.99923e-06
7.39458e-06
7.30493e-06
6.26485e-05
5.60609e-05
4.80457e-05
4.0288e-05
3.33816e-05
2.75308e-05
2.28552e-05
1.94886e-05
1.7561e-05
1.70531e-05
0.000155467
0.000139711
0.000120565
0.00010181
8.46972e-05
6.96802e-05
5.71389e-05
4.75837e-05
4.15983e-05
3.9527e-05
0.00038196
0.000345275
0.000300775
0.000256554
0.000214969
0.000176933
0.000143578
0.00011667
9.84207e-05
9.09301e-05
0.000925557
0.000843303
0.000743774
0.000643127
0.000544902
0.000450504
0.00036302
0.000288047
0.000233173
0.000207584
0.00220113
0.00202641
0.00181559
0.00159784
0.0013753
0.00114826
0.000923958
0.000718508
0.000555666
0.000470693
0.00510567
0.0047627
0.00435013
0.00391275
0.00343888
0.00291867
0.00236445
0.00181688
0.00134183
0.00106282
0.0114652
0.0108687
0.0101533
0.0093693
0.00845156
0.00734644
0.00605718
0.00466706
0.00332898
0.00242047
0.0247104
0.0238692
0.022862
0.021703
0.0201792
0.0180991
0.0153813
0.0121391
0.00859138
0.00568658
0.0506268
0.0499253
0.0490705
0.0479598
0.0460718
0.0429
0.0380933
0.0316436
0.0241734
0.0157528
7.02446e-14
6.33937e-14
5.59246e-14
4.9803e-14
4.48726e-14
4.1471e-14
3.97588e-14
3.97366e-14
4.17062e-14
4.4531e-14
3.99871e-13
3.60271e-13
3.1743e-13
2.81518e-13
2.52898e-13
2.33387e-13
2.23841e-13
2.24268e-13
2.35468e-13
2.51635e-13
1.26052e-12
1.12975e-12
9.88396e-13
8.68849e-13
7.75976e-13
7.14105e-13
6.85457e-13
6.904e-13
7.28402e-13
7.81605e-13
3.51064e-12
3.13014e-12
2.71512e-12
2.36309e-12
2.09495e-12
1.92062e-12
1.84459e-12
1.86693e-12
1.98022e-12
2.13311e-12
9.34186e-12
8.29714e-12
7.14138e-12
6.15683e-12
5.41605e-12
4.94339e-12
4.7463e-12
4.82015e-12
5.13333e-12
5.54046e-12
2.43705e-11
2.15885e-11
1.84595e-11
1.57801e-11
1.37777e-11
1.25142e-11
1.19983e-11
1.22049e-11
1.30279e-11
1.40696e-11
6.29515e-11
5.5653e-11
4.73273e-11
4.01667e-11
3.48282e-11
3.14705e-11
3.00935e-11
3.06043e-11
3.26883e-11
3.53e-11
1.61668e-10
1.42657e-10
1.20798e-10
1.0191e-10
8.78129e-11
7.89168e-11
7.51755e-11
7.62985e-11
8.14194e-11
8.78652e-11
4.13554e-10
3.64389e-10
3.07504e-10
2.58129e-10
2.21155e-10
1.97627e-10
1.87339e-10
1.8946e-10
2.01714e-10
2.17398e-10
1.05499e-09