/*--------------------------------*- C++ -*----------------------------------*\
| =========                 |                                                 |
| \\      /  F ield         | OpenFOAM: The Open Source CFD Toolbox           |
|  \\    /   O peration     | Version:  2112                                  |
|   \\  /    A nd           | Website:  www.openfoam.com                      |
|    \\/     M anipulation  |                                                 |
\*---------------------------------------------------------------------------*/
FoamFile
{
    version     2.0;
    format      ascii;
    arch        "LSB;label=32;scalar=64";
    class       volVectorField;
    location    "80";
    object      U;
}
// * * * * * * * * * * * * * * * * * * * * * * * * * * * * * * * * * * * * * //

dimensions      [0 1 -1 0 0 0 0];

internalField   nonuniform List<vector> 
10000
(
(0.0926087 -0.00949987 0.00947206)
(0.0969844 -0.00159864 0.00990599)
(0.0966007 -0.00152378 0.0101673)
(0.0962488 -0.00074216 0.0101785)
(0.0961481 -0.000234433 0.0102378)
(0.0961473 0.000192088 0.0102363)
(0.0962533 0.000730381 0.0101724)
(0.0966072 0.00150986 0.010161)
(0.0969919 0.00159674 0.00990079)
(0.092617 0.00943445 0.00943668)
(0.0872241 -0.00544099 0.00535689)
(0.0960757 -0.0022932 0.00554648)
(0.0954464 -0.00259511 0.00572572)
(0.0945574 -0.00141492 0.00569618)
(0.0942277 -0.000485194 0.00575759)
(0.0943423 0.00039812 0.00577983)
(0.0945742 0.00137752 0.00566516)
(0.0954636 0.00255274 0.0056735)
(0.0960799 0.00228494 0.00550557)
(0.0872984 0.00523503 0.00523824)
(0.082641 -0.00257756 0.00254843)
(0.0942873 -0.00217335 0.00226004)
(0.0948006 -0.00269375 0.00220413)
(0.0940407 -0.00161464 0.00217642)
(0.0936 -0.000556049 0.00216776)
(0.0936168 0.000489791 0.00218413)
(0.0940873 0.00155462 0.00213738)
(0.0948812 0.00263639 0.00213203)
(0.0943656 0.00215349 0.00220568)
(0.0828535 0.00250248 0.00251249)
(0.0792204 -0.00114986 0.00115783)
(0.0919577 -0.00177046 0.000988356)
(0.0941597 -0.00237696 0.000735291)
(0.094003 -0.00156761 0.000681106)
(0.0936756 -0.000546868 0.000635663)
(0.0936825 0.000513038 0.000537411)
(0.0940532 0.0015214 0.00066014)
(0.0942457 0.00234069 0.000692446)
(0.092076 0.00173973 0.000907406)
(0.0793814 0.00125954 0.00126773)
(0.0771756 -0.000585802 0.000610717)
(0.0900921 -0.00130755 0.000608533)
(0.0937163 -0.00190559 0.000254582)
(0.0942888 -0.00137446 0.000164068)
(0.0942052 -0.000494943 0.000125324)
(0.0942268 0.000475341 7.50086e-05)
(0.0943403 0.00134625 0.000166144)
(0.093815 0.00189694 0.000245666)
(0.0902604 0.00128279 0.000467562)
(0.0772859 0.000664503 0.000662654)
(0.0759665 -0.000337039 0.000355322)
(0.088787 -0.000909929 0.000304529)
(0.0934615 -0.00143262 0.000101056)
(0.0947305 -0.00111041 1.43319e-05)
(0.0949395 -0.000413981 -1.94057e-05)
(0.0949609 0.000398119 -3.15687e-05)
(0.0947764 0.00109255 3.00773e-05)
(0.0935685 0.00143885 0.000124672)
(0.0890103 0.000910264 0.000297674)
(0.0760704 0.000375834 0.000363185)
(0.0751261 -0.000213611 0.000215016)
(0.0879247 -0.000622616 7.87495e-05)
(0.0932618 -0.00103752 4.16978e-05)
(0.0951084 -0.000846372 -2.88099e-05)
(0.0956054 -0.000326552 -5.83902e-05)
(0.0956193 0.000307523 -5.57226e-05)
(0.0951483 0.000831047 -7.98474e-06)
(0.0933579 0.00104522 8.09165e-05)
(0.0880966 0.000640897 0.000208453)
(0.0752482 0.000236333 0.000217667)
(0.0745178 -0.000148366 0.000142457)
(0.0872977 -0.000434828 6.81039e-05)
(0.0930838 -0.000734516 2.09079e-05)
(0.0953768 -0.000621806 -3.82201e-05)
(0.0961171 -0.000249767 -6.41607e-05)
(0.096128 0.000220596 -5.81352e-05)
(0.0954146 0.000601555 -1.86588e-05)
(0.093172 0.00073686 5.6824e-05)
(0.0874244 0.000449912 0.000150143)
(0.074647 0.000161718 0.000142093)
(0.0740873 -0.000108167 0.000101549)
(0.086853 -0.000304403 7.17883e-05)
(0.0929507 -0.000513075 1.49828e-05)
(0.0955695 -0.000447658 -3.47848e-05)
(0.0964989 -0.00019041 -5.73394e-05)
(0.0965112 0.000145694 -5.20069e-05)
(0.0956104 0.000416434 -1.96354e-05)
(0.0930372 0.000505346 4.00397e-05)
(0.0869569 0.000311543 0.000107744)
(0.0742211 0.000114874 9.70806e-05)
(0.0737865 -7.99373e-05 7.49422e-05)
(0.086544 -0.0002123 6.26783e-05)
(0.0928606 -0.000357013 9.97876e-06)
(0.0957077 -0.000322332 -2.94924e-05)
(0.0967802 -0.00014971 -4.99526e-05)
(0.0967963 8.43845e-05 -4.42874e-05)
(0.0957577 0.000274337 -1.83919e-05)
(0.0929545 0.000335131 2.46271e-05)
(0.086646 0.000207693 7.38696e-05)
(0.0739372 7.93462e-05 6.40941e-05)
(0.0735729 -6.04684e-05 5.63183e-05)
(0.0863293 -0.0001512 5.44746e-05)
(0.0927874 -0.000255162 6.84321e-05)
(0.0957999 -0.000238823 -5.29672e-06)
(0.0969781 -0.000126841 2.17417e-05)
(0.0970018 3.47984e-05 -2.24628e-05)
(0.0958668 0.000166528 -9.47852e-06)
(0.0929024 0.000216174 7.5863e-05)
(0.0864439 0.000132334 6.58117e-05)
(0.0737488 9.28149e-05 7.93427e-05)
(0.0734159 -4.77836e-05 4.41804e-05)
(0.0861724 -0.000113992 5.43464e-05)
(0.0926918 -0.000193859 0.000152023)
(0.0958395 -0.000189157 1.98896e-05)
(0.0970725 -0.000120966 0.000117602)
(0.0971357 -1.02394e-05 -4.81543e-06)
(0.0959415 8.18205e-05 6.10942e-06)
(0.0928436 0.000130641 0.000153357)
(0.0863141 7.71238e-05 6.22569e-05)
(0.0735962 0.000118189 0.000105871)
(0.0732912 -3.99447e-05 3.81959e-05)
(0.0860419 -9.38049e-05 4.8857e-05)
(0.0925736 -0.000158539 9.15984e-05)
(0.0958419 -0.000169272 2.35233e-05)
(0.0970925 -0.000132277 6.5132e-05)
(0.0972238 -5.92107e-05 1.22881e-06)
(0.0959912 8.34781e-06 9.18364e-06)
(0.0927832 5.35806e-05 8.54359e-05)
(0.0862406 3.25118e-05 4.30881e-05)
(0.0734954 6.30624e-05 5.20264e-05)
(0.0731816 -3.75479e-05 3.81158e-05)
(0.0859239 -8.94736e-05 4.48603e-05)
(0.0925081 -0.000153016 5.01076e-05)
(0.0958253 -0.000178393 2.02699e-05)
(0.0971337 -0.000164212 2.7772e-05)
(0.0972826 -0.000117391 -1.38075e-08)
(0.0960403 -6.49414e-05 3.38379e-06)
(0.0928005 -1.69963e-05 3.4861e-05)
(0.0862118 -5.62736e-06 2.02572e-05)
(0.0734789 1.94142e-05 8.86032e-06)
(0.0730606 -8.09544e-05 8.40008e-05)
(0.0858077 -9.96301e-05 4.87447e-05)
(0.0924136 -0.000175217 -2.73745e-05)
(0.0957918 -0.000219049 -9.9041e-07)
(0.097129 -0.000223908 -4.32534e-05)
(0.097321 -0.000196253 5.11923e-05)
(0.0960808 -0.000144125 6.48396e-05)
(0.0928212 -8.94982e-05 -4.03695e-05)
(0.0862337 -4.71887e-05 -1.38968e-05)
(0.0735082 -1.01778e-05 -2.17671e-05)
(0.0728631 -0.000150774 0.000149164)
(0.0856728 -0.000129062 5.09121e-05)
(0.0923708 -0.000231826 -5.45632e-05)
(0.0957573 -0.000296209 -5.40686e-06)
(0.0971709 -0.000321434 -0.000119685)
(0.0973159 -0.000306739 0.000139056)
(0.0960979 -0.000245288 0.000147405)
(0.0929345 -0.000170247 -6.8898e-05)
(0.0863144 -9.20732e-05 -2.26646e-05)
(0.0736025 4.82782e-06 -9.98292e-06)
(0.0726089 -0.000109701 9.53761e-05)
(0.0855202 -0.000180073 5.32647e-05)
(0.0922535 -0.000323509 8.83671e-05)
(0.0956889 -0.000415857 6.21024e-06)
(0.0971853 -0.000468101 -6.44447e-05)
(0.0972928 -0.000461908 1.47198e-05)
(0.0961187 -0.000394812 1.77043e-05)
(0.0930554 -0.00027786 4.90426e-05)
(0.0864549 -0.000150797 -3.2464e-05)
(0.0737222 -1.21926e-05 -3.24136e-05)
(0.0723583 -5.83527e-05 4.36145e-05)
(0.0852914 -0.000254799 6.69996e-05)
(0.0920327 -0.000440143 7.85489e-05)
(0.0955747 -0.000593245 1.65251e-05)
(0.0971647 -0.000685163 2.5029e-05)
(0.0973723 -0.000689794 -0.000116326)
(0.0962656 -0.00061132 -0.000128158)
(0.0931989 -0.000447737 3.4207e-06)
(0.0866908 -0.00024174 -7.28219e-05)
(0.0739719 -0.000126201 -0.000153633)
(0.0719912 -0.000154996 0.000153636)
(0.084966 -0.000366501 0.000176482)
(0.0917705 -0.000615606 8.86763e-05)
(0.0953862 -0.000856463 9.17003e-05)
(0.0970653 -0.00100634 0.000141137)
(0.0974547 -0.00103065 -6.40639e-06)
(0.0964749 -0.000922338 -2.42579e-05)
(0.0934862 -0.000691148 -2.32856e-05)
(0.0870497 -0.000370774 -5.48678e-05)
(0.0743883 -0.000159451 -0.000190458)
(0.0714188 -0.000290101 0.000300627)
(0.0844769 -0.000516295 0.000307219)
(0.0913535 -0.000872759 5.45234e-05)
(0.0950665 -0.00123676 0.000159412)
(0.0968804 -0.00147168 4.43024e-05)
(0.0974846 -0.00153707 0.000109408)
(0.0966949 -0.00138752 9.34566e-05)
(0.093867 -0.00106046 -0.000100911)
(0.08757 -0.000574505 -4.31698e-05)
(0.0749908 -0.00027207 -0.000296326)
(0.0706165 -0.000311304 0.000317123)
(0.0837981 -0.00069679 0.000214345)
(0.0908484 -0.00123375 -3.95512e-05)
(0.094626 -0.00177386 1.39589e-05)
(0.0967063 -0.00214935 -0.000108366)
(0.0974963 -0.00228006 -2.02981e-05)
(0.0969878 -0.00209666 -5.724e-05)
(0.094511 -0.00162693 -0.000251797)
(0.0883555 -0.000913635 -0.000270456)
(0.0759631 -0.000461732 -0.000484201)
(0.0695914 -0.000350706 0.000342507)
(0.0829768 -0.000951768 0.000134168)
(0.0901277 -0.00174738 -3.0335e-06)
(0.0940966 -0.00254412 -0.000126698)
(0.0964491 -0.00313867 -0.000114509)
(0.0976062 -0.0033784 -0.000181995)
(0.0975226 -0.00316638 -0.000227912)
(0.0954726 -0.00248674 -0.000283282)
(0.0896592 -0.00143688 -0.000528599)
(0.0774261 -0.000635009 -0.000652892)
(0.0682141 -0.00051884 0.000505982)
(0.0818147 -0.00130893 0.000246048)
(0.0890781 -0.00245679 3.58378e-05)
(0.0932998 -0.00363706 -0.000106986)
(0.0960161 -0.00456109 -0.000118944)
(0.0977101 -0.0049979 -0.000180763)
(0.0982584 -0.00477502 -0.000233231)
(0.0968506 -0.00382356 -0.000329032)
(0.0916202 -0.00225428 -0.000657431)
(0.0796387 -0.000943314 -0.000907033)
(0.0663585 -0.000709694 0.000704155)
(0.0801895 -0.00175869 0.000367086)
(0.0875883 -0.00340293 4.50736e-05)
(0.0921008 -0.00514097 -0.000116902)
(0.0953059 -0.00657391 -0.000161152)
(0.0977326 -0.0073593 -0.000203583)
(0.0992032 -0.00719979 -0.000258924)
(0.0988079 -0.00592287 -0.000414198)
(0.0945306 -0.00358879 -0.000846472)
(0.0830067 -0.00149245 -0.00128037)
(0.0639281 -0.000905755 0.000926491)
(0.0779844 -0.00230172 0.000467586)
(0.0855106 -0.00462503 1.18472e-05)
(0.0903385 -0.00716173 -0.000194784)
(0.0941621 -0.00937238 -0.000260872)
(0.0975665 -0.0107612 -0.000289875)
(0.100359 -0.0108409 -0.000338198)
(0.101533 -0.00923362 -0.000537959)
(0.0988409 -0.00580647 -0.00111735)
(0.0881756 -0.00245208 -0.00178313)
(0.0608458 -0.00109123 0.00117423)
(0.075052 -0.00292068 0.000540754)
(0.082653 -0.00614794 -8.3153e-05)
(0.0877943 -0.00980362 -0.000362455)
(0.0923513 -0.0131768 -0.000450147)
(0.0970134 -0.0155796 -0.000466292)
(0.101648 -0.0162548 -0.000488387)
(0.105214 -0.0144614 -0.000700692)
(0.105198 -0.00955733 -0.00144428)
(0.096223 -0.00415612 -0.00239898)
(0.0570702 -0.00123498 0.00144539)
(0.0712593 -0.00357064 0.000570378)
(0.0788 -0.00795938 -0.000274968)
(0.0841927 -0.0131392 -0.000660922)
(0.0895364 -0.0182003 -0.000783678)
(0.0957179 -0.022248 -0.000789249)
(0.1028 -0.0241887 -0.000760742)
(0.109863 -0.0227265 -0.000913745)
(0.114286 -0.0160554 -0.00175641)
(0.108739 -0.00726388 -0.00298779)
(0.0526276 -0.00128585 0.00173136)
(0.0665033 -0.004174 0.000527836)
(0.0737384 -0.00999777 -0.000612473)
(0.079208 -0.0171748 -0.00115336)
(0.0852712 -0.0245894 -0.00134481)
(0.0931275 -0.0311746 -0.00136519)
(0.103261 -0.0355032 -0.00128332)
(0.115278 -0.035603 -0.00127672)
(0.127335 -0.0274214 -0.00199465)
(0.129588 -0.0130791 -0.00335124)
(0.0476337 -0.00118449 0.00202148)
(0.0607263 -0.00463662 0.000375002)
(0.0672836 -0.0121625 -0.00115582)
(0.072505 -0.0218395 -0.00191813)
(0.0790128 -0.0323736 -0.00223937)
(0.0883953 -0.0426632 -0.00234531)
(0.101799 -0.0511608 -0.00229973)
(0.119883 -0.055728 -0.00214777)
(0.142446 -0.0486036 -0.00183234)
(0.16185 -0.0256871 -0.00247412)
(0.0423171 -0.000888844 0.00229429)
(0.0539941 -0.0049028 6.1031e-05)
(0.0593378 -0.0143748 -0.00196861)
(0.063821 -0.0270067 -0.00302126)
(0.0702352 -0.0413767 -0.00353964)
(0.0805646 -0.0565634 -0.0038295)
(0.0968817 -0.0713284 -0.00399001)
(0.122606 -0.0840245 -0.00408042)
(0.163503 -0.0869225 -0.00345046)
(0.226343 -0.0444493 -0.0010795)
(0.0969616 -0.0102786 0.00161227)
(0.101527 -0.00118858 0.00115509)
(0.101137 -0.00146134 0.0011895)
(0.100834 -0.000672301 0.00119341)
(0.100785 -0.000174716 0.0012253)
(0.100858 0.000176782 0.00128077)
(0.100838 0.000661073 0.00118456)
(0.101137 0.00143643 0.00117818)
(0.101506 0.00113402 0.00113605)
(0.0969938 0.00992223 0.0016052)
(0.0957477 -0.00592448 0.00230606)
(0.105354 -0.0019941 0.00193471)
(0.10453 -0.00255459 0.00191566)
(0.103634 -0.001364 0.00198915)
(0.103281 -0.000379548 0.00208456)
(0.103184 0.000420076 0.00217037)
(0.103593 0.00133851 0.00200942)
(0.104427 0.00250472 0.00193295)
(0.105191 0.00193052 0.00193452)
(0.0960576 0.00552042 0.00230424)
(0.0940254 -0.00195656 0.00214987)
(0.104208 -0.00184571 0.00184031)
(0.104613 -0.00237021 0.00175067)
(0.104026 -0.00149956 0.00182919)
(0.103624 -0.000489183 0.00189344)
(0.103543 0.00051499 0.00189085)
(0.103933 0.00149751 0.00184028)
(0.104397 0.00233384 0.00176043)
(0.103886 0.0018403 0.00185538)
(0.094352 0.00213461 0.00217055)
(0.0918292 -0.000644816 0.00174287)
(0.101786 -0.00139428 0.00142706)
(0.103533 -0.00191214 0.00122048)
(0.103632 -0.00137687 0.00121385)
(0.103443 -0.000500293 0.00122643)
(0.103401 0.000486172 0.00121419)
(0.103544 0.00136296 0.00121171)
(0.103372 0.0018824 0.0012148)
(0.101607 0.00139168 0.00141669)
(0.0920909 0.000815101 0.00174274)
(0.0901086 -0.000292917 0.00128704)
(0.100024 -0.000989928 0.00103751)
(0.102754 -0.00146723 0.0007613)
(0.103473 -0.00114241 0.000665189)
(0.103551 -0.000439563 0.000634237)
(0.103517 0.000400458 0.000629572)
(0.103396 0.00110744 0.000666799)
(0.102645 0.0014351 0.000760625)
(0.0999719 0.000990323 0.00101434)
(0.0903029 0.000406239 0.00126957)
(0.0888975 -0.000205566 0.00091326)
(0.0987907 -0.000714109 0.00074644)
(0.102189 -0.00107866 0.000488776)
(0.10344 -0.000879126 0.000353423)
(0.103793 -0.000351397 0.000298415)
(0.103767 0.00030189 0.000297124)
(0.103381 0.00083694 0.000360024)
(0.102122 0.00105345 0.000494752)
(0.0987972 0.000716385 0.000731588)
(0.0890655 0.000274533 0.000885571)
(0.088005 -0.000173556 0.000641503)
(0.0978888 -0.000519697 0.000526458)
(0.101765 -0.000767712 0.000317326)
(0.103446 -0.000645717 0.000182415)
(0.104038 -0.000267401 0.000121695)
(0.104023 0.000213264 0.000123595)
(0.103413 0.00060293 0.000192766)
(0.10175 0.00075036 0.000329472)
(0.0979495 0.000516575 0.000523923)
(0.0881525 0.000204302 0.000612273)
(0.0873348 -0.000142118 0.000446224)
(0.0972585 -0.000370507 0.000364912)
(0.101476 -0.00053875 0.00020522)
(0.103473 -0.000462842 8.94423e-05)
(0.104253 -0.000199733 3.29592e-05)
(0.104247 0.000140897 3.72356e-05)
(0.103467 0.000417265 0.000100606)
(0.101505 0.000519975 0.000219701)
(0.0973606 0.000366135 0.000370303)
(0.0874751 0.000152117 0.000423624)
(0.0868634 -0.000110092 0.000307549)
(0.0968396 -0.000260794 0.000251234)
(0.101288 -0.000376747 0.000132847)
(0.103507 -0.000329548 4.11054e-05)
(0.104423 -0.000151196 -6.01152e-06)
(0.104427 8.37997e-05 -1.29946e-06)
(0.103526 0.000276578 5.11491e-05)
(0.101352 0.000349647 0.000145309)
(0.0969654 0.000252827 0.000257842)
(0.0870008 0.000109943 0.000290229)
(0.0865408 -8.16378e-05 0.000212036)
(0.0965639 -0.000182555 0.000173227)
(0.101164 -0.000263986 8.54737e-05)
(0.103536 -0.000237779 1.67366e-05)
(0.104546 -0.000120841 -1.92685e-05)
(0.104559 3.75655e-05 -1.51722e-05)
(0.103577 0.000171644 2.4751e-05)
(0.101255 0.000224356 9.40165e-05)
(0.0967027 0.000165266 0.000174575)
(0.0866824 7.44567e-05 0.000192529)
(0.0863203 -5.75134e-05 0.000148359)
(0.0963744 -0.000126111 0.000123383)
(0.101081 -0.000188621 6.39346e-05)
(0.103555 -0.000179751 1.02293e-05)
(0.10463 -0.000107855 -1.36071e-05)
(0.104654 -4.41735e-06 -1.52332e-05)
(0.10362 9.33151e-05 1.35083e-05)
(0.101201 0.000132325 6.61861e-05)
(0.0965358 9.58748e-05 0.000117314)
(0.0864755 5.30005e-05 0.000121239)
(0.0861664 -3.89715e-05 0.000108722)
(0.0962437 -8.71383e-05 9.31438e-05)
(0.101023 -0.000140957 5.61184e-05)
(0.103569 -0.000149744 1.4764e-05)
(0.104692 -0.000110444 -1.20257e-06)
(0.104724 -4.59602e-05 -7.80823e-06)
(0.10366 2.99574e-05 1.16829e-05)
(0.10118 5.84232e-05 5.00702e-05)
(0.0964411 4.10768e-05 7.99575e-05)
(0.0863486 3.16337e-05 6.92937e-05)
(0.0860481 -3.25426e-05 8.8555e-05)
(0.0961415 -7.60597e-05 7.91237e-05)
(0.100978 -0.000127529 5.26893e-05)
(0.103575 -0.000147141 2.11085e-05)
(0.104737 -0.000129914 8.48303e-06)
(0.104777 -8.86844e-05 2.46184e-07)
(0.103699 -3.14525e-05 1.15719e-05)
(0.101184 -1.58888e-06 3.60561e-05)
(0.0963913 -5.38262e-07 4.99392e-05)
(0.0862843 8.43027e-06 2.98466e-05)
(0.0859443 -3.80328e-05 8.26926e-05)
(0.0960556 -8.85415e-05 7.51788e-05)
(0.100922 -0.000142536 5.05386e-05)
(0.103561 -0.000171599 2.51987e-05)
(0.104754 -0.000169066 1.31804e-05)
(0.104809 -0.000141899 4.67386e-06)
(0.103727 -9.92474e-05 9.01781e-06)
(0.101196 -6.08968e-05 2.11307e-05)
(0.0963838 -3.67672e-05 2.19191e-05)
(0.086264 -1.27492e-05 -3.2434e-06)
(0.085837 -6.30767e-05 8.96105e-05)
(0.0959598 -0.000121907 7.74663e-05)
(0.100851 -0.000185534 4.42073e-05)
(0.103528 -0.000225956 2.51762e-05)
(0.104754 -0.000231486 1.04722e-05)
(0.104834 -0.000212893 1.06877e-05)
(0.103763 -0.0001854 9.34766e-06)
(0.101225 -0.000134401 -1.46957e-07)
(0.0964043 -7.64516e-05 -7.86487e-06)
(0.0862822 -3.25109e-05 -3.77458e-05)
(0.0856973 -0.000158091 0.000116121)
(0.0958579 -0.000180184 8.96989e-05)
(0.100762 -0.000264681 4.82795e-05)
(0.103473 -0.000319842 2.51656e-05)
(0.10474 -0.000334083 7.52401e-06)
(0.104865 -0.000319628 1.48001e-05)
(0.103819 -0.000298091 8.4124e-06)
(0.101287 -0.000224806 -1.69855e-05)
(0.0964745 -0.000130582 -3.95075e-05)
(0.0863527 -4.7528e-05 -7.87851e-05)
(0.0854833 -0.000261137 0.000156447)
(0.0957291 -0.000243594 0.000102643)
(0.100654 -0.000365697 5.90904e-05)
(0.103399 -0.000460775 2.81599e-05)
(0.104711 -0.000501834 6.49457e-06)
(0.104898 -0.000493487 6.39615e-06)
(0.103897 -0.000444667 -5.34324e-06)
(0.101392 -0.000345521 -3.63027e-05)
(0.0966048 -0.00021212 -8.00117e-05)
(0.0864809 -8.78269e-05 -0.000133123)
(0.0851888 -0.000170771 0.000193974)
(0.0955407 -0.000323208 0.000133039)
(0.100508 -0.000502417 7.76815e-05)
(0.103294 -0.000656258 3.49427e-05)
(0.104666 -0.000747964 1.0746e-05)
(0.104918 -0.000754798 -1.03551e-05)
(0.103995 -0.000667999 -3.15117e-05)
(0.101563 -0.000518426 -6.62139e-05)
(0.0968086 -0.000327468 -0.000138882)
(0.0867009 -0.000147457 -0.00021106)
(0.0848912 -0.000112097 0.000256775)
(0.0952736 -0.00045058 0.000196351)
(0.100279 -0.000703592 0.000104957)
(0.103135 -0.000938545 4.89149e-05)
(0.104604 -0.00109391 1.45268e-05)
(0.104949 -0.00112703 -2.06172e-05)
(0.104135 -0.00101704 -5.5779e-05)
(0.101813 -0.000793614 -0.000110061)
(0.0971301 -0.000499428 -0.000211736)
(0.0870407 -0.000229305 -0.000323406)
(0.0844757 -0.000254347 0.00036648)
(0.0949012 -0.000642364 0.000268337)
(0.0999497 -0.00101375 0.000130212)
(0.102904 -0.00136112 5.7283e-05)
(0.10451 -0.00160039 6.50033e-06)
(0.105015 -0.0016652 -3.12725e-05)
(0.104368 -0.00154002 -8.26209e-05)
(0.102198 -0.00121576 -0.000176742)
(0.0976189 -0.000765732 -0.00032023)
(0.0875737 -0.000360256 -0.000485481)
(0.0838456 -0.000428311 0.000513151)
(0.0943836 -0.000932424 0.000340463)
(0.0994619 -0.0014735 0.000150389)
(0.102539 -0.0019852 4.47118e-05)
(0.104334 -0.00235026 -1.98606e-05)
(0.105088 -0.00246931 -6.65664e-05)
(0.104703 -0.0023094 -0.00013732)
(0.102764 -0.00184416 -0.000275428)
(0.0983691 -0.00116664 -0.000492196)
(0.0883836 -0.0005381 -0.000720974)
(0.0829546 -0.000635342 0.000698838)
(0.0936163 -0.00132925 0.0004243)
(0.0987415 -0.00211094 0.000164128)
(0.101971 -0.00287493 1.31003e-05)
(0.104027 -0.00343437 -6.87872e-05)
(0.105132 -0.00366063 -0.000131479)
(0.105137 -0.00345747 -0.000225863)
(0.103569 -0.00280638 -0.000415545)
(0.0994748 -0.00179725 -0.000738865)
(0.0896158 -0.000810305 -0.00106816)
(0.0817017 -0.000888427 0.000927963)
(0.0925251 -0.00184457 0.000532928)
(0.0977116 -0.00298132 0.00017378)
(0.101136 -0.00411177 -3.58338e-05)
(0.103547 -0.00498058 -0.000142078)
(0.105136 -0.00539581 -0.000222611)
(0.105717 -0.00518671 -0.000343934)
(0.104739 -0.00429648 -0.000599847)
(0.10113 -0.00281286 -0.00107057)
(0.0914928 -0.00126531 -0.00156818)
(0.079995 -0.001206 0.00121333)
(0.0910085 -0.00252374 0.000668301)
(0.0962518 -0.00415387 0.000166427)
(0.0999193 -0.00581337 -0.000118502)
(0.102791 -0.00715964 -0.000257091)
(0.105054 -0.0079063 -0.00035199)
(0.106481 -0.00777343 -0.000497725)
(0.106414 -0.0066033 -0.000834838)
(0.103622 -0.00443873 -0.00149956)
(0.0943904 -0.00202028 -0.00225303)
(0.0777215 -0.00159688 0.00156014)
(0.0889054 -0.00339152 0.000808563)
(0.0941836 -0.00569367 0.00011488)
(0.0981321 -0.00810519 -0.000272208)
(0.10158 -0.0101765 -0.000451086)
(0.104753 -0.0114941 -0.0005544)
(0.107396 -0.0116091 -0.000711039)
(0.108736 -0.0101759 -0.00112789)
(0.10733 -0.007074 -0.00203593)
(0.0988998 -0.00328234 -0.00314562)
(0.0747431 -0.00205519 0.00196178)
(0.0860358 -0.00445716 0.000926165)
(0.0912906 -0.00765264 -2.14708e-05)
(0.0955152 -0.0111076 -0.000548959)
(0.0996408 -0.0142547 -0.000782151)
(0.103982 -0.0165227 -0.000887787)
(0.108325 -0.0172267 -0.00102519)
(0.111809 -0.0156951 -0.00148494)
(0.112791 -0.0113999 -0.00265523)
(0.106067 -0.00543583 -0.0042247)
(0.0709513 -0.00257301 0.00240231)
(0.0821884 -0.00571138 0.0009867)
(0.0873111 -0.0100504 -0.000301839)
(0.0917354 -0.0149098 -0.00102352)
(0.0965738 -0.0195983 -0.00133976)
(0.102318 -0.0233908 -0.00144936)
(0.10891 -0.0253113 -0.00152553)
(0.115547 -0.0241833 -0.0019262)
(0.120579 -0.0185931 -0.00327484)
(0.1175 -0.00921137 -0.00533457)
(0.0662846 -0.00312422 0.00285355)
(0.0771675 -0.00711099 0.00093032)
(0.0819492 -0.0128664 -0.000803086)
(0.0863886 -0.0195429 -0.00179467)
(0.0918386 -0.02635 -0.0022476)
(0.0990865 -0.0324554 -0.00239453)
(0.108443 -0.0366095 -0.00239231)
(0.119519 -0.0370401 -0.00255424)
(0.131909 -0.0306208 -0.00372637)
(0.137566 -0.015886 -0.00614786)
(0.0607341 -0.00368561 0.00327759)
(0.0708006 -0.00862703 0.000686623)
(0.0749075 -0.0160692 -0.00161656)
(0.0790226 -0.0249944 -0.00296944)
(0.0847574 -0.0345548 -0.0036437)
(0.0932767 -0.0439427 -0.00392409)
(0.105538 -0.0518338 -0.00394478)
(0.122149 -0.0565753 -0.00377549)
(0.144168 -0.0505581 -0.00370867)
(0.169118 -0.0303425 -0.00569094)
(0.0543884 -0.00427918 0.00361385)
(0.0629888 -0.0102818 0.000157843)
(0.0659226 -0.0196688 -0.00283272)
(0.0692018 -0.0312475 -0.00462018)
(0.0746125 -0.044155 -0.00559)
(0.0836896 -0.0577971 -0.00611879)
(0.0983262 -0.0712009 -0.00634537)
(0.121301 -0.0837142 -0.00613247)
(0.164916 -0.0849039 -0.00449198)
(0.234733 -0.0416504 -0.00357877)
(0.0965889 -0.0102394 0.00151726)
(0.101136 -0.00119425 0.0014611)
(0.10081 -0.00143412 0.00142815)
(0.100517 -0.000690519 0.00146722)
(0.100452 -0.000184918 0.00149551)
(0.100462 0.000185516 0.0015043)
(0.100521 0.000685718 0.00147329)
(0.100812 0.00142752 0.00142975)
(0.101134 0.00116995 0.00143722)
(0.0966122 0.0101569 0.00152286)
(0.0953642 -0.00580247 0.00257515)
(0.104524 -0.00193431 0.002537)
(0.103738 -0.00253864 0.002525)
(0.102919 -0.00140606 0.00261254)
(0.102625 -0.000419087 0.00268414)
(0.102635 0.000445822 0.00271406)
(0.102935 0.00141923 0.00262321)
(0.10372 0.00252896 0.00252259)
(0.104424 0.00192755 0.00250287)
(0.0954571 0.00566604 0.00258764)
(0.0946823 -0.00219403 0.00267543)
(0.104593 -0.00176522 0.00236618)
(0.105152 -0.00228614 0.00227789)
(0.104752 -0.00147958 0.0023291)
(0.104461 -0.000489334 0.00237529)
(0.104453 0.00052349 0.00237762)
(0.104726 0.00149937 0.00231623)
(0.105045 0.00225755 0.00225254)
(0.104374 0.0017532 0.00233542)
(0.0948801 0.00207579 0.00267466)
(0.0940634 -0.000674957 0.00238061)
(0.103507 -0.00121405 0.00192684)
(0.105279 -0.00170308 0.0017063)
(0.105554 -0.00125752 0.00166871)
(0.105489 -0.000457789 0.00166752)
(0.105471 0.00045482 0.00165555)
(0.105497 0.00124611 0.00165141)
(0.10516 0.00166422 0.0016828)
(0.103349 0.00119024 0.00189874)
(0.0942709 0.000609211 0.00236473)
(0.0936739 -0.000183667 0.00193137)
(0.102734 -0.000741105 0.00149234)
(0.105209 -0.00118534 0.00119584)
(0.105997 -0.000954036 0.0010726)
(0.106183 -0.000374589 0.00102769)
(0.106158 0.000335523 0.00101812)
(0.105928 0.000912296 0.00106071)
(0.105095 0.00114012 0.00117739)
(0.102635 0.000724461 0.00145883)
(0.093872 0.000187166 0.00190342)
(0.0934707 -6.42276e-05 0.00146283)
(0.102178 -0.000472112 0.0011012)
(0.105057 -0.000797102 0.000807358)
(0.106231 -0.000674885 0.000645434)
(0.106639 -0.000281789 0.000575846)
(0.106615 0.000221655 0.000571928)
(0.106167 0.00061907 0.000641923)
(0.104967 0.000755377 0.000799155)
(0.102131 0.000458778 0.00107698)
(0.09364 9.78483e-05 0.00143273)
(0.0932884 -3.88195e-05 0.00105515)
(0.101763 -0.000310886 0.000777527)
(0.104896 -0.000526614 0.000530717)
(0.10634 -0.000461314 0.000371087)
(0.106913 -0.000204292 0.000296065)
(0.106895 0.000134542 0.000296035)
(0.106294 0.00040107 0.000373777)
(0.104847 0.000489517 0.000532349)
(0.101773 0.000301666 0.000772451)
(0.0934309 7.09554e-05 0.00103452)
(0.0931077 -3.18707e-05 0.000739382)
(0.101478 -0.00020657 0.000536483)
(0.104778 -0.00034674 0.000342679)
(0.106397 -0.0003121 0.000206222)
(0.107082 -0.000148103 0.000138623)
(0.107073 7.31422e-05 0.000140496)
(0.106375 0.000249075 0.000211993)
(0.104771 0.000309246 0.000349633)
(0.101536 0.000197867 0.000541703)
(0.0932399 5.14264e-05 0.000728112)
(0.0929635 -2.81782e-05 0.000510233)
(0.101294 -0.000140449 0.00036663)
(0.104698 -0.000231907 0.000220031)
(0.106429 -0.000214664 0.000112894)
(0.107187 -0.000112026 5.84727e-05)
(0.107186 3.00046e-05 6.08185e-05)
(0.106431 0.000145541 0.000119257)
(0.104728 0.000187926 0.000227948)
(0.101387 0.000124131 0.00037265)
(0.0930974 3.40771e-05 0.000501784)
(0.0928612 -2.43677e-05 0.000350881)
(0.101174 -9.90221e-05 0.000251819)
(0.104642 -0.000161239 0.000143851)
(0.106443 -0.000155399 6.35497e-05)
(0.107249 -9.30174e-05 2.26963e-05)
(0.107256 -2.90831e-06 2.43626e-05)
(0.106468 7.38105e-05 6.82479e-05)
(0.104704 0.000104976 0.000148941)
(0.101295 7.06599e-05 0.000253092)
(0.0930037 1.82253e-05 0.000338684)
(0.092787 -2.022e-05 0.000244789)
(0.101091 -7.26316e-05 0.000178946)
(0.1046 -0.000120177 0.000103456)
(0.106447 -0.000124092 4.29293e-05)
(0.107285 -8.90446e-05 1.42177e-05)
(0.107301 -3.28998e-05 1.24085e-05)
(0.106494 2.07623e-05 4.32261e-05)
(0.104694 4.50324e-05 0.000102651)
(0.101241 2.93513e-05 0.000173241)
(0.0929519 4.17451e-06 0.000226723)
(0.0927302 -1.82987e-05 0.000179046)
(0.10103 -5.98318e-05 0.000135888)
(0.104569 -0.000101827 8.47384e-05)
(0.106446 -0.000115159 3.76513e-05)
(0.10731 -9.93307e-05 1.83372e-05)
(0.107332 -6.52003e-05 1.21452e-05)
(0.106518 -2.48999e-05 3.22172e-05)
(0.104699 -3.38437e-06 7.59133e-05)
(0.101219 -5.26537e-06 0.000119922)
(0.0929313 -8.8132e-06 0.000150861)
(0.0926806 -2.23904e-05 0.000141105)
(0.10098 -6.3963e-05 0.000110179)
(0.104543 -0.000106193 7.18385e-05)
(0.106441 -0.000127916 3.60106e-05)
(0.107326 -0.000125475 2.06025e-05)
(0.107356 -0.000104627 1.37905e-05)
(0.106542 -7.25928e-05 2.51899e-05)
(0.104718 -4.81604e-05 5.24773e-05)
(0.10122 -3.53803e-05 7.72486e-05)
(0.0929353 -2.15294e-05 9.05803e-05)
(0.0926275 -3.41358e-05 0.000122732)
(0.100931 -8.46389e-05 9.64553e-05)
(0.104507 -0.000132729 6.31135e-05)
(0.106425 -0.000163914 3.50344e-05)
(0.10733 -0.000171601 2.0584e-05)
(0.107374 -0.000158607 1.43574e-05)
(0.106566 -0.000130433 1.88996e-05)
(0.104741 -9.79292e-05 3.03813e-05)
(0.10124 -6.66361e-05 3.88829e-05)
(0.0929576 -3.51699e-05 3.76122e-05)
(0.0925597 -5.61961e-05 0.000123262)
(0.100872 -0.000122579 9.29323e-05)
(0.10446 -0.000184059 5.66933e-05)
(0.106398 -0.000227407 3.30389e-05)
(0.107326 -0.000243945 1.77542e-05)
(0.10739 -0.000235758 1.60501e-05)
(0.106597 -0.000209251 1.47833e-05)
(0.104779 -0.000163129 7.45465e-06)
(0.101279 -0.000105604 1.30369e-06)
(0.0929992 -5.16995e-05 -1.30945e-05)
(0.0924627 -0.000101869 0.000139827)
(0.1008 -0.000180702 0.000103279)
(0.104393 -0.000265617 5.99186e-05)
(0.106354 -0.000327852 3.38626e-05)
(0.10731 -0.00035596 1.49276e-05)
(0.107411 -0.000351221 1.67438e-05)
(0.106643 -0.000320156 9.37354e-06)
(0.104836 -0.000253365 -1.44266e-05)
(0.101347 -0.000162163 -3.70689e-05)
(0.0930702 -7.42426e-05 -6.52287e-05)
(0.0923108 -0.000150545 0.000166869)
(0.100701 -0.000260329 0.000127346)
(0.104304 -0.000381245 7.63969e-05)
(0.106291 -0.000477003 3.9376e-05)
(0.107284 -0.000527235 1.47683e-05)
(0.107436 -0.000527499 5.50145e-06)
(0.106711 -0.000478925 -1.0431e-05)
(0.104929 -0.000381325 -3.94211e-05)
(0.10146 -0.000245651 -8.2678e-05)
(0.0931832 -0.000110368 -0.000129936)
(0.0920936 -0.000187996 0.000213118)
(0.100555 -0.000368524 0.000157907)
(0.104178 -0.000544804 9.51007e-05)
(0.106198 -0.000692167 4.74739e-05)
(0.107242 -0.000779603 1.62114e-05)
(0.107456 -0.000790372 -1.13712e-05)
(0.106795 -0.000716912 -4.02096e-05)
(0.105071 -0.000571784 -8.0455e-05)
(0.101631 -0.000369876 -0.000148791)
(0.093358 -0.000166517 -0.000224946)
(0.0918085 -0.000251388 0.00029445)
(0.100332 -0.000523527 0.000209218)
(0.103982 -0.000782428 0.000120972)
(0.106057 -0.00100526 5.99398e-05)
(0.107181 -0.00114684 1.84223e-05)
(0.107482 -0.00117624 -2.2532e-05)
(0.106915 -0.00107813 -6.75083e-05)
(0.105277 -0.000865025 -0.00013489)
(0.101891 -0.000561297 -0.000236512)
(0.0936224 -0.000253179 -0.000354116)
(0.0914148 -0.000363861 0.000410611)
(0.100019 -0.000751758 0.000281505)
(0.103697 -0.00113206 0.000148818)
(0.105846 -0.0014654 6.68024e-05)
(0.107085 -0.00168588 6.41816e-06)
(0.107523 -0.00174492 -4.20986e-05)
(0.107101 -0.00162008 -0.000106911)
(0.105589 -0.00131152 -0.000215524)
(0.102289 -0.000854137 -0.000363581)
(0.0940306 -0.000386544 -0.000538316)
(0.09085 -0.000531947 0.000546341)
(0.0995689 -0.00108256 0.000353413)
(0.103266 -0.00163977 0.000169765)
(0.105516 -0.00213566 5.4168e-05)
(0.106912 -0.00247595 -2.67255e-05)
(0.107561 -0.00258793 -8.9961e-05)
(0.10736 -0.00242826 -0.000180764)
(0.10604 -0.00198742 -0.000337609)
(0.102889 -0.00130395 -0.000561294)
(0.0946556 -0.000588553 -0.000812256)
(0.0900261 -0.000763025 0.000712503)
(0.098895 -0.00154446 0.00043923)
(0.102622 -0.00235598 0.000191888)
(0.104998 -0.00309201 2.69557e-05)
(0.106616 -0.00361829 -7.67255e-05)
(0.107565 -0.00382841 -0.000164147)
(0.107696 -0.00363686 -0.000286275)