/*--------------------------------*- C++ -*----------------------------------*\
| =========                 |                                                 |
| \\      /  F ield         | OpenFOAM: The Open Source CFD Toolbox           |
|  \\    /   O peration     | Version:  2112                                  |
|   \\  /    A nd           | Website:  www.openfoam.com                      |
|    \\/     M anipulation  |                                                 |
\*---------------------------------------------------------------------------*/
FoamFile
{
    version     2.0;
    format      ascii;
    arch        "LSB;label=32;scalar=64";
    class       volScalarField;
    location    "2";
    object      T;
}
// * * * * * * * * * * * * * * * * * * * * * * * * * * * * * * * * * * * * * //

dimensions      [0 0 0 1 0 0 0];

internalField   nonuniform List<scalar> 
1000
(
0.0185311
0.0185334
0.018538
0.0185449
0.0185541
0.0185657
0.0185795
0.0185956
0.018614
0.0186347
0.0186577
0.018683
0.0187106
0.0187406
0.0187728
0.0188073
0.0188442
0.0188833
0.0189248
0.0189686
0.0190146
0.019063
0.0191137
0.0191667
0.019222
0.0192797
0.0193396
0.0194019
0.0194665
0.0195334
0.0196026
0.0196741
0.019748
0.0198242
0.0199027
0.0199835
0.0200667
0.0201522
0.02024
0.0203302
0.0204226
0.0205175
0.0206146
0.0207141
0.020816
0.0209201
0.0210267
0.0211355
0.0212467
0.0213603
0.0214762
0.0215945
0.0217151
0.021838
0.0219634
0.022091
0.0222211
0.0223535
0.0224883
0.0226254
0.0227649
0.0229068
0.0230511
0.0231977
0.0233467
0.0234981
0.0236518
0.023808
0.0239665
0.0241274
0.0242907
0.0244564
0.0246245
0.024795
0.0249679
0.0251431
0.0253208
0.0255009
0.0256834
0.0258683
0.0260556
0.0262453
0.0264374
0.0266319
0.0268289
0.0270282
0.02723
0.0274342
0.0276408
0.0278499
0.0280614
0.0282753
0.0284916
0.0287104
0.0289316
0.0291552
0.0293813
0.0296098
0.0298407
0.0300741
0.03031
0.0305482
0.030789
0.0310321
0.0312777
0.0315258
0.0317763
0.0320292
0.0322847
0.0325425
0.0328028
0.0330656
0.0333308
0.0335985
0.0338686
0.0341412
0.0344163
0.0346938
0.0349737
0.0352561
0.035541
0.0358283
0.0361181
0.0364104
0.0367051
0.0370023
0.0373019
0.037604
0.0379085
0.0382155
0.0385249
0.0388368
0.0391512
0.039468
0.0397873
0.040109
0.0404332
0.0407598
0.0410888
0.0414203
0.0417543
0.0420907
0.0424295
0.0427708
0.0431145
0.0434606
0.0438092
0.0441602
0.0445137
0.0448695
0.0452278
0.0455885
0.0459516
0.0463171
0.0466851
0.0470554
0.0474281
0.0478033
0.0481808
0.0485607
0.0489431
0.0493278
0.0497148
0.0501043
0.0504961
0.0508903
0.0512868
0.0516857
0.0520869
0.0524905
0.0528964
0.0533047
0.0537153
0.0541282
0.0545434
0.0549609
0.0553807
0.0558029
0.0562273
0.0566539
0.0570829
0.0575141
0.0579476
0.0583833
0.0588213
0.0592615
0.0597039
0.0601486
0.0605955
0.0610445
0.0614958
0.0619492
0.0624048
0.0628626
0.0633225
0.0637846
0.0642488
0.0647151
0.0651836
0.0656541
0.0661268
0.0666015
0.0670783
0.0675571
0.068038
0.0685209
0.0690059
0.0694929
0.0699818
0.0704728
0.0709657
0.0714606
0.0719574
0.0724562
0.0729569
0.0734595
0.073964
0.0744703
0.0749786
0.0754886
0.0760006
0.0765143
0.0770298
0.0775472
0.0780663
0.0785871
0.0791098
0.0796341
0.0801601
0.0806879
0.0812173
0.0817483
0.0822811
0.0828154
0.0833514
0.0838889
0.084428
0.0849687
0.0855109
0.0860546
0.0865998
0.0871465
0.0876946
0.0882442
0.0887952
0.0893476
0.0899014
0.0904565
0.091013
0.0915708
0.0921299
0.0926903
0.0932519
0.0938148
0.0943788
0.0949441
0.0955105
0.0960781
0.0966468
0.0972166
0.0977875
0.0983594
0.0989324
0.0995063
0.100081
0.100657
0.101234
0.101812
0.10239
0.10297
0.10355
0.104131
0.104713
0.105296
0.105879
0.106464
0.107048
0.107634
0.10822
0.108807
0.109394
0.109982
0.11057
0.111159
0.111748
0.112338
0.112928
0.113519
0.11411
0.114701
0.115293
0.115885
0.116477
0.117069
0.117662
0.118254
0.118847
0.11944
0.120033
0.120626
0.121219
0.121812
0.122405
0.122998
0.12359
0.124183
0.124776
0.125368
0.12596
0.126551
0.127143
0.127734
0.128325
0.128915
0.129505
0.130095
0.130684
0.131272
0.13186
0.132447
0.133034
0.13362
0.134206
0.13479
0.135374
0.135958
0.13654
0.137122
0.137702
0.138282
0.138861
0.139439
0.140016
0.140592
0.141166
0.14174
0.142312
0.142884
0.143454
0.144023
0.14459
0.145157
0.145722
0.146285
0.146848
0.147408
0.147968
0.148525
0.149082
0.149636
0.15019
0.150741
0.151291
0.151839
0.152385
0.15293
0.153472
0.154013
0.154552
0.155089
0.155624
0.156158
0.156689
0.157218
0.157745
0.15827
0.158793
0.159313
0.159832
0.160348
0.160862
0.161373
0.161883
0.162389
0.162894
0.163396
0.163895
0.164392
0.164887
0.165379
0.165868
0.166355
0.166839
0.16732
0.167799
0.168275
0.168748
0.169218
0.169685
0.17015
0.170611
0.17107
0.171525
0.171978
0.172428
0.172874
0.173317
0.173758
0.174195
0.174629
0.175059
0.175487
0.175911
0.176332
0.176749
0.177163
0.177574
0.177981
0.178385
0.178786
0.179182
0.179576
0.179965
0.180352
0.180734
0.181113
0.181488
0.18186
0.182228
0.182592
0.182952
0.183308
0.183661
0.18401
0.184355
0.184696
0.185033
0.185366
0.185695
0.186021
0.186342
0.186659
0.186972
0.187281
0.187586
0.187887
0.188183
0.188476
0.188764
0.189048
0.189328
0.189603
0.189874
0.190141
0.190404
0.190662
0.190916
0.191166
0.191411
0.191652
0.191888
0.19212
0.192347
0.19257
0.192789
0.193003
0.193212
0.193417
0.193617
0.193813
0.194004
0.194191
0.194373
0.19455
0.194723
0.194891
0.195055
0.195213
0.195367
0.195517
0.195661
0.195801
0.195937
0.196067
0.196193
0.196314
0.19643
0.196541
0.196648
0.19675
0.196847
0.196939
0.197026
0.197109
0.197187
0.19726
0.197328
0.197391
0.19745
0.197503
0.197552
0.197596
0.197635
0.197669
0.197698
0.197722
0.197742
0.197756
0.197766
0.197771
0.197771
0.197766
0.197756
0.197742
0.197722
0.197698
0.197669
0.197635
0.197596
0.197552
0.197503
0.19745
0.197391
0.197328
0.19726
0.197187
0.197109
0.197026
0.196939
0.196847
0.19675
0.196648
0.196541
0.19643
0.196314
0.196193
0.196067
0.195937
0.195801
0.195661
0.195517
0.195367
0.195213
0.195055
0.194891
0.194723
0.19455
0.194373
0.194191
0.194004
0.193813
0.193617
0.193417
0.193212
0.193003
0.192789
0.19257
0.192347
0.19212
0.191888
0.191652
0.191411
0.191166
0.190916
0.190662
0.190404
0.190141
0.189874
0.189603
0.189328
0.189048
0.188764
0.188476
0.188183
0.187887
0.187586
0.187281
0.186972
0.186659
0.186342
0.186021
0.185695
0.185366
0.185033
0.184696
0.184355
0.18401
0.183661
0.183308
0.182952
0.182592
0.182228
0.18186
0.181488
0.181113
0.180734
0.180352
0.179965
0.179576
0.179182
0.178786
0.178385
0.177981
0.177574
0.177163
0.176749
0.176332
0.175911
0.175487
0.175059
0.174629
0.174195
0.173758
0.173317
0.172874
0.172428
0.171978
0.171525
0.17107
0.170611
0.17015
0.169685
0.169218
0.168748
0.168275
0.167799
0.16732
0.166839
0.166355
0.165868
0.165379
0.164887
0.164392
0.163895
0.163396
0.162894
0.162389
0.161883
0.161373
0.160862
0.160348
0.159832
0.159313
0.158793
0.15827
0.157745
0.157218
0.156689
0.156158
0.155624
0.155089
0.154552
0.154013
0.153472
0.15293
0.152385
0.151839
0.151291
0.150741
0.15019
0.149636
0.149082
0.148525
0.147968
0.147408
0.146848
0.146285
0.145722
0.145157
0.14459
0.144023
0.143454
0.142884
0.142312
0.14174
0.141166
0.140592
0.140016
0.139439
0.138861
0.138282
0.137702
0.137122
0.13654
0.135958
0.135374
0.13479
0.134206
0.13362
0.133034
0.132447
0.13186
0.131272
0.130684
0.130095
0.129505
0.128915
0.128325
0.127734
0.127143
0.126551
0.12596
0.125368
0.124776
0.124183
0.12359
0.122998
0.122405
0.121812
0.121219
0.120626
0.120033
0.11944
0.118847
0.118254
0.117662
0.117069
0.116477
0.115885
0.115293
0.114701
0.11411
0.113519
0.112928
0.112338
0.111748
0.111159
0.11057
0.109982
0.109394
0.108807
0.10822
0.107634
0.107048
0.106464
0.105879
0.105296
0.104713
0.104131
0.10355
0.10297
0.10239
0.101812
0.101234
0.100657
0.100081
0.0995063
0.0989324
0.0983594
0.0977875
0.0972166
0.0966468
0.0960781
0.0955105
0.0949441
0.0943788
0.0938148
0.0932519
0.0926903
0.0921299
0.0915708
0.091013
0.0904565
0.0899014
0.0893476
0.0887952
0.0882442
0.0876946
0.0871465
0.0865998
0.0860546
0.0855109
0.0849687
0.084428
0.0838889
0.0833514
0.0828154
0.0822811
0.0817483
0.0812173
0.0806879
0.0801601
0.0796341
0.0791098
0.0785871
0.0780663
0.0775472
0.0770298
0.0765143
0.0760006
0.0754886
0.0749786
0.0744703
0.073964
0.0734595
0.0729569
0.0724562
0.0719574
0.0714606
0.0709657
0.0704728
0.0699818
0.0694929
0.0690059
0.0685209
0.068038
0.0675571
0.0670783
0.0666015
0.0661268
0.0656541
0.0651836
0.0647151
0.0642488
0.0637846
0.0633225
0.0628626
0.0624048
0.0619492
0.0614958
0.0610445
0.0605955
0.0601486
0.0597039
0.0592615
0.0588213
0.0583833
0.0579476
0.0575141
0.0570829
0.0566539
0.0562273
0.0558029
0.0553807
0.0549609
0.0545434
0.0541282
0.0537153
0.0533047
0.0528964
0.0524905
0.0520869
0.0516857
0.0512868
0.0508903
0.0504961
0.0501043
0.0497148
0.0493278
0.0489431
0.0485607
0.0481808
0.0478033
0.0474281
0.0470554
0.0466851
0.0463171
0.0459516
0.0455885
0.0452278
0.0448695
0.0445137
0.0441602
0.0438092
0.0434606
0.0431145
0.0427708
0.0424295
0.0420907
0.0417543
0.0414203
0.0410888
0.0407598
0.0404332
0.040109
0.0397873
0.039468
0.0391512
0.0388368
0.0385249
0.0382155
0.0379085
0.037604
0.0373019
0.0370023
0.0367051
0.0364104
0.0361181
0.0358283
0.035541
0.0352561
0.0349737
0.0346938
0.0344163
0.0341412
0.0338686
0.0335985
0.0333308
0.0330656
0.0328028
0.0325425
0.0322847
0.0320292
0.0317763
0.0315258
0.0312777
0.0310321
0.030789
0.0305482
0.03031
0.0300741
0.0298407
0.0296098
0.0293813
0.0291552
0.0289316
0.0287104
0.0284916
0.0282753
0.0280614
0.0278499
0.0276408
0.0274342
0.02723
0.0270282
0.0268289
0.0266319
0.0264374
0.0262453
0.0260556
0.0258683
0.0256834
0.0255009
0.0253208
0.0251431
0.0249679
0.024795
0.0246245
0.0244564
0.0242907
0.0241274
0.0239665
0.023808
0.0236518
0.0234981
0.0233467
0.0231977
0.0230511
0.0229068
0.0227649
0.0226254
0.0224883
0.0223535
0.0222211
0.022091
0.0219634
0.021838
0.0217151
0.0215945
0.0214762
0.0213603
0.0212467
0.0211355
0.0210267
0.0209201
0.020816
0.0207141
0.0206146
0.0205175
0.0204226
0.0203302
0.02024
0.0201522
0.0200667
0.0199835
0.0199027
0.0198242
0.019748
0.0196741
0.0196026
0.0195334
0.0194665
0.0194019
0.0193396
0.0192797
0.019222
0.0191667
0.0191137
0.019063
0.0190146
0.0189686
0.0189248
0.0188833
0.0188442
0.0188073
0.0187728
0.0187406
0.0187106
0.018683
0.0186577
0.0186347
0.018614
0.0185956
0.0185795
0.0185657
0.0185541
0.0185449
0.018538
0.0185334
0.0185311
)
;

boundaryField
{
    sides
    {
        type            zeroGradient;
    }
    empty
    {
        type            empty;
    }
}


// ************************************************************************* //
