/*--------------------------------*- C++ -*----------------------------------*\
| =========                 |                                                 |
| \\      /  F ield         | OpenFOAM: The Open Source CFD Toolbox           |
|  \\    /   O peration     | Version:  2112                                  |
|   \\  /    A nd           | Website:  www.openfoam.com                      |
|    \\/     M anipulation  |                                                 |
\*---------------------------------------------------------------------------*/
FoamFile
{
    version     2.0;
    format      ascii;
    arch        "LSB;label=32;scalar=64";
    class       volScalarField;
    location    "22";
    object      p;
}
// * * * * * * * * * * * * * * * * * * * * * * * * * * * * * * * * * * * * * //

dimensions      [0 2 -2 0 0 0 0];

internalField   nonuniform List<scalar> 
400
(
8.9598554e-07
-0.00067185695
-0.0013843093
-0.0019416477
-0.002218924
-0.0021554081
-0.0017266952
-0.0009251011
0.00023651814
0.0017084974
0.0033883695
0.0051132701
0.0066745459
0.0078501723
0.0084594718
0.0084247866
0.0078145215
0.006845661
0.0058624528
0.0053001002
0.0006588382
-3.950594e-05
-0.00056862846
-0.00093958081
-0.0011098042
-0.0010388483
-0.00070470591
-9.4452838e-05
0.00079019381
0.001917279
0.0032106748
0.0045557909
0.0057830492
0.0067173481
0.0072155269
0.0072156479
0.0067710908
0.0060539181
0.0053116839
0.0047396464
0.0014246883
0.00044165702
-0.00011558041
-0.00045221068
-0.00061376179
-0.00058374915
-0.00034550275
0.00012083341
0.00082955735
0.0017710062
0.0028953901
0.0040992628
0.0052293411
0.0061120814
0.0065949865
0.0065987939
0.0061568801
0.0054226652
0.0045949093
0.0037494028
0.0020151706
0.00068268136
1.7779341e-05
-0.00035782871
-0.00057050835
-0.0006255002
-0.00050900325
-0.00018953207
0.00036961592
0.0011855082
0.0022310366
0.0034185489
0.0045924887
0.0055580688
0.0061246897
0.0061677055
0.0056847752
0.0048182161
0.0037484689
0.0024747848
0.0021682339
0.00049710744
-0.0002952533
-0.00074768219
-0.0010572087
-0.0012442012
-0.0012916528
-0.0011501797
-0.00075390513
-5.1940212e-05
0.00095818917
0.0022114444
0.0035458662
0.0047338188
0.0055230012
0.0057110459
0.0052304551
0.0042027833
0.0028073759
0.00098516814
0.0016549289
-0.00031348295
-0.0012377738
-0.0017982671
-0.0022516013
-0.0026268157
-0.0028974915
-0.0029899178
-0.0028013426
-0.0022364625
-0.0012498733
0.00013211229
0.0017458556
0.0033283076
0.0045428326
0.0050669635
0.0047186824
0.0035673948
0.0017908043
-0.00072469013
0.00028801158
-0.0019185526
-0.0029719614
-0.0036703222
-0.0043192042
-0.0049520672
-0.0055289405
-0.0059467277
-0.0060577391
-0.0057060903
-0.0047744109
-0.0032573956
-0.001265226
0.0009084379
0.0028243647
0.0039880585
0.0040263109
0.0028889298
0.00071661585
-0.0026792375
-0.0020754049
-0.0044501377
-0.0056257292
-0.0064912214
-0.0073917817
-0.008364576
-0.009355678
-0.010230481
-0.010789618
-0.010803455
-0.010061959
-0.008460362
-0.0060393873
-0.00308187
-0.00012499675
0.002113901
0.0029650855
0.0021368366
-0.00036476625
-0.0048713123
-0.0055230884
-0.0079910114
-0.0092767978
-0.010332637
-0.011536803
-0.012934166
-0.014461394
-0.015954937
-0.017161018
-0.017764542
-0.017436569
-0.015917964
-0.01312147
-0.0092503083
-0.0048976058
-0.001028663
0.0012707243
0.0012790596
-0.0013326571
-0.0072003454
-0.010075768
-0.012563937
-0.013935488
-0.015182796
-0.016717124
-0.018601305
-0.020772811
-0.023047304
-0.025120153
-0.026584761
-0.02696773
-0.025811321
-0.02284408
-0.018072894
-0.012049594
-0.0059505193
-0.0013693624
0.00030193304
-0.0019458724
-0.0093808676
-0.015683775
-0.018131196
-0.019536324
-0.020925545
-0.022756427
-0.025128497
-0.02799555
-0.031164869
-0.034289862
-0.03687518
-0.038292469
-0.037842565
-0.035064172
-0.029599834
-0.021820925
-0.012984076
-0.0051835461
-0.00071437616
-0.0017628499
-0.010790889
-0.022242326
-0.024611769
-0.025944311
-0.027333645
-0.029322801
-0.032077802
-0.035587433
-0.03966306
-0.04392561
-0.047799585
-0.050528442
-0.051234742
-0.048955161
-0.04314188
-0.033767414
-0.021924815
-0.010035429
-0.0014140548
-8.5169625e-06
-0.010224269
-0.029639895
-0.031922592
-0.032977432
-0.034078523
-0.035938116
-0.038830062
-0.042794083
-0.047649969
-0.052988849
-0.058161857
-0.062282501
-0.0642638
-0.062873466
-0.057110553
-0.046475175
-0.031647589
-0.015036431
-0.00086301957
0.0046480884
-0.0055202312
-0.037864651
-0.040047191
-0.040438818
-0.04075117
-0.042013648
-0.04465161
-0.04875667
-0.054142459
-0.060354366
-0.066663644
-0.072058984
-0.075266611
-0.074809749
-0.069267725
-0.057626838
-0.039960103
-0.01824662
0.0027903445
0.014446425
0.0069087806
-0.047229224
-0.049133031
-0.048139275
-0.046880992
-0.046904146
-0.048797272
-0.052666805
-0.058274461
-0.06507449
-0.072230354
-0.078594135
-0.082710735
-0.0828787
-0.077307972
-0.064522606
-0.043933689
-0.016746766
0.012504144
0.032939959
0.03241009
-0.058895453
-0.059638575
-0.05588263
-0.05193981
-0.049971054
-0.050628542
-0.053927231
-0.059493854
-0.066610316
-0.074283727
-0.081189615
-0.085677909
-0.085830393
-0.079520898
-0.064874906
-0.040688151
-0.0072398506
0.032140431
0.064982507
0.07775021
-0.076225239
-0.072612501
-0.063514946
-0.055434193
-0.050723851
-0.049780372
-0.052311026
-0.057662961
-0.06489035
-0.072773474
-0.079777887
-0.084035331
-0.083390336
-0.075347761
-0.057601589
-0.028374149
0.012934261
0.065397415
0.11555245
0.15150715
-0.10809103
-0.089555237
-0.071232726
-0.057231902
-0.049071033
-0.046329075
-0.048076039
-0.053201285
-0.060433226
-0.068294433
-0.075025976
-0.078525556
-0.076387745
-0.065808533
-0.043864457
-0.0078175252
0.04439453
0.112999
0.18838128
0.27186161
-0.17684434
-0.10828864
-0.076201509
-0.054650262
-0.042991372
-0.038996959
-0.04056935
-0.045926787
-0.053440202
-0.06143698
-0.068026212
-0.070961237
-0.067549907
-0.054738711
-0.029147803
0.013564514
0.078147803
0.17006517
0.28949627
0.47421904
-0.37208232
-0.12470737
-0.05497206
-0.031961562
-0.022062594
-0.020299501
-0.024358346
-0.031956791
-0.041260267
-0.050639541
-0.058315546
-0.062186142
-0.059781301
-0.048055666
-0.022657494
0.021475146
0.092819589
0.2101536
0.40288924
0.77641011
)
;

boundaryField
{
    movingWall
    {
        type            zeroGradient;
    }
    fixedWalls
    {
        type            zeroGradient;
    }
    frontAndBack
    {
        type            empty;
    }
}


// ************************************************************************* //
