/*--------------------------------*- C++ -*----------------------------------*\
| =========                 |                                                 |
| \\      /  F ield         | OpenFOAM: The Open Source CFD Toolbox           |
|  \\    /   O peration     | Version:  2112                                  |
|   \\  /    A nd           | Website:  www.openfoam.com                      |
|    \\/     M anipulation  |                                                 |
\*---------------------------------------------------------------------------*/
FoamFile
{
    version     2.0;
    format      ascii;
    arch        "LSB;label=32;scalar=64";
    class       surfaceScalarField;
    location    "22";
    object      phi_0;
}
// * * * * * * * * * * * * * * * * * * * * * * * * * * * * * * * * * * * * * //

dimensions      [0 3 -1 0 0 0 0];

oriented        oriented;

internalField   nonuniform List<scalar> 
760
(
1.2697566e-05
-1.2707985e-05
-2.8725852e-05
4.1423424e-05
-0.00012229245
9.3566602e-05
-0.00025039515
0.00012810271
-0.00039607269
0.00014567755
-0.00054538774
0.00014931507
-0.00068626734
0.0001408796
-0.0008068872
0.00012061987
-0.00089494707
8.8059887e-05
-0.00093838501
4.3437957e-05
-0.00092726909
-1.11159e-05
-0.00085685701
-7.0412055e-05
-0.00073042519
-0.00012643179
-0.00056133887
-0.0001690863
-0.0003727589
-0.00018857994
-0.00019447391
-0.00017828496
-5.6522701e-05
-0.0001379512
1.9613474e-05
-7.6136168e-05
3.041077e-05
-1.079729e-05
3.0410777e-05
-4.3184809e-05
3.0476828e-05
-0.00020456656
0.00020280519
-0.00046832179
0.00035732185
-0.00080070105
0.00046048199
-0.0011673396
0.00051231608
-0.0015364344
0.00051840996
-0.001878209
0.00048265414
-0.0021636606
0.00040607158
-0.002364521
0.00028892027
-0.0024553276
0.00013424458
-0.0024181218
-4.832163e-05
-0.0022453399
-0.00024319386
-0.0019475416
-0.00042423011
-0.0015544582
-0.00056216964
-0.0011143144
-0.00062872376
-0.00068747141
-0.00060512791
-0.00033452484
-0.00049089774
-0.00010089721
-0.00030976378
-1.5523908e-06
-0.00011014209
2.8858391e-05
-0.00011002718
0.00014050402
-0.00040302929
0.00049580732
-0.00083138199
0.00078567458
-0.0013456063
0.00097470634
-0.0018985825
0.0010652923
-0.0024465596
0.001066387
-0.0029480066
0.00098410124
-0.0033625894
0.00082065432
-0.0036518591
0.00057819007
-0.0037822856
0.00026467109
-0.0037297927
-0.00010081454
-0.0034857838
-0.0004872027
-0.0030632497
-0.00084676423
-0.0024999738
-0.0011254455
-0.0018582206
-0.001270477
-0.001218136
-0.0012452125
-0.00066373301
-0.0010453007
-0.00026308877
-0.000710408
-4.7956479e-05
-0.00032527436
-1.9098074e-05
-0.0001734384
0.00031394243
-0.00059328765
0.00091565659
-0.0011776856
0.0013700726
-0.0018583547
0.0016553755
-0.0025768875
0.0017838251
-0.0032812809
0.0017707804
-0.003922761
0.0016255813
-0.004454099
0.0013519924
-0.0048302193
0.00095431039
-0.005011192
0.00044564384
-0.0049672118
-0.00014479473
-0.0046843925
-0.00077002202
-0.0041723136
-0.0013588432
-0.0034690977
-0.0018286613
-0.0026439881
-0.0020955865
-0.0017931873
-0.0020960133
-0.0010258434
-0.0018126445
-0.00044021234
-0.0012960391
-9.6723497e-05
-0.00066876317
-0.00011582155
-0.00022979342
0.00054373586
-0.00076506779
0.001450931
-0.0014914722
0.002096477
-0.0023225274
0.0024864307
-0.0031901135
0.0026514112
-0.0040367889
0.0026174558
-0.0048099975
0.00239879
-0.0054589212
0.0020009161
-0.0059341355
0.0014295247
-0.006189766
0.00070127436
-0.0061883487
-0.00014621197
-0.0059055239
-0.0010528468
-0.0053403675
-0.0019239995
-0.0045230758
-0.002645953
-0.0035229464
-0.0030957159
-0.0024497848
-0.0031691749
-0.0014425282
-0.0028199011
-0.00064122659
-0.0020973407
-0.00014883595
-0.0011611538
-0.00026465748
-0.00027729513
0.00082103101
-0.00091153858
0.0020851745
-0.0017607146
0.002945653
-0.002722785
0.0034485012
-0.0037221798
0.003650806
-0.0046986561
0.0035939322
-0.0055988467
0.0032989806
-0.0063711422
0.0027732116
-0.0069636771
0.0020220596
-0.0073247845
0.0010623817
-0.0074074088
-6.3587589e-05
-0.0071716446
-0.0012886111
-0.0065988406
-0.0024968035
-0.0057016374
-0.0035431562
-0.0045399848
-0.0042573685
-0.0032318178
-0.0044773419
-0.001949006
-0.0041027129
-0.00088728099
-0.0031590656
-0.00021159265
-0.0018368421
-0.00047625012
-0.0003141124
0.0011351434
-0.0010263279
0.00279739
-0.0019734873
0.0038928124
-0.0030417237
0.0045167376
-0.0041506767
0.004759759
-0.0052398956
0.004683151
-0.0062580184
0.0043171034
-0.0071554661
0.0036706593
-0.0078803053
0.0027468987
-0.0083767797
0.0015588562
-0.008585328
0.00014496074
-0.0084512614
-0.0014226776
-0.0079294459
-0.0030186191
-0.0070049168
-0.0044676852
-0.0057150052
-0.00554728
-0.0041735526
-0.0060187945
-0.0025818265
-0.0056944389
-0.0012040961
-0.0045367961
-0.00029450184
-0.0027464363
-0.00077075195
-0.00033824469
0.0014733881
-0.0011031572
0.0035623026
-0.002117612
0.0049072672
-0.0032598568
0.0056589824
-0.004447364
0.0059472663
-0.0056219101
0.0058576971
-0.00673689
0.0054320834
-0.0077479031
0.0046816724
-0.0086063079
0.0036053036
-0.0092551834
0.0022077318
-0.0096269483
0.00051672562
-0.0096491425
-0.0014004833
-0.009248922
-0.0034188396
-0.0083738914
-0.0053427159
-0.0070220294
-0.006899142
-0.005281781
-0.0077590428
-0.0033676455
-0.0076085744
-0.0016173528
-0.0062870888
-0.00040826606
-0.003955523
-0.001179018
-0.00034815303
0.0018215412
-0.0011372051
0.0043513546
-0.00218277
0.0059528321
-0.0033585924
0.0068348049
-0.0045822067
0.0071708806
-0.0057997795
0.0070752699
-0.0069721469
0.0066044509
-0.008063617
0.0057731425
-0.0090333891
0.0045750757
-0.0098289409
0.0030032837
-0.010381223
0.0010690073
-0.010604476
-0.0011772303
-0.01040073
-0.0036225851
-0.0096748515
-0.0060685943
-0.0083686362
-0.0082053572
-0.0065156542
-0.0096120248
-0.0043098629
-0.0098143657
-0.0021483117
-0.0084486399
-0.0005649219
-0.0055389128
-0.0017439399
-0.00034393298
0.0021654742
-0.0011278536
0.0051352753
-0.0021646983
0.0069896768
-0.0033258848
0.0079959914
-0.0045307801
0.008375776
-0.005731918
0.0082764078
-0.0069001925
0.0077727255
-0.0080123514
0.0068853014
-0.009040796
0.0056035203
-0.0099449373
0.0039074251
-0.010663366
0.001787436
-0.011106717
-0.00073387914
-0.011163392
-0.0035659104
-0.010697099
-0.0065348867
-0.0095825714
-0.009319885
-0.007766752
-0.011427844
-0.0053714816
-0.012209636
-0.0028071671
-0.011012954
-0.00077836516
-0.0075677147
-0.002522305
-0.00032890776
0.0024943819
-0.0010824203
0.0058887879
-0.0020707743
0.0079780309
-0.0031636082
0.0090888253
-0.0042838957
0.0094960636
-0.0053928466
0.0093853587
-0.006474134
0.008854013
-0.0075205429
0.0079317104
-0.0085229146
0.0066058921
-0.009460343
0.0048448536
-0.010291332
0.0026184246
-0.010933225
-9.1985243e-05
-0.011283209
-0.003215927
-0.011173627
-0.0066444687
-0.010415703
-0.010077808
-0.0088467228
-0.012996825
-0.0064557404
-0.014600618
-0.0035815171
-0.013887178
-0.001064219
-0.010085013
-0.0035865241
-0.00031178583
0.0028061678
-0.0010206833
0.0065976854
-0.0019261071
0.0088834546
-0.0028949585
0.010057677
-0.0038568948
0.010458
-0.0047855783
0.010314042
-0.0056807844
0.0097492192
-0.0065544771
0.0088054032
-0.0074199139
0.0074713289
-0.008281852
0.0057067917
-0.0091251832
0.0034617558
-0.0099086674
0.00069149898
-0.010527281
-0.0025973137
-0.010827032
-0.0063447173
-0.010573639
-0.010331202
-0.009493211
-0.014077252
-0.0073911351
-0.016702694
-0.0044189088
-0.016859404
-0.0014372084
-0.013066713
-0.0050237324
-0.00031004624
0.003116214
-0.0009803744
0.0072680136
-0.0017790653
0.0096821455
-0.0025693892
0.010848001
-0.0032946252
0.011183236
-0.003947932
0.010967349
-0.0045500109
0.010351298
-0.0051348309
0.0093902232
-0.0057399692
0.0080764673
-0.006398576
0.0063653985
-0.0071301793
0.0041933592
-0.00793031
0.0014916297
-0.0087388527
-0.0017887709
-0.009430399
-0.0056531709
-0.0097686118
-0.0099929889
-0.0094003629
-0.014445501
-0.0079305876
-0.01817247
-0.0052061616
-0.01958383
-0.0019026103
-0.016370264
-0.0069263427
-0.00035604513
0.0034722592
-0.0010240113
0.0079359798
-0.001704255
0.010362389
-0.0022608336
0.011404579
-0.0026657661
0.011588168
-0.0029440621
0.011245645
-0.0031443079
0.010551544
-0.0033249307
0.009570846
-0.0035472593
0.008298796
-0.0038711137
0.0066892529
-0.0043492385
0.0046714841
-0.0050184458
0.002160837
-0.0058766743
-0.00093054236
-0.0068578901
-0.0046719551
-0.0077763337
-0.0090745452
-0.0082658686
-0.013955966
-0.0077687597
-0.018669578
-0.0057511069
-0.021601483
-0.0024366716
-0.0196847
-0.0093630143
-0.00050826705
0.0039805262
-0.0012456489
0.0086733617
-0.0017959147
0.010912655
-0.0020480433
0.011656708
-0.002032562
0.011572687
-0.0018254916
0.011038575
-0.0015122652
0.010238317
-0.0011779375
0.0092365183
-0.00090479293
0.0080256515
-0.00077380001
0.00655826
-0.00086356812
0.0047612522
-0.0012474322
0.0025447011
-0.0019829013
-0.00019507322
-0.0030819306
-0.0035729257
-0.0044600851
-0.0076963908
-0.0058275288
-0.012588522
-0.0065661918
-0.017930915
-0.0057684607
-0.022399214
-0.0029512281
-0.022501932
-0.012314242
-0.00086855947
0.0048490857
-0.0017630015
0.0095678038
-0.0021213876
0.011271041
-0.0019368912
0.011472212
-0.0013509795
0.010986775
-0.00051625941
0.010203855
0.00043696796
0.0092850901
0.0013995372
0.0082739491
0.0022723001
0.0071528887
0.0029608405
0.0058697196
0.0033690793
0.0043530136
0.0033967326
0.0025170477
0.0029384841
0.00026317531
0.0019095553
-0.0025439969
0.00026963618
-0.0060564716
-0.0018542036
-0.010464682
-0.0039516256
-0.015833493
-0.0048608511
-0.021489988
-0.0032547086
-0.024108075
-0.015568951
-0.0015910886
0.0064401744
-0.002610868
0.010587583
-0.0025131643
0.011173338
-0.0015899471
0.010548994
-0.00017222271
0.0095690511
0.0014927393
0.0085388927
0.0032328295
0.0075449999
0.0049231656
0.006583613
0.0064629242
0.0056131301
0.0077574311
0.0045752128
0.0087074411
0.0034030035
0.009201435
0.0020230539
0.0091032866
0.0003613238
0.0082750423
-0.0017157526
0.0065654189
-0.0043468482
0.0039042009
-0.0078034644
0.00055892902
-0.012488222
-0.0024680706
-0.018462989
-0.0030273228
-0.023548822
-0.018596274
-0.0027183613
0.0091585357
-0.0031498734
0.011019095
-0.0018030157
0.0098264799
0.00046667355
0.0082793052
0.0030893849
0.0069463398
0.005773763
0.0058545146
0.0083628428
0.0049559201
0.010760336
0.0041861198
0.01289343
0.0034800361
0.0146906
0.002778043
0.016068289
0.0020253146
0.016923233
0.0011681093
0.017119669
0.00016488853
0.016490792
-0.001086876
0.01481681
-0.0026728656
0.011846633
-0.0048332877
0.0074354737
-0.0080770623
0.0022629172
-0.013290432
-0.001272472
-0.020013433
-0.019868746
-0.0024132776
0.011571813
2.8057399e-05
0.0085777601
0.0042551342
0.0055994032
0.0084161106
0.0041183288
0.012231464
0.0031309867
0.015656234
0.0024297447
0.018686509
0.0019256444
0.021329148
0.0015434818
0.023583446
0.0012257381
0.025429181
0.00093230754
0.026820128
0.00063436805
0.027677145
0.00031109249
0.027900174
-5.8141056e-05
0.027347202
-0.00053390378
0.025771616
-0.0010972792
0.022843036
-0.0019047077
0.018054762
-0.0032887889
0.011113581
-0.0063492514
0.0033886732
-0.012288525
-0.016480072
0.011571813
0.020149574
0.025748977
0.029867306
0.032998292
0.035428037
0.037353681
0.038897163
0.040122901
0.041055209
0.041689577
0.042000669
0.041942528
0.041408625
0.040311345
0.038406638
0.035117849
0.028768598
0.016480072
)
;

boundaryField
{
    movingWall
    {
        type            calculated;
        value           uniform 0;
    }
    fixedWalls
    {
        type            calculated;
        value           uniform 0;
    }
    frontAndBack
    {
        type            empty;
        value           nonuniform List<scalar> 0();
    }
}


// ************************************************************************* //
