/*--------------------------------*- C++ -*----------------------------------*\
| =========                 |                                                 |
| \\      /  F ield         | OpenFOAM: The Open Source CFD Toolbox           |
|  \\    /   O peration     | Version:  2112                                  |
|   \\  /    A nd           | Website:  www.openfoam.com                      |
|    \\/     M anipulation  |                                                 |
\*---------------------------------------------------------------------------*/
FoamFile
{
    version     2.0;
    format      ascii;
    arch        "LSB;label=32;scalar=64";
    class       volVectorField;
    location    "22";
    object      U;
}
// * * * * * * * * * * * * * * * * * * * * * * * * * * * * * * * * * * * * * //

dimensions      [0 1 -1 0 0 0 0];

internalField   nonuniform List<vector> 
400
(
(0.00028437726 -0.00028145197 0)
(0.00011060204 7.9936798e-05 0)
(-0.0013272248 0.00047801579 0)
(-0.0036218925 0.00073591999 0)
(-0.0064236187 0.00086751332 0)
(-0.0094314223 0.00090726316 0)
(-0.012387925 0.00087486123 0)
(-0.015056352 0.00077152609 0)
(-0.017194446 0.00058848595 0)
(-0.018552743 0.00032008248 0)
(-0.01890251 -2.4811055e-05 0)
(-0.01808604 -0.00041826266 0)
(-0.016079802 -0.00079971439 0)
(-0.013048872 -0.0010930725 0)
(-0.0093663479 -0.001221201 0)
(-0.0055776443 -0.0011294717 0)
(-0.002300349 -0.00081286688 0)
(-8.2972314e-05 -0.00033798423 0)
(0.00076013459 0.00015228798 0)
(0.00040943573 0.00038933264 0)
(-8.6094025e-05 -0.00012366091 0)
(-0.0018692988 0.0017871932 0)
(-0.0063065104 0.0036260054 0)
(-0.012452616 0.0048624492 0)
(-0.019600525 0.0054984854 0)
(-0.027106778 0.00562063 0)
(-0.034358672 0.0052859929 0)
(-0.040768618 0.0045043471 0)
(-0.045757883 0.0032661965 0)
(-0.048775603 0.0015896439 0)
(-0.04936637 -0.00043545881 0)
(-0.047253589 -0.0026181602 0)
(-0.042451798 -0.0046644979 0)
(-0.035361338 -0.0062188689 0)
(-0.026778508 -0.0069375407 0)
(-0.017827203 -0.0065922307 0)
(-0.009775517 -0.0051797574 0)
(-0.0037463029 -0.0029994325 0)
(-0.00038876806 -0.00066555031 0)
(0.00028988734 0.00078353158 0)
(-0.0005880884 0.0014335892 0)
(-0.0042427943 0.0063774347 0)
(-0.011758495 0.010640487 0)
(-0.021468557 0.013483502 0)
(-0.032365984 0.014898194 0)
(-0.043587727 0.015017276 0)
(-0.054287059 0.013936059 0)
(-0.063642146 0.011684153 0)
(-0.070855401 0.0082813041 0)
(-0.075187916 0.0038286385 0)
(-0.07603912 -0.0014058719 0)
(-0.073057365 -0.0069355707 0)
(-0.066266313 -0.012071638 0)
(-0.056169057 -0.016000129 0)
(-0.043780591 -0.017942621 0)
(-0.030569044 -0.017379848 0)
(-0.01825058 -0.014289903 0)
(-0.0084179482 -0.0093122701 0)
(-0.0021511236 -0.0037618433 0)
(-1.9751102e-06 0.00031694382 0)
(-0.0010530592 0.0043003299 0)
(-0.0065148094 0.013565602 0)
(-0.01699899 0.020863903 0)
(-0.030030665 0.025561024 0)
(-0.044300256 0.027761228 0)
(-0.058783872 0.027687733 0)
(-0.072487025 0.025487431 0)
(-0.084446334 0.021218256 0)
(-0.093728301 0.014945019 0)
(-0.099463556 0.0068783685 0)
(-0.10092949 -0.0025011975 0)
(-0.09766221 -0.012378273 0)
(-0.089592494 -0.021605185 0)
(-0.077181723 -0.028824534 0)
(-0.061504697 -0.032705814 0)
(-0.04425337 -0.032299701 0)
(-0.02756206 -0.027445736 0)
(-0.013581688 -0.019080614 0)
(-0.004026337 -0.0092706792 0)
(-0.00026772211 -0.0011082122 0)
(-0.0014558484 0.0083649332 0)
(-0.0085489694 0.023180973 0)
(-0.021745989 0.034051283 0)
(-0.037792057 0.04076264 0)
(-0.055096335 0.043701292 0)
(-0.072518837 0.043258587 0)
(-0.088983543 0.039661089 0)
(-0.10345746 0.033001067 0)
(-0.11493116 0.023384078 0)
(-0.12243582 0.011116748 0)
(-0.12511425 -0.0031287807 0)
(-0.12231887 -0.018219076 0)
(-0.11376062 -0.032541202 0)
(-0.099697487 -0.04413215 0)
(-0.081099896 -0.050965802 0)
(-0.059775901 -0.051440798 0)
(-0.038290922 -0.045013306 0)
(-0.019520328 -0.032755347 0)
(-0.0060923054 -0.01749178 0)
(-0.00051102077 -0.0035220375 0)
(-0.0017889109 0.013475283 0)
(-0.010269592 0.034960432 0)
(-0.025805209 0.049908043 0)
(-0.044466266 0.058794125 0)
(-0.064427023 0.062457683 0)
(-0.084476677 0.06155026 0)
(-0.10351555 0.0564155 0)
(-0.12050239 0.047181811 0)
(-0.13440275 0.033970141 0)
(-0.1441727 0.017132373 0)
(-0.14880226 -0.0025356926 0)
(-0.14739216 -0.023635999 0)
(-0.1393101 -0.044142063 0)
(-0.12443468 -0.061441487 0)
(-0.10343092 -0.072641655 0)
(-0.078055377 -0.075173307 0)
(-0.051260584 -0.06770626 0)
(-0.026809278 -0.051123854 0)
(-0.0086122463 -0.02896551 0)
(-0.0007870683 -0.0070521409 0)
(-0.0020420089 0.019436274 0)
(-0.011605515 0.048528322 0)
(-0.028995471 0.067997529 0)
(-0.049757193 0.079225115 0)
(-0.071890884 0.083656489 0)
(-0.094161143 0.082296898 0)
(-0.11549895 0.075648992 0)
(-0.1349138 0.063876403 0)
(-0.15140198 0.047075723 0)
(-0.16388344 0.025567782 0)
(-0.17119108 0.00016332178 0)
(-0.17215332 -0.02761009 0)
(-0.16571454 -0.055395585 0)
(-0.15119098 -0.079944863 0)
(-0.12869977 -0.097350268 0)
(-0.099669382 -0.1036977 0)
(-0.067241416 -0.096285382 0)
(-0.036118897 -0.075219708 0)
(-0.011929656 -0.044539566 0)
(-0.0011708091 -0.01200144 0)
(-0.0022012631 0.026013037 0)
(-0.012484591 0.063418797 0)
(-0.03113961 0.087763412 0)
(-0.053354064 0.10148909 0)
(-0.077017025 0.10677597 0)
(-0.10091119 0.1050727 0)
(-0.12404906 0.097087317 0)
(-0.14555062 0.083020759 0)
(-0.16450842 0.062901874 0)
(-0.17987471 0.036930824 0)
(-0.19039801 0.0057958595 0)
(-0.1946545 -0.029032783 0)
(-0.19113519 -0.065017217 0)
(-0.17848876 -0.098390032 0)
(-0.15602406 -0.12417634 0)
(-0.12444423 -0.1367617 0)
(-0.086646144 -0.13132812 0)
(-0.048063481 -0.10623213 0)
(-0.016429266 -0.065392841 0)
(-0.0017537795 -0.018878325 0)
(-0.002255689 0.032932843 0)
(-0.012853609 0.07908753 0)
(-0.032098672 0.10853374 0)
(-0.054981425 0.12486287 0)
(-0.079334288 0.13109151 0)
(-0.10399349 0.12919805 0)
(-0.1280995 0.12015033 0)
(-0.15094417 0.10420076 0)
(-0.17179635 0.081277979 0)
(-0.18974373 0.051375581 0)
(-0.20357526 0.014915772 0)
(-0.21172812 -0.026875418 0)
(-0.21232425 -0.071531375 0)
(-0.2033373 -0.11502489 0)
(-0.18306202 -0.15144578 0)
(-0.15101724 -0.17328375 0)
(-0.10916509 -0.17282067 0)
(-0.06302606 -0.1452429 0)
(-0.022524847 -0.092977504 0)
(-0.0026589431 -0.028422033 0)
(-0.0022086224 0.039904036 0)
(-0.012717016 0.094943123 0)
(-0.031841133 0.12953871 0)
(-0.05449654 0.14845693 0)
(-0.078499692 0.15563393 0)
(-0.10277052 0.15366505 0)
(-0.12662088 0.14384492 0)
(-0.14957601 0.12651259 0)
(-0.17117032 0.10149212 0)
(-0.19075517 0.06851713 0)
(-0.20732652 0.027627942 0)
(-0.21937715 -0.020393537 0)
(-0.22488723 -0.07346093 0)
(-0.22130601 -0.12768756 0)
(-0.20585423 -0.17661918 0)
(-0.17647573 -0.21099055 0)
(-0.13334611 -0.21961173 0)
(-0.080898851 -0.19275275 0)
(-0.030641754 -0.12885184 0)
(-0.0040700465 -0.041636805 0)
(-0.0020933506 0.04666278 0)
(-0.012189719 0.11041738 0)
(-0.030536177 0.14996425 0)
(-0.052017516 0.17124131 0)
(-0.074464889 0.17919088 0)
(-0.096919775 0.17711965 0)
(-0.11891391 0.16672864 0)
(-0.14026639 0.14850199 0)
(-0.16086199 0.12219209 0)
(-0.18044317 0.087272676 0)
(-0.1984029 0.043353006 0)
(-0.2135368 -0.0093889265 0)
(-0.22401456 -0.06967567 0)
(-0.22708279 -0.13413225 0)
(-0.21908942 -0.19645194 0)
(-0.19626624 -0.24625073 0)
(-0.15621899 -0.26885884 0)
(-0.10070599 -0.24798678 0)
(-0.041145877 -0.17433412 0)
(-0.0062705884 -0.059833617 0)
(-0.001996344 0.053056973 0)
(-0.011565562 0.12508234 0)
(-0.028661071 0.16904362 0)
(-0.04805678 0.19210744 0)
(-0.067638646 0.20035503 0)
(-0.086644145 0.19791141 0)
(-0.10489621 0.18696614 0)
(-0.12256981 0.16821788 0)
(-0.13996444 0.14140879 0)
(-0.15729809 0.10579913 0)
(-0.17451613 0.060572238 0)
(-0.19108424 0.0052264746 0)
(-0.20560211 -0.059921485 0)
(-0.21550628 -0.13260679 0)
(-0.21690165 -0.20752664 0)
(-0.20457817 -0.27431679 0)
(-0.17317486 -0.31571641 0)
(-0.12017085 -0.3080785 0)
(-0.054147379 -0.22988276 0)
(-0.0096748707 -0.084652765 0)
(-0.0020996298 0.059183833 0)
(-0.011414985 0.1388148 0)
(-0.027115639 0.18617193 0)
(-0.043625246 0.20994551 0)
(-0.058981748 0.21760001 0)
(-0.072778458 0.21419643 0)
(-0.085250703 0.20247263 0)
(-0.097002 0.18339353 0)
(-0.10878952 0.15675597 0)
(-0.12135129 0.12168643 0)
(-0.13525499 0.077015881 0)
(-0.15070379 0.021618913 0)
(-0.16712304 -0.045109882 0)
(-0.18274091 -0.12251509 0)
(-0.19405428 -0.2071251 0)
(-0.19523556 -0.29011359 0)
(-0.17829453 -0.35358388 0)
(-0.13540553 -0.36743689 0)
(-0.069088975 -0.29415195 0)
(-0.014794999 -0.11798403 0)
(-0.0027677342 0.065619604 0)
(-0.012741169 0.15199765 0)
(-0.027330362 0.200996 0)
(-0.040245108 0.22368226 0)
(-0.049929341 0.2293295 0)
(-0.056644308 0.22403634 0)
(-0.061233577 0.21107972 0)
(-0.064817087 0.19168124 0)
(-0.068621845 0.16572028 0)
(-0.073876181 0.13227372 0)
(-0.08172939 0.089960721 0)
(-0.093121279 0.037200803 0)
(-0.10847041 -0.027478294 0)
(-0.12721487 -0.10497554 0)
(-0.14705516 -0.19421988 0)
(-0.16280421 -0.28948553 0)
(-0.16509125 -0.37509841 0)
(-0.14090172 -0.41772595 0)
(-0.084061607 -0.36281309 0)
(-0.022011619 -0.16157362 0)
(-0.0047196285 0.073834522 0)
(-0.01722263 0.1657257 0)
(-0.031284782 0.21337732 0)
(-0.039683871 0.23217305 0)
(-0.04188434 0.23380133 0)
(-0.039352112 0.22539365 0)
(-0.033813708 0.21061179 0)
(-0.027001626 0.19081039 0)
(-0.020593331 0.1658979 0)
(-0.016216762 0.13493945 0)
(-0.015477687 0.096471336 0)
(-0.019926846 0.04869062 0)
(-0.030919848 -0.010412022 0)
(-0.049235407 -0.082919777 0)
(-0.074400112 -0.17014245 0)
(-0.10327749 -0.27050189 0)
(-0.12725521 -0.37369466 0)
(-0.12973535 -0.44868705 0)
(-0.094914938 -0.42750623 0)
(-0.030930671 -0.21612762 0)
(-0.0093000448 0.08695204 0)
(-0.027432305 0.18185297 0)
(-0.04098208 0.22303287 0)
(-0.042680117 0.23378879 0)
(-0.034406249 0.2288015 0)
(-0.019623603 0.2159223 0)
(-0.0012395029 0.19877954 0)
(0.018344399 0.17856447 0)
(0.03707035 0.15508353 0)
(0.053054573 0.12735955 0)
(0.064420507 0.093936628 0)
(0.069229933 0.053015039 0)
(0.065414123 0.002463124 0)
(0.051046502 -0.060338824 0)
(0.024642108 -0.13837615 0)
(-0.01370273 -0.23417099 0)
(-0.058754453 -0.34516991 0)
(-0.093511367 -0.44953954 0)
(-0.094470105 -0.47558777 0)
(-0.039216149 -0.28048251 0)
(-0.018580345 0.11087147 0)
(-0.046039815 0.20177635 0)
(-0.0552304 0.22793126 0)
(-0.043985365 0.22501715 0)
(-0.01937315 0.21061242 0)
(0.012332592 0.19227957 0)
(0.046992202 0.1727846 0)
(0.081753223 0.15265377 0)
(0.11443692 0.13135279 0)
(0.14315226 0.10779564 0)
(0.16601586 0.080591843 0)
(0.18098023 0.048112475 0)
(0.18557518 0.0084496279 0)
(0.17716488 -0.040817175 0)
(0.1527587 -0.10317593 0)
(0.10948813 -0.18390599 0)
(0.047239969 -0.28855449 0)
(-0.021439683 -0.41051022 0)
(-0.07225314 -0.4910168 0)
(-0.04114753 -0.35054276 0)
(-0.033352242 0.15561549 0)
(-0.068601709 0.2204044 0)
(-0.055187536 0.21729207 0)
(-0.016079007 0.19532413 0)
(0.034510638 0.17092317 0)
(0.088507126 0.14849435 0)
(0.14176778 0.12861237 0)
(0.19196815 0.11057744 0)
(0.23753977 0.093297552 0)
(0.27711925 0.075575133 0)
(0.30921728 0.056181609 0)
(0.33204249 0.033823506 0)
(0.34317494 0.0070274884 0)
(0.33982821 -0.025910262 0)
(0.31813195 -0.067741587 0)
(0.27327679 -0.12410783 0)
(0.20044688 -0.20584704 0)
(0.10213951 -0.32506907 0)
(-0.01238742 -0.45457161 0)
(-0.023756694 -0.40864064 0)
(-0.03308109 0.23907322 0)
(-0.042647113 0.21792014 0)
(0.042207202 0.16426625 0)
(0.12760446 0.12783569 0)
(0.20769771 0.10143536 0)
(0.28028118 0.081658016 0)
(0.34487255 0.066648009 0)
(0.40158236 0.054702965 0)
(0.45054991 0.044399449 0)
(0.49161967 0.034639957 0)
(0.52416114 0.024550666 0)
(0.54698542 0.013381812 0)
(0.55822181 0.00039986234 0)
(0.55570897 -0.015137213 0)
(0.53552589 -0.034969083 0)
(0.49244634 -0.062488125 0)
(0.41797254 -0.10694759 0)
(0.30410582 -0.19317543 0)
(0.12313775 -0.33691904 0)
(0.052374183 -0.39437913 0)
(0.24299929 0.15257481 0)
(0.30529625 0.11854289 0)
(0.45481223 0.07610815 0)
(0.56000889 0.050840185 0)
(0.63223319 0.035126063 0)
(0.68654904 0.024812278 0)
(0.72943808 0.017960072 0)
(0.76379608 0.013255908 0)
(0.79127901 0.0097621974 0)
(0.81275118 0.0068543709 0)
(0.82841111 0.0041185407 0)
(0.83794374 0.0012768855 0)
(0.84057057 -0.0018441747 0)
(0.83497546 -0.0053262333 0)
(0.81886692 -0.0098289414 0)
(0.78942865 -0.016232735 0)
(0.73784288 -0.026935702 0)
(0.65316765 -0.051286553 0)
(0.45609767 -0.11374603 0)
(0.31788988 -0.17206003 0)
)
;

boundaryField
{
    movingWall
    {
        type            fixedValue;
        value           uniform (1 0 0);
    }
    fixedWalls
    {
        type            fixedValue;
        value           uniform (0 0 0);
    }
    frontAndBack
    {
        type            empty;
    }
}


// ************************************************************************* //
