/*--------------------------------*- C++ -*----------------------------------*\
| =========                 |                                                 |
| \\      /  F ield         | OpenFOAM: The Open Source CFD Toolbox           |
|  \\    /   O peration     | Version:  2112                                  |
|   \\  /    A nd           | Website:  www.openfoam.com                      |
|    \\/     M anipulation  |                                                 |
\*---------------------------------------------------------------------------*/
FoamFile
{
    version     2.0;
    format      ascii;
    arch        "LSB;label=32;scalar=64";
    class       volVectorField;
    location    "22";
    object      U_0;
}
// * * * * * * * * * * * * * * * * * * * * * * * * * * * * * * * * * * * * * //

dimensions      [0 1 -1 0 0 0 0];

internalField   nonuniform List<vector> 
400
(
(0.00028437717 -0.00028145207 0)
(0.00011060195 7.9936725e-05 0)
(-0.0013272248 0.00047801569 0)
(-0.0036218923 0.00073591983 0)
(-0.0064236184 0.00086751313 0)
(-0.0094314219 0.00090726301 0)
(-0.012387925 0.00087486117 0)
(-0.015056351 0.00077152607 0)
(-0.017194445 0.0005884859 0)
(-0.018552742 0.0003200824 0)
(-0.018902509 -2.4811082e-05 0)
(-0.01808604 -0.00041826255 0)
(-0.016079801 -0.00079971417 0)
(-0.013048871 -0.0010930723 0)
(-0.0093663469 -0.0012212009 0)
(-0.0055776437 -0.0011294716 0)
(-0.002300349 -0.00081286677 0)
(-8.2972687e-05 -0.00033798411 0)
(0.0007601342 0.00015228805 0)
(0.00040943558 0.00038933269 0)
(-8.6094024e-05 -0.00012366118 0)
(-0.0018692987 0.0017871928 0)
(-0.0063065101 0.0036260049 0)
(-0.012452615 0.0048624485 0)
(-0.019600524 0.0054984847 0)
(-0.027106776 0.0056206293 0)
(-0.03435867 0.0052859924 0)
(-0.040768615 0.0045043469 0)
(-0.04575788 0.0032661965 0)
(-0.0487756 0.001589644 0)
(-0.049366367 -0.00043545862 0)
(-0.047253586 -0.0026181597 0)
(-0.042451795 -0.0046644971 0)
(-0.035361335 -0.006218868 0)
(-0.026778506 -0.0069375399 0)
(-0.017827202 -0.0065922301 0)
(-0.0097755166 -0.005179757 0)
(-0.0037463032 -0.0029994323 0)
(-0.00038876851 -0.00066555022 0)
(0.00028988714 0.00078353165 0)
(-0.00058808835 0.0014335887 0)
(-0.0042427939 0.0063774338 0)
(-0.011758494 0.010640485 0)
(-0.021468555 0.0134835 0)
(-0.032365982 0.014898192 0)
(-0.043587724 0.015017275 0)
(-0.054287055 0.013936058 0)
(-0.063642141 0.011684153 0)
(-0.070855396 0.0082813041 0)
(-0.075187912 0.003828639 0)
(-0.076039116 -0.001405871 0)
(-0.07305736 -0.0069355695 0)
(-0.066266309 -0.012071636 0)
(-0.056169054 -0.016000127 0)
(-0.043780588 -0.01794262 0)
(-0.030569042 -0.017379847 0)
(-0.01825058 -0.014289903 0)
(-0.0084179482 -0.0093122698 0)
(-0.0021511239 -0.0037618434 0)
(-1.9752604e-06 0.0003169437 0)
(-0.0010530592 0.0043003293 0)
(-0.0065148088 0.0135656 0)
(-0.016998988 0.020863901 0)
(-0.030030662 0.025561022 0)
(-0.044300253 0.027761226 0)
(-0.058783867 0.027687731 0)
(-0.072487019 0.025487429 0)
(-0.084446328 0.021218255 0)
(-0.093728294 0.014945019 0)
(-0.09946355 0.0068783694 0)
(-0.10092949 -0.0025011959 0)
(-0.097662204 -0.01237827 0)
(-0.089592488 -0.021605183 0)
(-0.077181718 -0.028824531 0)
(-0.061504693 -0.032705811 0)
(-0.044253368 -0.032299699 0)
(-0.027562059 -0.027445735 0)
(-0.013581688 -0.019080614 0)
(-0.0040263372 -0.0092706794 0)
(-0.00026772222 -0.0011082126 0)
(-0.0014558483 0.0083649324 0)
(-0.0085489687 0.023180971 0)
(-0.021745987 0.034051281 0)
(-0.037792054 0.040762636 0)
(-0.05509633 0.043701288 0)
(-0.072518831 0.043258584 0)
(-0.088983536 0.039661087 0)
(-0.10345746 0.033001065 0)
(-0.11493115 0.023384078 0)
(-0.12243581 0.011116748 0)
(-0.12511424 -0.0031287787 0)
(-0.12231887 -0.018219074 0)
(-0.11376061 -0.032541199 0)
(-0.099697481 -0.044132147 0)
(-0.081099892 -0.050965799 0)
(-0.059775898 -0.051440795 0)
(-0.03829092 -0.045013304 0)
(-0.019520328 -0.032755346 0)
(-0.0060923054 -0.017491779 0)
(-0.0005110208 -0.0035220378 0)
(-0.0017889107 0.013475282 0)
(-0.010269592 0.03496043 0)
(-0.025805207 0.049908039 0)
(-0.044466263 0.05879412 0)
(-0.064427017 0.062457678 0)
(-0.084476671 0.061550255 0)
(-0.10351554 0.056415497 0)
(-0.12050238 0.047181809 0)
(-0.13440275 0.03397014 0)
(-0.14417269 0.017132373 0)
(-0.14880225 -0.0025356908 0)
(-0.14739216 -0.023635995 0)
(-0.1393101 -0.044142059 0)
(-0.12443468 -0.061441483 0)
(-0.10343092 -0.072641651 0)
(-0.078055374 -0.075173304 0)
(-0.051260582 -0.067706257 0)
(-0.026809277 -0.051123852 0)
(-0.0086122459 -0.028965509 0)
(-0.00078706824 -0.0070521408 0)
(-0.0020420087 0.019436272 0)
(-0.011605514 0.048528319 0)
(-0.028995469 0.067997524 0)
(-0.04975719 0.07922511 0)
(-0.071890879 0.083656483 0)
(-0.094161136 0.082296892 0)
(-0.11549894 0.075648987 0)
(-0.13491379 0.063876399 0)
(-0.15140197 0.047075721 0)
(-0.16388343 0.025567782 0)
(-0.17119107 0.00016332304 0)
(-0.17215331 -0.027610087 0)
(-0.16571453 -0.055395581 0)
(-0.15119098 -0.079944857 0)
(-0.12869977 -0.097350262 0)
(-0.099669378 -0.1036977 0)
(-0.067241413 -0.096285378 0)
(-0.036118896 -0.075219704 0)
(-0.011929655 -0.044539564 0)
(-0.0011708089 -0.01200144 0)
(-0.0022012629 0.026013035 0)
(-0.01248459 0.063418793 0)
(-0.031139608 0.087763406 0)
(-0.053354061 0.10148908 0)
(-0.077017021 0.10677596 0)
(-0.10091118 0.1050727 0)
(-0.12404906 0.097087311 0)
(-0.14555062 0.083020754 0)
(-0.16450841 0.062901871 0)
(-0.17987471 0.036930823 0)
(-0.190398 0.0057958606 0)
(-0.19465449 -0.02903278 0)
(-0.19113519 -0.065017212 0)
(-0.17848876 -0.098390026 0)
(-0.15602405 -0.12417634 0)
(-0.12444423 -0.13676169 0)
(-0.08664614 -0.13132811 0)
(-0.048063479 -0.10623212 0)
(-0.016429265 -0.065392838 0)
(-0.0017537793 -0.018878323 0)
(-0.0022556888 0.032932841 0)
(-0.012853608 0.079087525 0)
(-0.03209867 0.10853373 0)
(-0.054981423 0.12486286 0)
(-0.079334285 0.1310915 0)
(-0.10399349 0.12919804 0)
(-0.12809949 0.12015032 0)
(-0.15094416 0.10420075 0)
(-0.17179634 0.081277975 0)
(-0.18974372 0.05137558 0)
(-0.20357525 0.014915773 0)
(-0.21172812 -0.026875415 0)
(-0.21232425 -0.07153137 0)
(-0.2033373 -0.11502488 0)
(-0.18306202 -0.15144577 0)
(-0.15101724 -0.17328374 0)
(-0.10916508 -0.17282066 0)
(-0.063026058 -0.14524289 0)
(-0.022524846 -0.0929775 0)
(-0.0026589428 -0.028422031 0)
(-0.0022086224 0.039904033 0)
(-0.012717016 0.094943117 0)
(-0.031841133 0.1295387 0)
(-0.054496539 0.14845692 0)
(-0.07849969 0.15563392 0)
(-0.10277052 0.15366504 0)
(-0.12662087 0.14384491 0)
(-0.149576 0.12651259 0)
(-0.17117032 0.10149211 0)
(-0.19075516 0.068517129 0)
(-0.20732652 0.027627944 0)
(-0.21937715 -0.020393533 0)
(-0.22488723 -0.073460924 0)
(-0.22130601 -0.12768755 0)
(-0.20585423 -0.17661917 0)
(-0.17647572 -0.21099054 0)
(-0.13334611 -0.21961172 0)
(-0.080898849 -0.19275274 0)
(-0.030641753 -0.12885184 0)
(-0.0040700463 -0.041636803 0)
(-0.0020933507 0.046662777 0)
(-0.01218972 0.11041737 0)
(-0.030536177 0.14996424 0)
(-0.052017516 0.1712413 0)
(-0.074464889 0.17919087 0)
(-0.096919774 0.17711964 0)
(-0.11891391 0.16672864 0)
(-0.14026639 0.14850199 0)
(-0.16086199 0.12219209 0)
(-0.18044317 0.087272676 0)
(-0.1984029 0.043353008 0)
(-0.2135368 -0.0093889223 0)
(-0.22401456 -0.069675664 0)
(-0.22708279 -0.13413224 0)
(-0.21908942 -0.19645193 0)
(-0.19626624 -0.24625072 0)
(-0.15621899 -0.26885883 0)
(-0.10070599 -0.24798677 0)
(-0.041145876 -0.17433411 0)
(-0.0062705882 -0.059833615 0)
(-0.0019963441 0.05305697 0)
(-0.011565563 0.12508233 0)
(-0.028661072 0.16904361 0)
(-0.048056782 0.19210743 0)
(-0.067638648 0.20035502 0)
(-0.086644147 0.1979114 0)
(-0.10489621 0.18696614 0)
(-0.12256981 0.16821787 0)
(-0.13996444 0.14140879 0)
(-0.15729809 0.10579914 0)
(-0.17451613 0.06057224 0)
(-0.19108424 0.0052264787 0)
(-0.20560211 -0.059921479 0)
(-0.21550629 -0.13260678 0)
(-0.21690165 -0.20752663 0)
(-0.20457817 -0.27431678 0)
(-0.17317486 -0.3157164 0)
(-0.12017085 -0.30807849 0)
(-0.054147378 -0.22988276 0)
(-0.0096748705 -0.084652763 0)
(-0.00209963 0.05918383 0)
(-0.011414986 0.13881479 0)
(-0.02711564 0.18617192 0)
(-0.043625248 0.2099455 0)
(-0.058981752 0.2176 0)
(-0.072778462 0.21419643 0)
(-0.085250706 0.20247262 0)
(-0.097002004 0.18339352 0)
(-0.10878953 0.15675597 0)
(-0.12135129 0.12168643 0)
(-0.13525499 0.077015885 0)
(-0.15070379 0.021618918 0)
(-0.16712304 -0.045109877 0)
(-0.18274092 -0.12251508 0)
(-0.19405428 -0.20712509 0)
(-0.19523556 -0.29011358 0)
(-0.17829453 -0.35358387 0)
(-0.13540553 -0.36743688 0)
(-0.069088975 -0.29415194 0)
(-0.014794999 -0.11798403 0)
(-0.0027677347 0.065619601 0)
(-0.01274117 0.15199765 0)
(-0.027330363 0.200996 0)
(-0.04024511 0.22368225 0)
(-0.049929346 0.22932949 0)
(-0.056644314 0.22403634 0)
(-0.061233584 0.21107971 0)
(-0.064817093 0.19168124 0)
(-0.068621852 0.16572028 0)
(-0.07387619 0.13227372 0)
(-0.081729398 0.089960725 0)
(-0.093121287 0.037200807 0)
(-0.10847041 -0.027478289 0)
(-0.12721488 -0.10497554 0)
(-0.14705516 -0.19421987 0)
(-0.16280421 -0.28948552 0)
(-0.16509125 -0.37509841 0)
(-0.14090172 -0.41772594 0)
(-0.084061607 -0.36281309 0)
(-0.022011618 -0.16157361 0)
(-0.0047196288 0.07383452 0)
(-0.017222632 0.1657257 0)
(-0.031284785 0.21337731 0)
(-0.039683874 0.23217304 0)
(-0.041884344 0.23380132 0)
(-0.039352119 0.22539365 0)
(-0.033813717 0.21061179 0)
(-0.027001635 0.19081039 0)
(-0.02059334 0.1658979 0)
(-0.016216771 0.13493945 0)
(-0.015477696 0.096471338 0)
(-0.019926855 0.048690624 0)
(-0.030919856 -0.010412018 0)
(-0.049235415 -0.082919772 0)
(-0.074400118 -0.17014245 0)
(-0.1032775 -0.27050189 0)
(-0.12725521 -0.37369465 0)
(-0.12973535 -0.44868704 0)
(-0.094914939 -0.42750622 0)
(-0.030930671 -0.21612762 0)
(-0.0093000441 0.086952038 0)
(-0.027432305 0.18185297 0)
(-0.040982084 0.22303287 0)
(-0.042680123 0.23378878 0)
(-0.034406254 0.22880149 0)
(-0.019623609 0.21592229 0)
(-0.0012395115 0.19877953 0)
(0.018344389 0.17856447 0)
(0.03707034 0.15508353 0)
(0.053054563 0.12735955 0)
(0.064420498 0.093936629 0)
(0.069229924 0.053015042 0)
(0.065414115 0.0024631275 0)
(0.051046495 -0.06033882 0)
(0.024642101 -0.13837614 0)
(-0.013702735 -0.23417099 0)
(-0.058754457 -0.34516991 0)
(-0.09351137 -0.44953954 0)
(-0.094470107 -0.47558777 0)
(-0.039216149 -0.2804825 0)
(-0.018580344 0.11087147 0)
(-0.046039813 0.20177635 0)
(-0.055230401 0.22793126 0)
(-0.043985372 0.22501715 0)
(-0.019373157 0.21061241 0)
(0.012332585 0.19227956 0)
(0.046992195 0.1727846 0)
(0.081753214 0.15265377 0)
(0.11443691 0.13135279 0)
(0.14315225 0.10779564 0)
(0.16601585 0.080591843 0)
(0.18098022 0.048112477 0)
(0.18557518 0.0084496301 0)
(0.17716487 -0.040817173 0)
(0.1527587 -0.10317593 0)
(0.10948813 -0.18390599 0)
(0.047239965 -0.28855449 0)
(-0.021439686 -0.41051022 0)
(-0.072253142 -0.49101679 0)
(-0.04114753 -0.35054276 0)
(-0.033352244 0.1556155 0)
(-0.068601709 0.2204044 0)
(-0.055187533 0.21729207 0)
(-0.016079009 0.19532413 0)
(0.034510632 0.17092317 0)
(0.088507119 0.14849434 0)
(0.14176778 0.12861237 0)
(0.19196814 0.11057744 0)
(0.23753976 0.09329755 0)
(0.27711924 0.075575132 0)
(0.30921727 0.056181609 0)
(0.33204249 0.033823507 0)
(0.34317493 0.0070274894 0)
(0.33982821 -0.025910261 0)
(0.31813194 -0.067741585 0)
(0.27327679 -0.12410783 0)
(0.20044687 -0.20584704 0)
(0.10213951 -0.32506907 0)
(-0.012387421 -0.45457161 0)
(-0.023756694 -0.40864064 0)
(-0.033081094 0.23907323 0)
(-0.042647117 0.21792015 0)
(0.042207203 0.16426625 0)
(0.12760446 0.12783568 0)
(0.20769771 0.10143536 0)
(0.28028118 0.081658014 0)
(0.34487254 0.066648008 0)
(0.40158235 0.054702964 0)
(0.45054991 0.044399448 0)
(0.49161966 0.034639956 0)
(0.52416114 0.024550666 0)
(0.54698542 0.013381812 0)
(0.55822181 0.00039986269 0)
(0.55570897 -0.015137212 0)
(0.53552588 -0.034969082 0)
(0.49244634 -0.062488125 0)
(0.41797254 -0.10694759 0)
(0.30410582 -0.19317543 0)
(0.12313775 -0.33691904 0)
(0.052374183 -0.39437913 0)
(0.24299929 0.15257482 0)
(0.30529625 0.1185429 0)
(0.45481223 0.076108152 0)
(0.56000889 0.050840185 0)
(0.63223319 0.035126062 0)
(0.68654904 0.024812278 0)
(0.72943808 0.017960071 0)
(0.76379608 0.013255908 0)
(0.79127901 0.0097621971 0)
(0.81275118 0.0068543707 0)
(0.82841111 0.0041185406 0)
(0.83794374 0.0012768856 0)
(0.84057057 -0.0018441746 0)
(0.83497546 -0.0053262332 0)
(0.81886692 -0.0098289413 0)
(0.78942865 -0.016232734 0)
(0.73784288 -0.026935702 0)
(0.65316765 -0.051286553 0)
(0.45609767 -0.11374603 0)
(0.31788988 -0.17206003 0)
)
;

boundaryField
{
    movingWall
    {
        type            fixedValue;
        value           uniform (1 0 0);
    }
    fixedWalls
    {
        type            fixedValue;
        value           uniform (0 0 0);
    }
    frontAndBack
    {
        type            empty;
    }
}


// ************************************************************************* //
