/*--------------------------------*- C++ -*----------------------------------*\
| =========                 |                                                 |
| \\      /  F ield         | OpenFOAM: The Open Source CFD Toolbox           |
|  \\    /   O peration     | Version:  2112                                  |
|   \\  /    A nd           | Website:  www.openfoam.com                      |
|    \\/     M anipulation  |                                                 |
\*---------------------------------------------------------------------------*/
FoamFile
{
    version     2.0;
    format      ascii;
    arch        "LSB;label=32;scalar=64";
    class       volScalarField;
    location    "5";
    object      T;
}
// * * * * * * * * * * * * * * * * * * * * * * * * * * * * * * * * * * * * * //

dimensions      [0 0 0 1 0 0 0];

internalField   nonuniform List<scalar> 
1000
(
0.00534067
0.00534074
0.00534088
0.00534109
0.00534137
0.00534172
0.00534215
0.00534265
0.00534322
0.00534387
0.00534459
0.00534539
0.00534627
0.00534722
0.00534826
0.00534937
0.00535056
0.00535184
0.00535319
0.00535463
0.00535615
0.00535775
0.00535944
0.00536122
0.00536308
0.00536502
0.00536706
0.00536918
0.00537139
0.0053737
0.00537609
0.00537858
0.00538116
0.00538383
0.00538659
0.00538945
0.00539241
0.00539546
0.00539862
0.00540186
0.00540521
0.00540866
0.00541221
0.00541586
0.00541962
0.00542348
0.00542744
0.00543151
0.00543568
0.00543996
0.00544435
0.00544885
0.00545345
0.00545817
0.005463
0.00546794
0.005473
0.00547817
0.00548345
0.00548886
0.00549437
0.00550001
0.00550577
0.00551164
0.00551764
0.00552376
0.00553
0.00553636
0.00554285
0.00554947
0.00555621
0.00556308
0.00557008
0.00557721
0.00558446
0.00559185
0.00559938
0.00560703
0.00561483
0.00562275
0.00563082
0.00563902
0.00564736
0.00565584
0.00566446
0.00567322
0.00568213
0.00569118
0.00570038
0.00570972
0.00571921
0.00572884
0.00573863
0.00574857
0.00575865
0.0057689
0.00577929
0.00578984
0.00580054
0.00581141
0.00582243
0.00583361
0.00584495
0.00585645
0.00586811
0.00587994
0.00589193
0.00590409
0.00591642
0.00592891
0.00594157
0.00595441
0.00596741
0.00598059
0.00599394
0.00600747
0.00602118
0.00603506
0.00604912
0.00606336
0.00607778
0.00609239
0.00610718
0.00612215
0.00613731
0.00615265
0.00616819
0.00618391
0.00619983
0.00621594
0.00623224
0.00624873
0.00626542
0.00628231
0.0062994
0.00631669
0.00633417
0.00635186
0.00636976
0.00638785
0.00640616
0.00642467
0.00644339
0.00646232
0.00648146
0.00650081
0.00652038
0.00654016
0.00656016
0.00658037
0.00660081
0.00662146
0.00664234
0.00666344
0.00668476
0.00670631
0.00672809
0.00675009
0.00677233
0.00679479
0.00681749
0.00684042
0.00686359
0.00688699
0.00691063
0.00693451
0.00695863
0.00698299
0.0070076
0.00703245
0.00705755
0.00708289
0.00710848
0.00713432
0.00716042
0.00718677
0.00721337
0.00724022
0.00726734
0.00729471
0.00732235
0.00735024
0.0073784
0.00740682
0.00743551
0.00746447
0.00749369
0.00752319
0.00755295
0.00758299
0.0076133
0.00764389
0.00767476
0.00770591
0.00773733
0.00776904
0.00780103
0.00783331
0.00786587
0.00789872
0.00793186
0.00796529
0.00799901
0.00803303
0.00806734
0.00810194
0.00813685
0.00817205
0.00820756
0.00824336
0.00827948
0.00831589
0.00835262
0.00838965
0.00842699
0.00846465
0.00850262
0.0085409
0.0085795
0.00861841
0.00865765
0.00869721
0.00873708
0.00877729
0.00881781
0.00885867
0.00889985
0.00894136
0.0089832
0.00902538
0.00906789
0.00911074
0.00915392
0.00919744
0.00924131
0.00928551
0.00933006
0.00937496
0.0094202
0.00946579
0.00951173
0.00955802
0.00960466
0.00965166
0.00969901
0.00974672
0.00979479
0.00984323
0.00989202
0.00994118
0.0099907
0.0100406
0.0100908
0.0101415
0.0101925
0.0102438
0.0102956
0.0103477
0.0104002
0.0104531
0.0105064
0.01056
0.010614
0.0106684
0.0107232
0.0107784
0.010834
0.01089
0.0109463
0.0110031
0.0110602
0.0111178
0.0111757
0.0112341
0.0112928
0.011352
0.0114116
0.0114715
0.0115319
0.0115927
0.0116539
0.0117155
0.0117775
0.01184
0.0119029
0.0119661
0.0120298
0.012094
0.0121585
0.0122235
0.0122889
0.0123547
0.012421
0.0124877
0.0125548
0.0126223
0.0126903
0.0127588
0.0128276
0.0128969
0.0129667
0.0130369
0.0131075
0.0131786
0.0132501
0.0133221
0.0133945
0.0134674
0.0135408
0.0136146
0.0136888
0.0137635
0.0138387
0.0139143
0.0139904
0.0140669
0.014144
0.0142214
0.0142994
0.0143778
0.0144567
0.0145361
0.0146159
0.0146962
0.014777
0.0148583
0.01494
0.0150222
0.0151049
0.0151881
0.0152718
0.015356
0.0154406
0.0155258
0.0156114
0.0156975
0.0157841
0.0158712
0.0159588
0.0160469
0.0161355
0.0162246
0.0163142
0.0164043
0.0164949
0.016586
0.0166776
0.0167697
0.0168623
0.0169554
0.0170491
0.0171432
0.0172379
0.0173331
0.0174288
0.017525
0.0176217
0.017719
0.0178167
0.017915
0.0180138
0.0181132
0.018213
0.0183134
0.0184143
0.0185158
0.0186178
0.0187203
0.0188233
0.0189269
0.019031
0.0191356
0.0192408
0.0193465
0.0194527
0.0195595
0.0196668
0.0197747
0.0198831
0.019992
0.0201015
0.0202115
0.0203221
0.0204333
0.0205449
0.0206572
0.0207699
0.0208833
0.0209971
0.0211116
0.0212265
0.0213421
0.0214582
0.0215748
0.021692
0.0218098
0.0219281
0.022047
0.0221664
0.0222864
0.022407
0.0225281
0.0226498
0.022772
0.0228948
0.0230182
0.0231421
0.0232667
0.0233917
0.0235174
0.0236436
0.0237704
0.0238977
0.0240256
0.0241541
0.0242832
0.0244128
0.024543
0.0246738
0.0248052
0.0249371
0.0250696
0.0252027
0.0253363
0.0254706
0.0256054
0.0257408
0.0258767
0.0260133
0.0261504
0.0262881
0.0264263
0.0265652
0.0267046
0.0268447
0.0269852
0.0271264
0.0272682
0.0274105
0.0275534
0.0276969
0.027841
0.0279857
0.0281309
0.0282768
0.0284232
0.0285702
0.0287178
0.0288659
0.0290147
0.029164
0.0293139
0.0294644
0.0296155
0.0297671
0.0299194
0.0300722
0.0302256
0.0303796
0.0305342
0.0306894
0.0308451
0.0310014
0.0311584
0.0313158
0.0314739
0.0316326
0.0317918
0.0319517
0.0321121
0.032273
0.0324346
0.0325968
0.0327595
0.0329228
0.0330867
0.0332512
0.0334162
0.0335819
0.0337481
0.0339148
0.0340822
0.0342502
0.0344187
0.0345878
0.0347574
0.0349277
0.0350985
0.0352699
0.0354419
0.0356144
0.0357875
0.0359612
0.0361355
0.0363103
0.0364857
0.0366616
0.0368382
0.0370153
0.0371929
0.0373712
0.03755
0.0377293
0.0379093
0.0380898
0.0382708
0.0384524
0.0386346
0.0388173
0.0390006
0.0391845
0.0393689
0.0395538
0.0397393
0.0399254
0.040112
0.0402992
0.0404869
0.0406752
0.040864
0.0410533
0.0412432
0.0414337
0.0416247
0.0418162
0.0420083
0.0422009
0.042394
0.0425877
0.0427819
0.0429767
0.0431719
0.0433678
0.0435641
0.043761
0.0439584
0.0441563
0.0443547
0.0445537
0.0447532
0.0449532
0.0451537
0.0453547
0.0455563
0.0457583
0.0459609
0.046164
0.0463676
0.0465717
0.0467763
0.0469814
0.0471869
0.047393
0.0475996
0.0478067
0.0480143
0.0482224
0.0484309
0.04864
0.0488495
0.0490595
0.04927
0.049481
0.0496924
0.0499043
0.0501167
0.0503296
0.0505429
0.0507567
0.050971
0.0511857
0.0514009
0.0516165
0.0518326
0.0520492
0.0522662
0.0524836
0.0527015
0.0529199
0.0531386
0.0533579
0.0535775
0.0537976
0.0540181
0.0542391
0.0544605
0.0546823
0.0549045
0.0551271
0.0553502
0.0555737
0.0557976
0.0560219
0.0562466
0.0564717
0.0566972
0.0569231
0.0571494
0.0573761
0.0576032
0.0578306
0.0580585
0.0582867
0.0585153
0.0587443
0.0589737
0.0592035
0.0594336
0.059664
0.0598949
0.0601261
0.0603576
0.0605895
0.0608218
0.0610544
0.0612873
0.0615206
0.0617542
0.0619882
0.0622225
0.0624571
0.062692
0.0629273
0.0631629
0.0633988
0.063635
0.0638715
0.0641083
0.0643455
0.0645829
0.0648206
0.0650586
0.065297
0.0655356
0.0657744
0.0660136
0.066253
0.0664927
0.0667327
0.066973
0.0672135
0.0674543
0.0676953
0.0679366
0.0681781
0.0684199
0.0686619
0.0689041
0.0691466
0.0693893
0.0696323
0.0698754
0.0701188
0.0703624
0.0706062
0.0708503
0.0710945
0.0713389
0.0715836
0.0718284
0.0720734
0.0723186
0.072564
0.0728096
0.0730553
0.0733012
0.0735473
0.0737936
0.07404
0.0742865
0.0745332
0.0747801
0.0750271
0.0752743
0.0755215
0.075769
0.0760165
0.0762642
0.076512
0.0767599
0.0770079
0.0772561
0.0775043
0.0777526
0.0780011
0.0782496
0.0784982
0.0787469
0.0789957
0.0792446
0.0794935
0.0797425
0.0799916
0.0802407
0.0804899
0.0807391
0.0809884
0.0812378
0.0814871
0.0817365
0.081986
0.0822354
0.0824849
0.0827344
0.0829839
0.0832334
0.083483
0.0837325
0.083982
0.0842316
0.0844811
0.0847306
0.08498
0.0852295
0.0854789
0.0857283
0.0859777
0.086227
0.0864762
0.0867255
0.0869746
0.0872237
0.0874727
0.0877217
0.0879706
0.0882194
0.0884682
0.0887168
0.0889654
0.0892139
0.0894622
0.0897105
0.0899587
0.0902067
0.0904546
0.0907025
0.0909501
0.0911977
0.0914451
0.0916924
0.0919395
0.0921865
0.0924334
0.09268
0.0929266
0.0931729
0.0934191
0.0936651
0.0939109
0.0941566
0.094402
0.0946473
0.0948924
0.0951372
0.0953819
0.0956263
0.0958705
0.0961146
0.0963583
0.0966019
0.0968452
0.0970883
0.0973311
0.0975737
0.097816
0.0980581
0.0982999
0.0985415
0.0987827
0.0990237
0.0992645
0.0995049
0.099745
0.0999849
0.100224
0.100464
0.100703
0.100941
0.10118
0.101417
0.101655
0.101892
0.102129
0.102366
0.102602
0.102838
0.103074
0.103309
0.103544
0.103778
0.104013
0.104246
0.10448
0.104713
0.104945
0.105177
0.105409
0.10564
0.105871
0.106102
0.106332
0.106562
0.106791
0.10702
0.107248
0.107476
0.107703
0.10793
0.108157
0.108383
0.108609
0.108834
0.109058
0.109282
0.109506
0.109729
0.109952
0.110174
0.110396
0.110617
0.110837
0.111057
0.111277
0.111496
0.111714
0.111932
0.11215
0.112366
0.112583
0.112798
0.113013
0.113228
0.113442
0.113655
0.113868
0.11408
0.114291
0.114502
0.114713
0.114922
0.115131
0.11534
0.115548
0.115755
0.115961
0.116167
0.116372
0.116577
0.11678
0.116984
0.117186
0.117388
0.117589
0.117789
0.117989
0.118188
0.118386
0.118584
0.118781
0.118977
0.119172
0.119366
0.11956
0.119753
0.119946
0.120137
0.120328
0.120518
0.120707
0.120895
0.121083
0.12127
0.121456
0.121641
0.121825
0.122009
0.122191
0.122373
0.122554
0.122734
0.122913
0.123092
0.123269
0.123446
0.123621
0.123796
0.12397
0.124143
0.124315
0.124486
0.124656
0.124825
0.124994
0.125161
0.125327
0.125493
0.125657
0.12582
0.125983
0.126144
0.126304
0.126464
0.126622
0.126779
0.126936
0.127091
0.127245
0.127398
0.12755
0.127701
0.12785
0.127999
0.128147
0.128293
0.128438
0.128583
0.128726
0.128867
0.129008
0.129148
0.129286
0.129423
0.129559
0.129693
0.129827
0.129959
0.13009
0.13022
0.130348
0.130475
0.130601
0.130726
0.130849
0.130971
0.131092
0.131211
0.131329
0.131445
0.13156
0.131674
0.131786
0.131897
0.132007
0.132115
0.132222
0.132327
0.13243
0.132533
0.132633
0.132732
0.13283
0.132926
0.133021
0.133114
0.133205
0.133295
0.133383
0.133469
0.133554
0.133637
0.133719
0.133799
0.133877
0.133954
0.134028
0.134101
0.134172
0.134242
0.134309
0.134375
0.134439
0.134501
0.134561
0.13462
0.134676
0.134731
0.134783
0.134834
0.134883
0.134929
0.134974
0.135017
0.135057
0.135096
0.135132
0.135166
0.135199
0.135229
0.135256
0.135282
0.135306
0.135327
0.135346
0.135362
0.135377
0.135389
0.135398
0.135406
0.13541
0.135413
)
;

boundaryField
{
    sides
    {
        type            zeroGradient;
    }
    empty
    {
        type            empty;
    }
}


// ************************************************************************* //
