/*--------------------------------*- C++ -*----------------------------------*\
| =========                 |                                                 |
| \\      /  F ield         | OpenFOAM: The Open Source CFD Toolbox           |
|  \\    /   O peration     | Version:  2112                                  |
|   \\  /    A nd           | Website:  www.openfoam.com                      |
|    \\/     M anipulation  |                                                 |
\*---------------------------------------------------------------------------*/
FoamFile
{
    version     2.0;
    format      ascii;
    arch        "LSB;label=32;scalar=64";
    class       volScalarField;
    location    "5";
    object      T;
}
// * * * * * * * * * * * * * * * * * * * * * * * * * * * * * * * * * * * * * //

dimensions      [0 0 0 1 0 0 0];

internalField   nonuniform List<scalar> 
1000
(
5.73455e-42
6.56393e-42
8.34055e-42
1.13166e-41
1.59139e-41
2.27822e-41
3.28899e-41
4.76576e-41
6.91548e-41
1.00384e-40
1.45692e-40
2.11366e-40
3.06486e-40
4.44163e-40
6.43306e-40
9.31174e-40
1.34704e-39
1.94743e-39
2.81369e-39
4.06279e-39
5.86277e-39
8.45498e-39
1.21858e-38
1.75519e-38
2.52653e-38
3.63458e-38
5.22531e-38
7.50757e-38
1.07799e-37
1.54688e-37
2.21833e-37
3.17923e-37
4.55349e-37
6.51767e-37
9.32322e-37
1.3328e-36
1.90409e-36
2.71852e-36
3.87885e-36
5.5309e-36
7.88155e-36
1.12241e-35
1.59738e-35
2.2719e-35
3.22918e-35
4.58684e-35
6.51112e-35
9.2367e-35
1.30948e-34
1.85522e-34
2.62672e-34
3.71662e-34
5.25533e-34
7.42623e-34
1.0487e-33
1.47997e-33
2.08723e-33
2.94172e-33
4.1433e-33
5.83184e-33
8.20311e-33
1.15309e-32
1.61981e-32
2.27391e-32
3.19004e-32
4.47229e-32
6.26577e-32
8.77262e-32
1.22742e-31
1.7162e-31
2.39801e-31
3.34844e-31
4.67242e-31
6.51552e-31
9.07953e-31
1.2644e-30
1.75959e-30
2.44705e-30
3.4008e-30
4.72307e-30
6.55497e-30
9.09121e-30
1.26002e-29
1.74515e-29
2.41542e-29
3.34082e-29
4.6176e-29
6.37794e-29
8.80328e-29
1.21425e-28
1.67368e-28
2.30535e-28
3.17321e-28
4.36474e-28
5.99952e-28
8.24085e-28
1.13116e-27
1.55157e-27
2.12675e-27
2.91311e-27
3.98741e-27
5.45406e-27
7.45492e-27
1.01826e-26
1.38985e-26
1.89571e-26
2.58384e-26
3.51926e-26
4.78992e-26
6.51472e-26
8.85428e-26
1.20254e-25
1.63207e-25
2.21342e-25
2.9997e-25
4.06237e-25
5.49754e-25
7.43437e-25
1.00463e-24
1.35661e-24
1.83058e-24
2.46836e-24
3.32591e-24
4.47815e-24
6.02517e-24
8.10072e-24
1.08833e-23
1.4611e-23
1.96011e-23
2.62761e-23
3.51985e-23
4.71158e-23
6.30216e-23
8.42347e-23
1.12505e-22
1.50152e-22
2.00248e-22
2.66859e-22
3.55364e-22
4.72869e-22
6.28759e-22
8.35417e-22
1.10917e-21
1.47152e-21
1.95079e-21
2.5842e-21
3.42071e-21
4.52458e-21
5.98016e-21
7.89803e-21
1.04231e-20
1.3745e-20
1.81119e-20
2.3848e-20
3.13769e-20
4.12512e-20
5.41916e-20
7.1137e-20
9.33096e-20
1.22299e-19
1.60173e-19
2.09613e-19
2.74104e-19
3.58159e-19
4.6763e-19
6.10087e-19
7.95327e-19
1.03601e-18
1.34848e-18
1.75382e-18
2.27924e-18
2.95975e-18
3.84045e-18
4.97931e-18
6.45084e-18
8.3507e-18
1.08016e-17
1.39609e-17
1.803e-17
2.32668e-17
3.00009e-17
3.86535e-17
4.97622e-17
6.40127e-17
8.22788e-17
1.05673e-16
1.35612e-16
1.73893e-16
2.22803e-16
2.85243e-16
3.64888e-16
4.66398e-16
5.95671e-16
7.60163e-16
9.693e-16
1.23498e-15
1.57222e-15
1.99992e-15
2.54193e-15
3.22822e-15
4.09648e-15
5.19405e-15
6.58035e-15
8.32987e-15
1.0536e-14
1.33155e-14
1.68145e-14
2.12156e-14
2.67469e-14
3.36926e-14
4.24073e-14
5.33322e-14
6.70164e-14
8.41424e-14
1.05558e-13
1.32315e-13
1.65718e-13
2.07381e-13
2.59304e-13
3.23959e-13
4.04398e-13
5.04392e-13
6.28588e-13
7.82712e-13
9.73814e-13
1.21056e-12
1.50361e-12
1.86604e-12
2.31388e-12
2.86681e-12
3.54888e-12
4.38953e-12
5.42476e-12
6.69848e-12
8.2643e-12
1.01875e-11
1.25477e-11
1.54417e-11
1.89869e-11
2.33264e-11
2.86333e-11
3.51177e-11
4.3034e-11
5.269e-11
6.44575e-11
7.8786e-11
9.62173e-11
1.17405e-10
1.43135e-10
1.74356e-10
2.12204e-10
2.58046e-10
3.13522e-10
3.80597e-10
4.61624e-10
5.59419e-10
6.77348e-10
8.19428e-10
9.90456e-10
1.19614e-09
1.4433e-09
1.74001e-09
2.0959e-09
2.52239e-09
3.03304e-09
3.64389e-09
4.37395e-09
5.24571e-09
6.28573e-09
7.52538e-09
9.00163e-09
1.07581e-08
1.2846e-08
1.53257e-08
1.82681e-08
2.17563e-08
2.58878e-08
3.07768e-08
3.65569e-08
4.33844e-08
5.14417e-08
6.09417e-08
7.21324e-08
8.53028e-08
1.00789e-07
1.18981e-07
1.40332e-07
1.65369e-07
1.947e-07
2.2903e-07
2.69174e-07
3.16074e-07
3.70816e-07
4.34653e-07
5.09026e-07
5.95595e-07
6.96267e-07
8.13229e-07
9.48993e-07
1.10643e-06
1.28884e-06
1.49999e-06
1.74416e-06
2.02627e-06
2.3519e-06
2.72742e-06
3.16007e-06
3.65807e-06
4.23076e-06
4.88872e-06
5.64393e-06
6.50997e-06
7.50216e-06
8.6378e-06
9.93642e-06
1.142e-05
1.31133e-05
1.50441e-05
1.72437e-05
1.97471e-05
2.25936e-05
2.58272e-05
2.94969e-05
3.36576e-05
3.83707e-05
4.37044e-05
4.97345e-05
5.65456e-05
6.42315e-05
7.28963e-05
8.26553e-05
9.36362e-05
0.00010598
0.000119843
0.000135397
0.000152832
0.000172356
0.000194199
0.000218613
0.000245873
0.000276283
0.000310174
0.000347908
0.00038988
0.000436522
0.000488302
0.000545732
0.000609366
0.000679806
0.000757706
0.00084377
0.000938764
0.00104351
0.0011589
0.00128589
0.00142552
0.00157888
0.00174717
0.00193166
0.00213371
0.00235478
0.00259643
0.0028603
0.00314817
0.00346191
0.00380351
0.00417507
0.00457884
0.00501718
0.00549257
0.00600764
0.00656516
0.00716804
0.00781933
0.00852221
0.00928004
0.0100963
0.0109746
0.0119188
0.0129328
0.0140207
0.0151867
0.0164353
0.0177708
0.019198
0.0207217
0.0223467
0.0240782
0.0259212
0.0278809
0.0299628
0.0321723
0.0345147
0.0369958
0.039621
0.0423961
0.0453265
0.0484181
0.0516763
0.0551067
0.0587149
0.0625063
0.0664863
0.07066
0.0750325
0.0796088
0.0843935
0.0893912
0.0946061
0.100042
0.105703
0.111593
0.117714
0.124069
0.130661
0.137492
0.144562
0.151874
0.159428
0.167223
0.175261
0.183539
0.192057
0.200813
0.209804
0.219028
0.22848
0.238157
0.248055
0.258167
0.268488
0.279012
0.289732
0.300641
0.31173
0.322992
0.334417
0.345995
0.357717
0.369573
0.381551
0.393641
0.405831
0.418109
0.430463
0.442881
0.455349
0.467855
0.480386
0.492929
0.50547
0.517995
0.530492
0.542946
0.555345
0.567675
0.579922
0.592074
0.604117
0.616039
0.627826
0.639468
0.650951
0.662263
0.673393
0.684331
0.695064
0.705583
0.715877
0.725937
0.735753
0.745316
0.754618
0.763651
0.772406
0.780877
0.789057
0.796938
0.804516
0.811784
0.818736
0.825368
0.831676
0.837654
0.843299
0.848607
0.853575
0.8582
0.862479
0.86641
0.86999
0.873217
0.87609
0.878607
0.880767
0.882568
0.884011
0.885093
0.885815
0.886176
0.886176
0.885815
0.885093
0.884011
0.882568
0.880767
0.878607
0.87609
0.873217
0.86999
0.86641
0.862479
0.8582
0.853575
0.848607
0.843299
0.837654
0.831676
0.825368
0.818736
0.811784
0.804516
0.796938
0.789057
0.780877
0.772406
0.763651
0.754618
0.745316
0.735753
0.725937
0.715877
0.705583
0.695064
0.684331
0.673393
0.662263
0.650951
0.639468
0.627826
0.616039
0.604117
0.592074
0.579922
0.567675
0.555345
0.542946
0.530492
0.517995
0.50547
0.492929
0.480386
0.467855
0.455349
0.442881
0.430463
0.418109
0.405831
0.393641
0.381551
0.369573
0.357717
0.345995
0.334417
0.322992
0.31173
0.300641
0.289732
0.279012
0.268488
0.258167
0.248055
0.238157
0.22848
0.219028
0.209804
0.200813
0.192057
0.183539
0.175261
0.167223
0.159428
0.151874
0.144562
0.137492
0.130661
0.124069
0.117714
0.111593
0.105703
0.100042
0.0946061
0.0893912
0.0843935
0.0796088
0.0750325
0.07066
0.0664863
0.0625063
0.0587149
0.0551067
0.0516763
0.0484181
0.0453265
0.0423961
0.039621
0.0369958
0.0345147
0.0321723
0.0299628
0.0278809
0.0259212
0.0240782
0.0223467
0.0207217
0.019198
0.0177708
0.0164353
0.0151867
0.0140207
0.0129328
0.0119188
0.0109746
0.0100963
0.00928004
0.00852221
0.00781933
0.00716804
0.00656516
0.00600764
0.00549257
0.00501718
0.00457884
0.00417507
0.00380351
0.00346191
0.00314817
0.0028603
0.00259643
0.00235478
0.00213371
0.00193166
0.00174717
0.00157888
0.00142552
0.00128589
0.0011589
0.00104351
0.000938764
0.00084377
0.000757706
0.000679806
0.000609366
0.000545732
0.000488302
0.000436522
0.00038988
0.000347908
0.000310174
0.000276283
0.000245873
0.000218613
0.000194199
0.000172356
0.000152832
0.000135397
0.000119843
0.00010598
9.36362e-05
8.26553e-05
7.28963e-05
6.42315e-05
5.65456e-05
4.97345e-05
4.37044e-05
3.83707e-05
3.36576e-05
2.94969e-05
2.58272e-05
2.25936e-05
1.97471e-05
1.72437e-05
1.50441e-05
1.31133e-05
1.142e-05
9.93642e-06
8.6378e-06
7.50216e-06
6.50997e-06
5.64393e-06
4.88872e-06
4.23076e-06
3.65807e-06
3.16007e-06
2.72742e-06
2.3519e-06
2.02627e-06
1.74416e-06
1.49999e-06
1.28884e-06
1.10643e-06
9.48993e-07
8.13229e-07
6.96267e-07
5.95595e-07
5.09026e-07
4.34653e-07
3.70816e-07
3.16074e-07
2.69174e-07
2.2903e-07
1.947e-07
1.65369e-07
1.40332e-07
1.18981e-07
1.00789e-07
8.53028e-08
7.21324e-08
6.09417e-08
5.14417e-08
4.33844e-08
3.65569e-08
3.07768e-08
2.58878e-08
2.17563e-08
1.82681e-08
1.53257e-08
1.2846e-08
1.07581e-08
9.00163e-09
7.52538e-09
6.28573e-09
5.24571e-09
4.37395e-09
3.64389e-09
3.03304e-09
2.52239e-09
2.0959e-09
1.74001e-09
1.4433e-09
1.19614e-09
9.90456e-10
8.19428e-10
6.77348e-10
5.59419e-10
4.61624e-10
3.80597e-10
3.13522e-10
2.58046e-10
2.12204e-10
1.74356e-10
1.43135e-10
1.17405e-10
9.62173e-11
7.8786e-11
6.44575e-11
5.269e-11
4.3034e-11
3.51177e-11
2.86333e-11
2.33264e-11
1.89869e-11
1.54417e-11
1.25477e-11
1.01875e-11
8.2643e-12
6.69848e-12
5.42476e-12
4.38953e-12
3.54888e-12
2.86681e-12
2.31388e-12
1.86604e-12
1.50361e-12
1.21056e-12
9.73814e-13
7.82712e-13
6.28588e-13
5.04392e-13
4.04398e-13
3.23959e-13
2.59304e-13
2.07381e-13
1.65718e-13
1.32315e-13
1.05558e-13
8.41424e-14
6.70164e-14
5.33322e-14
4.24073e-14
3.36926e-14
2.67469e-14
2.12156e-14
1.68145e-14
1.33155e-14
1.0536e-14
8.32987e-15
6.58035e-15
5.19405e-15
4.09648e-15
3.22822e-15
2.54193e-15
1.99992e-15
1.57222e-15
1.23498e-15
9.693e-16
7.60163e-16
5.95671e-16
4.66398e-16
3.64888e-16
2.85243e-16
2.22803e-16
1.73893e-16
1.35612e-16
1.05673e-16
8.22788e-17
6.40127e-17
4.97622e-17
3.86535e-17
3.00009e-17
2.32668e-17
1.803e-17
1.39609e-17
1.08016e-17
8.3507e-18
6.45084e-18
4.97931e-18
3.84045e-18
2.95975e-18
2.27924e-18
1.75382e-18
1.34848e-18
1.03601e-18
7.95327e-19
6.10087e-19
4.6763e-19
3.58159e-19
2.74104e-19
2.09613e-19
1.60173e-19
1.22299e-19
9.33096e-20
7.1137e-20
5.41916e-20
4.12512e-20
3.13769e-20
2.3848e-20
1.81119e-20
1.3745e-20
1.04231e-20
7.89803e-21
5.98016e-21
4.52458e-21
3.42071e-21
2.5842e-21
1.95079e-21
1.47152e-21
1.10917e-21
8.35417e-22
6.28759e-22
4.72869e-22
3.55364e-22
2.66859e-22
2.00248e-22
1.50152e-22
1.12505e-22
8.42347e-23
6.30216e-23
4.71158e-23
3.51985e-23
2.62761e-23
1.96011e-23
1.4611e-23
1.08833e-23
8.10072e-24
6.02517e-24
4.47815e-24
3.32591e-24
2.46836e-24
1.83058e-24
1.35661e-24
1.00463e-24
7.43437e-25
5.49754e-25
4.06237e-25
2.9997e-25
2.21342e-25
1.63207e-25
1.20254e-25
8.85428e-26
6.51472e-26
4.78992e-26
3.51926e-26
2.58384e-26
1.89571e-26
1.38985e-26
1.01826e-26
7.45492e-27
5.45406e-27
3.98741e-27
2.91311e-27
2.12675e-27
1.55157e-27
1.13116e-27
8.24085e-28
5.99952e-28
4.36474e-28
3.17321e-28
2.30535e-28
1.67368e-28
1.21425e-28
8.80328e-29
6.37794e-29
4.6176e-29
3.34082e-29
2.41542e-29
1.74515e-29
1.26002e-29
9.09121e-30
6.55497e-30
4.72307e-30
3.4008e-30
2.44705e-30
1.75959e-30
1.2644e-30
9.07953e-31
6.51552e-31
4.67242e-31
3.34844e-31
2.39801e-31
1.7162e-31
1.22742e-31
8.77262e-32
6.26577e-32
4.47229e-32
3.19004e-32
2.27391e-32
1.61981e-32
1.15309e-32
8.20311e-33
5.83184e-33
4.1433e-33
2.94172e-33
2.08723e-33
1.47997e-33
1.0487e-33
7.42623e-34
5.25533e-34
3.71662e-34
2.62672e-34
1.85522e-34
1.30948e-34
9.2367e-35
6.51112e-35
4.58684e-35
3.22918e-35
2.2719e-35
1.59738e-35
1.12241e-35
7.88155e-36
5.5309e-36
3.87885e-36
2.71852e-36
1.90409e-36
1.3328e-36
9.32322e-37
6.51767e-37
4.55349e-37
3.17923e-37
2.21833e-37
1.54688e-37
1.07799e-37
7.50757e-38
5.22531e-38
3.63458e-38
2.52653e-38
1.75519e-38
1.21858e-38
8.45498e-39
5.86277e-39
4.06279e-39
2.81369e-39
1.94743e-39
1.34704e-39
9.31174e-40
6.43306e-40
4.44163e-40
3.06486e-40
2.11366e-40
1.45692e-40
1.00384e-40
6.91548e-41
4.76576e-41
3.28899e-41
2.27822e-41
1.59139e-41
1.13166e-41
8.34055e-42
6.56393e-42
5.73455e-42
)
;

boundaryField
{
    sides
    {
        type            zeroGradient;
    }
    empty
    {
        type            empty;
    }
}


// ************************************************************************* //
