/*--------------------------------*- C++ -*----------------------------------*\
| =========                 |                                                 |
| \\      /  F ield         | OpenFOAM: The Open Source CFD Toolbox           |
|  \\    /   O peration     | Version:  2112                                  |
|   \\  /    A nd           | Website:  www.openfoam.com                      |
|    \\/     M anipulation  |                                                 |
\*---------------------------------------------------------------------------*/
FoamFile
{
    version     2.0;
    format      ascii;
    arch        "LSB;label=32;scalar=64";
    class       volScalarField;
    location    "1.5";
    object      p;
}
// * * * * * * * * * * * * * * * * * * * * * * * * * * * * * * * * * * * * * //

dimensions      [0 2 -2 0 0 0 0];

internalField   nonuniform List<scalar> 
8800
(
1.41164
1.36514
1.33168
1.30607
1.28727
1.27349
1.2637
1.25845
1.25368
1.25118
1.2522
1.2562
1.2614
1.26863
1.28046
1.29655
1.31854
1.34809
1.38636
1.44461
1.25298
1.25814
1.2622
1.26347
1.26135
1.25574
1.24883
1.24169
1.23596
1.23242
1.23172
1.23421
1.23906
1.24589
1.253
1.2595
1.26365
1.2635
1.26164
1.25562
1.24658
1.24934
1.25109
1.25131
1.25027
1.24779
1.24462
1.24059
1.23714
1.23534
1.23615
1.23915
1.2432
1.24687
1.24997
1.25186
1.25231
1.25141
1.24918
1.24752
1.23832
1.23846
1.23866
1.23871
1.23829
1.23727
1.23544
1.23323
1.23117
1.23005
1.23068
1.23269
1.23513
1.23742
1.23888
1.23967
1.23984
1.23969
1.23951
1.23944
1.22791
1.22799
1.22796
1.22778
1.22736
1.22658
1.22543
1.22404
1.22274
1.22209
1.22262
1.22402
1.22567
1.22714
1.22822
1.22888
1.2292
1.2293
1.22928
1.22922
1.2182
1.21824
1.21823
1.21814
1.21792
1.21753
1.21692
1.21618
1.21547
1.21515
1.21561
1.21661
1.21768
1.21859
1.21923
1.21962
1.21981
1.21989
1.21989
1.21986
1.2089
1.20892
1.20891
1.20885
1.20874
1.20853
1.20823
1.20787
1.20755
1.20751
1.20796
1.20871
1.20945
1.21006
1.21048
1.21075
1.21089
1.21095
1.21096
1.21095
1.19982
1.19983
1.19983
1.19981
1.19977
1.19969
1.19958
1.19947
1.19942
1.19959
1.20008
1.20071
1.20128
1.20173
1.20204
1.20223
1.20234
1.20239
1.2024
1.20239
1.19085
1.19085
1.19086
1.19086
1.19087
1.19088
1.1909
1.19097
1.19113
1.19149
1.19205
1.19265
1.19316
1.19353
1.19379
1.19395
1.19404
1.19408
1.1941
1.19409
1.18187
1.18187
1.18189
1.18192
1.18196
1.18204
1.18217
1.18238
1.18272
1.18326
1.18395
1.18459
1.1851
1.18547
1.18571
1.18586
1.18595
1.18599
1.186
1.186
1.17283
1.17283
1.17286
1.1729
1.17299
1.17313
1.17335
1.1737
1.17422
1.17496
1.17582
1.17657
1.17713
1.17753
1.17779
1.17795
1.17804
1.17809
1.1781
1.17809
1.16367
1.16367
1.1637
1.16377
1.16389
1.1641
1.16442
1.16491
1.16562
1.16661
1.16769
1.1686
1.16927
1.16973
1.17004
1.17022
1.17033
1.17038
1.1704
1.17039
1.15431
1.15431
1.15435
1.15444
1.15461
1.15489
1.15533
1.15599
1.15694
1.15822
1.1596
1.16073
1.16155
1.16212
1.16248
1.16271
1.16284
1.1629
1.16293
1.16292
1.14468
1.14469
1.14474
1.14487
1.14509
1.14546
1.14604
1.1469
1.14814
1.14979
1.15156
1.15299
1.15402
1.15472
1.15517
1.15545
1.15561
1.15569
1.15572
1.15571
1.13471
1.13471
1.13479
1.13495
1.13524
1.13572
1.13648
1.13761
1.13921
1.14134
1.14359
1.14541
1.14671
1.14759
1.14816
1.14851
1.14871
1.14882
1.14886
1.14884
1.12427
1.12427
1.12437
1.12458
1.12496
1.12559
1.12658
1.12805
1.13012
1.13286
1.13574
1.13805
1.13969
1.14081
1.14153
1.14197
1.14223
1.14235
1.1424
1.14238
1.11321
1.11322
1.11335
1.11363
1.11413
1.11495
1.11624
1.11815
1.12083
1.12435
1.12803
1.13096
1.13305
1.13446
1.13537
1.13593
1.13625
1.13641
1.13647
1.13645
1.10135
1.10136
1.10154
1.1019
1.10256
1.10365
1.10534
1.10782
1.11128
1.11581
1.1205
1.12423
1.12687
1.12865
1.1298
1.13051
1.13091
1.13111
1.13119
1.13116
1.08841
1.08843
1.08867
1.08916
1.09003
1.09147
1.09369
1.09694
1.10143
1.10724
1.11322
1.11794
1.12128
1.12353
1.12498
1.12587
1.12637
1.12663
1.12673
1.12669
1.07402
1.07406
1.07439
1.07505
1.07623
1.07816
1.0811
1.08537
1.09121
1.09866
1.10626
1.11222
1.11642
1.11925
1.12108
1.1222
1.12284
1.12316
1.12328
1.12323
1.05766
1.05773
1.05818
1.0591
1.06072
1.06334
1.06729
1.07294
1.08055
1.0901
1.09971
1.10719
1.11246
1.11602
1.11832
1.11973
1.12054
1.12095
1.1211
1.12104
1.03852
1.03865
1.03931
1.04063
1.04291
1.04654
1.05193
1.05947
1.0694
1.0816
1.09366
1.103
1.10958
1.11405
1.11695
1.11875
1.11978
1.1203
1.12049
1.12042
1.01538
1.01563
1.01664
1.01862
1.02196
1.02714
1.03464
1.0448
1.05776
1.07324
1.08825
1.09979
1.10796
1.11357
1.11726
1.11957
1.12092
1.1216
1.12186
1.12177
0.986117
0.986631
0.988338
0.991518
0.9967
1.00441
1.01506
1.02886
1.04573
1.06517
1.08358
1.09766
1.10773
1.11476
1.11952
1.12258
1.12441
1.12538
1.12576
1.12565
0.946795
0.947992
0.951321
0.957082
0.965745
0.977681
0.993062
1.01181
1.03353
1.05756
1.07974
1.09663
1.10886
1.11766
1.12387
1.12811
1.13082
1.13236
1.13303
1.13293
0.88916
0.892918
0.901156
0.912943
0.928252
0.947053
0.96917
0.994233
1.02165
1.05068
1.07678
1.09655
1.11112
1.12198
1.13009
1.13611
1.14045
1.14341
1.14504
1.14507
0.792877
0.816246
0.837354
0.860688
0.886293
0.914309
0.944618
0.976807
1.01029
1.04439
1.07434
1.097
1.11405
1.12729
1.13783
1.14641
1.15354
1.15951
1.16452
1.16813
0.696149
0.741681
0.77551
0.810007
0.845676
0.882687
0.920902
0.959953
0.999278
1.03827
1.07194
1.0974
1.11685
1.13241
1.1453
1.15627
1.16586
1.1743
1.18246
1.1904
0.635533
0.682867
0.723694
0.766011
0.809645
0.854307
0.899567
0.944828
0.989319
1.03226
1.06838
1.09524
1.11569
1.13207
1.14561
1.15701
1.16677
1.1752
1.18303
1.1897
0.587574
0.638938
0.68331
0.730205
0.779265
0.829801
0.880911
0.931527
0.980405
1.02635
1.06368
1.0906
1.1107
1.12665
1.13975
1.15073
1.16006
1.1681
1.17562
1.18157
0.548869
0.602081
0.649569
0.700264
0.753723
0.809075
0.865104
0.92029
0.972832
1.02084
1.05817
1.08387
1.10251
1.11714
1.12917
1.13932
1.148
1.15554
1.16253
1.16798
0.515078
0.570505
0.620528
0.674405
0.731648
0.791193
0.851579
0.910848
0.966551
1.01594
1.05222
1.07552
1.09163
1.10412
1.11452
1.12348
1.13132
1.13828
1.14455
1.14955
0.484693
0.542084
0.594514
0.651319
0.712006
0.775412
0.839846
0.902939
0.961565
1.0119
1.04628
1.06602
1.07848
1.08792
1.09601
1.10333
1.11006
1.11622
1.12198
1.12655
0.456167
0.515688
0.57038
0.629998
0.693951
0.761048
0.829399
0.896279
0.957847
1.00902
1.04086
1.05587
1.0634
1.06866
1.07362
1.07875
1.08401
1.08925
1.09431
1.09851
0.428975
0.49042
0.547356
0.609688
0.676824
0.747544
0.819803
0.890566
0.955311
1.00755
1.03651
1.04568
1.04676
1.0464
1.04709
1.04925
1.05256
1.05658
1.06095
1.0646
0.401958
0.465667
0.524829
0.589841
0.660125
0.734416
0.810627
0.885478
0.953819
1.00769
1.03386
1.03617
1.02902
1.02118
1.01605
1.01414
1.01481
1.01722
1.02069
1.02385
0.375232
0.440967
0.502405
0.570071
0.643454
0.721303
0.801517
0.880666
0.95315
1.00955
1.03355
1.02825
1.01088
0.993128
0.980057
0.972513
0.969552
0.969786
0.972009
0.974928
0.348258
0.416222
0.47984
0.550103
0.626546
0.707918
0.792153
0.875822
0.953016
1.01309
1.03614
1.02304
0.993351
0.962595
0.93862
0.923238
0.915224
0.912535
0.913272
0.915439
0.321191
0.391205
0.457014
0.529832
0.609209
0.69404
0.782281
0.870585
0.95301
1.0181
1.04209
1.02184
0.977892
0.930273
0.891324
0.864904
0.849796
0.843025
0.841757
0.843268
0.293675
0.365871
0.433868
0.509167
0.591426
0.679568
0.771718
0.86469
0.952754
1.02416
1.05158
1.02601
0.966502
0.897382
0.837807
0.795775
0.770671
0.758324
0.754517
0.755487
0.265957
0.34034
0.410446
0.48816
0.573159
0.664452
0.760353
0.857905
0.951826
1.0307
1.06441
1.03677
0.961705
0.865844
0.777724
0.713359
0.674477
0.654681
0.648117
0.648571
0.237857
0.314645
0.386839
0.466887
0.55446
0.648738
0.748149
0.85008
0.949845
1.037
1.07992
1.05495
0.966542
0.838557
0.710369
0.612066
0.555471
0.528642
0.51948
0.52005
0.210013
0.289022
0.363207
0.445448
0.535484
0.632496
0.735112
0.841129
0.946524
1.04234
1.09698
1.08048
0.984187
0.819578
0.635846
0.482965
0.402947
0.37143
0.364025
0.367767
0.182532
0.263558
0.339665
0.424015
0.516328
0.61583
0.721391
0.831088
0.941696
1.04601
1.11404
1.11213
1.0173
0.814602
0.540677
0.301104
0.185798
0.16897
0.182399
0.197658
0.155086
0.238396
0.316387
0.402728
0.497125
0.598892
0.707065
0.82002
0.935276
1.04753
1.1294
1.14711
1.06663
0.832828
0.424513
-0.0146527
-0.18753
-0.109464
0.00139441
0.0479502
0.128226
0.213707
0.293587
0.38176
0.478014
0.581842
0.692303
0.808077
0.92732
1.04656
1.14153
1.18136
1.12868
0.884964
0.260393
-0.731485
-1.0794
-0.572182
-0.11335
0.0196047
0.101684
0.189565
0.271394
0.361219
0.45907
0.564679
0.677088
0.795209
0.917834
1.04294
1.14933
1.21088
1.1951
0.975682
0.0979004
-1.99781
-2.7754
-1.22736
-0.146741
0.320571
0.0755164
0.16617
0.249748
0.340897
0.440048
0.547105
0.661054
0.781018
0.906358
1.03615
1.15184
1.23196
1.25377
1.11306
0.309914
-1.75526
-2.41369
-1.65939
-0.841537
-0.341656
0.0497875
0.144243
0.228985
0.320988
0.421221
0.529575
0.644498
0.765869
0.893109
1.0261
1.14785
1.2396
1.28275
1.19528
0.677149
-0.396867
-0.859648
-0.704769
-0.520988
-0.311044
0.0231368
0.124869
0.210013
0.302353
0.403302
0.512464
0.627887
0.750592
0.878835
1.013
1.13691
1.23182
1.27929
1.21934
0.916609
0.36068
-0.0174363
-0.119482
-0.083605
-0.0901746
-0.0966526
0.107439
0.19185
0.283672
0.385077
0.494715
0.611272
0.73463
0.863177
0.997029
1.12027
1.21385
1.25695
1.19791
0.970632
0.608172
0.321784
0.145586
0.0653042
0.0104016
0.0688739
0.0870566
0.164249
0.255752
0.358277
0.468977
0.585867
0.709062
0.836554
0.967873
1.0836
1.15899
1.17586
1.10062
0.911239
0.629812
0.396068
0.212358
0.0773669
0.0260175
-0.0114783
0.063117
0.141943
0.234514
0.337454
0.448335
0.565641
0.688332
0.815722
0.946139
1.05725
1.12198
1.12313
1.03804
0.857984
0.585323
0.343066
0.142675
-0.0271691
-0.077197
-0.0552358
0.03083
0.114923
0.209757
0.31342
0.425756
0.545123
0.669747
0.796826
0.922599
1.02384
1.07408
1.05554
0.950361
0.759619
0.486481
0.210964
-0.0222581
-0.26123
-0.27124
-0.0989481
-0.00361893
0.0862007
0.184522
0.290628
0.404189
0.523044
0.645374
0.769344
0.891749
0.98714
1.02736
0.997786
0.883579
0.681102
0.391061
0.0490739
-0.269623
-0.651053
-0.67559
-0.140656
-0.0374357
0.0568451
0.157143
0.26485
0.379162
0.499063
0.62288
0.747418
0.8668
0.954549
0.984333
0.944365
0.823706
0.611459
0.316908
-0.102366
-0.545254
-1.13686
-1.53008
-0.179274
-0.0721614
0.0254383
0.129075
0.239321
0.355435
0.476154
0.599095
0.721431
0.83721
0.919201
0.942262
0.897809
0.778197
0.567893
0.27962
-0.164594
-0.746619
-1.20138
-1.75584
-0.214739
-0.106041
-0.00627211
0.0992048
0.210864
0.327782
0.449106
0.572546
0.694703
0.808357
0.886048
0.904993
0.860921
0.749875
0.567281
0.296788
-0.0607358
-0.538457
-1.02028
-1.11885
-0.246086
-0.140286
-0.0404343
0.0665866
0.17997
0.29871
0.421389
0.545391
0.666944
0.778577
0.853379
0.871631
0.833772
0.742308
0.600947
0.403057
0.1404
-0.187289
-0.514508
-0.52074
-0.28009
-0.174749
-0.0749112
0.0331487
0.147903
0.268049
0.391832
0.516508
0.637951
0.748583
0.822715
0.844141
0.81839
0.754882
0.664802
0.559915
0.446171
0.338805
0.294724
0.308245
-0.317566
-0.211853
-0.111532
-0.00232317
0.114021
0.23591
0.361079
0.486659
0.608428
0.719231
0.794767
0.82297
0.813391
0.779733
0.736298
0.697186
0.674399
0.676015
0.704063
0.729646
-0.359267
-0.251418
-0.14971
-0.0390246
0.0790414
0.202609
0.329253
0.45603
0.578763
0.691029
0.770077
0.808066
0.816225
0.809379
0.800381
0.798638
0.808966
0.831483
0.861447
0.880134
-0.403447
-0.293315
-0.189641
-0.0770039
0.0429358
0.168369
0.296728
0.425057
0.549423
0.664423
0.749041
0.798286
0.823591
0.838636
0.852808
0.870974
0.894093
0.920391
0.946674
0.96196
-0.449799
-0.336874
-0.230738
-0.115938
0.00612939
0.133583
0.263889
0.394191
0.520951
0.63963
0.732416
0.792126
0.832785
0.864553
0.893864
0.923162
0.952502
0.980737
1.00626
1.02037
-0.496768
-0.381069
-0.272416
-0.155218
-0.0308001
0.0988212
0.231319
0.363947
0.493649
0.617001
0.717787
0.789057
0.841941
0.885833
0.924878
0.960715
0.993433
1.0227
1.04775
1.06095
-0.543395
-0.424724
-0.313615
-0.193947
-0.0671779
0.06474
0.199584
0.334795
0.467857
0.596582
0.705205
0.786388
0.849313
0.901795
0.94714
0.98681
1.02135
1.05112
1.07581
1.08871
-0.587017
-0.466445
-0.353073
-0.231073
-0.102008
0.0321788
0.169327
0.30719
0.443744
0.577791
0.693725
0.783442
0.853979
0.912319
0.961643
1.00352
1.03901
1.06881
1.09306
1.10582
-0.626882
-0.504819
-0.389282
-0.265214
-0.134189
0.00201509
0.141266
0.281555
0.421338
0.560236
0.682803
0.779049
0.855106
0.917384
0.96909
1.01225
1.04808
1.07777
1.10152
1.11425
-0.661518
-0.537761
-0.420618
-0.294932
-0.162346
-0.0246688
0.116138
0.258252
0.400596
0.543445
0.671104
0.772149
0.852003
0.916744
0.969887
1.01361
1.0496
1.07909
1.10216
1.11505
-0.68737
-0.563024
-0.444828
-0.318313
-0.184945
-0.0466385
0.0947498
0.237635
0.381457
0.526763
0.65779
0.761873
0.843969
0.910125
0.963982
1.00798
1.04393
1.07328
1.09575
1.10849
-0.701951
-0.577708
-0.459429
-0.333077
-0.200184
-0.0626223
0.0778819
0.220158
0.363732
0.509593
0.641874
0.747232
0.83023
0.896939
0.951022
0.995049
1.03093
1.0602
1.08242
1.09509
-0.701527
-0.578066
-0.460862
-0.336294
-0.205728
-0.0709428
0.0666594
0.206082
0.347243
0.491251
0.622421
0.72715
0.809744
0.876154
0.930028
0.973913
1.00965
1.03887
1.06079
1.07354
-0.679691
-0.558715
-0.444877
-0.32451
-0.198885
-0.0696398
0.0621621
0.195925
0.331822
0.47111
0.598434
0.70036
0.781008
0.846121
0.899204
0.942665
0.978207
1.00741
1.02906
1.042
-0.625414
-0.513024
-0.406005
-0.29332
-0.176563
-0.0568021
0.0654659
0.190089
0.317413
0.448608
0.568944
0.665459
0.742067
0.804285
0.855491
0.897856
0.932947
0.962015
0.983555
0.99716
-0.532431
-0.431597
-0.337255
-0.238445
-0.136397
-0.0312101
0.0771124
0.188689
0.303847
0.423366
0.533218
0.621119
0.690741
0.747356
0.794226
0.83342
0.86627
0.893967
0.916039
0.930326
-0.3749
-0.303814
-0.233412
-0.157893
-0.077818
0.00707936
0.0968847
0.191565
0.291008
0.39525
0.491016
0.566823
0.625812
0.672849
0.711038
0.74231
0.767665
0.78765
0.803554
0.813111
-0.148857
-0.127029
-0.0952548
-0.0541719
-0.00388122
0.0554327
0.123306
0.199143
0.282206
0.371649
0.454692
0.520034
0.569875
0.608219
0.637843
0.660887
0.679165
0.693745
0.704356
0.709521
0.00749006
0.0125087
0.0230737
0.0410709
0.0681268
0.105242
0.152749
0.210364
0.277292
0.352275
0.423369
0.479279
0.5211
0.552189
0.574938
0.591033
0.60169
0.608093
0.611484
0.612979
0.0854063
0.0877893
0.0936756
0.104255
0.120931
0.145226
0.178465
0.221407
0.274002
0.33526
0.394555
0.441217
0.475553
0.500269
0.517537
0.529157
0.536626
0.541112
0.543445
0.544327
0.133112
0.134764
0.13851
0.145325
0.156463
0.173314
0.197262
0.229453
0.270417
0.319678
0.368282
0.406623
0.434528
0.454253
0.467757
0.476656
0.482236
0.485503
0.487201
0.487898
0.163583
0.164779
0.167422
0.172191
0.180032
0.192108
0.209706
0.234022
0.265844
0.305073
0.344406
0.375545
0.39808
0.413834
0.424476
0.431404
0.435712
0.438229
0.439545
0.440091
0.182506
0.18339
0.185317
0.188786
0.194516
0.203426
0.216591
0.235116
0.259847
0.290906
0.322462
0.347556
0.365666
0.378255
0.386707
0.392179
0.395568
0.397543
0.398579
0.399009
0.1933
0.193967
0.195406
0.197994
0.202276
0.208971
0.218956
0.233175
0.252421
0.276934
0.302106
0.322208
0.336712
0.346766
0.353493
0.357836
0.360521
0.362084
0.362905
0.363246
0.198151
0.198658
0.19975
0.20171
0.204959
0.21006
0.217707
0.228685
0.243693
0.263005
0.283001
0.29904
0.310619
0.318638
0.323998
0.327452
0.329586
0.330828
0.331481
0.33175
0.198561
0.198951
0.199787
0.201288
0.20378
0.207698
0.213598
0.222114
0.233836
0.249038
0.264884
0.27764
0.286861
0.293247
0.297511
0.300262
0.30196
0.302948
0.303465
0.303678
0.195606
0.195906
0.196551
0.19771
0.199634
0.202665
0.20724
0.21387
0.22304
0.235001
0.247533
0.257654
0.264982
0.27006
0.273453
0.275637
0.276982
0.277765
0.278176
0.278345
0.190072
0.190306
0.190806
0.191704
0.193197
0.195552
0.199114
0.204288
0.211472
0.220882
0.230781
0.2388
0.244613
0.248642
0.251333
0.253066
0.254138
0.25476
0.255084
0.255216
0.182553
0.182734
0.183123
0.183822
0.184984
0.186819
0.189599
0.193646
0.199279
0.206681
0.214493
0.220835
0.225437
0.228632
0.230768
0.232143
0.232989
0.233482
0.233741
0.233845
0.173491
0.173633
0.173936
0.174482
0.175388
0.176822
0.178995
0.182164
0.186584
0.192405
0.198565
0.203575
0.207216
0.209743
0.211432
0.212522
0.213195
0.213585
0.213788
0.21387
0.163231
0.163341
0.163578
0.164004
0.164713
0.165834
0.167535
0.170019
0.173487
0.178065
0.182917
0.186871
0.189748
0.191746
0.193082
0.19394
0.194468
0.194775
0.194936
0.195
0.152034
0.15212
0.152305
0.152638
0.153193
0.154071
0.155403
0.157349
0.160072
0.163669
0.167488
0.170603
0.17287
0.174446
0.175499
0.176178
0.176598
0.176841
0.176967
0.177018
0.140107
0.140175
0.14032
0.140581
0.141014
0.1417
0.142744
0.14427
0.146406
0.149229
0.152232
0.154683
0.156467
0.157707
0.158538
0.159073
0.159403
0.159595
0.159696
0.159736
0.127609
0.127661
0.127774
0.127978
0.128318
0.128855
0.129671
0.130864
0.132535
0.134749
0.137104
0.139028
0.140433
0.141411
0.142064
0.142483
0.142741
0.14289
0.142967
0.142998
0.114666
0.114707
0.114795
0.114953
0.115218
0.115637
0.116274
0.117206
0.118511
0.120243
0.122085
0.123593
0.124692
0.125455
0.125965
0.126294
0.126497
0.126614
0.126675
0.1267
0.101374
0.101406
0.101474
0.101598
0.101802
0.102128
0.102623
0.103348
0.104364
0.105711
0.107145
0.108317
0.109171
0.109765
0.110163
0.110421
0.11058
0.110673
0.110721
0.110739
0.0878125
0.0878366
0.0878888
0.0879844
0.0881438
0.0883947
0.0887755
0.0893339
0.0901169
0.0911558
0.0922641
0.0931717
0.0938347
0.0942974
0.0946067
0.0948043
0.0949253
0.0949957
0.0950327
0.0950471
0.0740413
0.0740608
0.0741018
0.0741743
0.0742945
0.0744855
0.0747764
0.0752022
0.0757988
0.0765902
0.0774345
0.0781256
0.07863
0.0789799
0.0792139
0.0793666
0.0794609
0.0795147
0.0795432
0.0795553
0.0601138
0.0601275
0.0601575
0.060212
0.0603026
0.0604458
0.0606627
0.0609796
0.0614246
0.0620145
0.0626432
0.0631576
0.063533
0.063795
0.0639701
0.0640821
0.0641519
0.0641933
0.0642141
0.0642219
0.0460671
0.0460774
0.0460997
0.0461394
0.0462045
0.0463067
0.0464615
0.0466879
0.047005
0.0474255
0.0478749
0.0482442
0.0485155
0.0487049
0.048832
0.0489138
0.0489635
0.0489919
0.0490067
0.0490126
0.0319396
0.0319492
0.0319653
0.0319922
0.0320348
0.0321019
0.0322037
0.0323518
0.032559
0.0328344
0.0331294
0.0333717
0.0335479
0.0336713
0.0337555
0.0338107
0.0338448
0.0338644
0.0338747
0.0338791
0.0177554
0.0177611
0.0177686
0.0177834
0.0178086
0.0178456
0.0178996
0.0179776
0.0180868
0.0182328
0.018389
0.0185182
0.0186137
0.0186795
0.0187221
0.0187502
0.0187686
0.0187803
0.0187867
0.0187896
0.00354882
0.0035465
0.00355029
0.00355096
0.00355046
0.00355444
0.00356287
0.00357615
0.00359495
0.00361998
0.00365117
0.00368115
0.00370387
0.00372095
0.00373398
0.00374331
0.00374862
0.00375184
0.00375445
0.00375672
-0.496473
-0.32114
-0.161483
-0.0704938
-0.0309983
-0.039708
-0.0715725
-0.0402634
0.165006
0.217504
-0.2496
-0.142502
-0.0739428
-0.0233196
0.00596573
0.0290008
0.0651082
0.13223
0.210253
0.217734
-0.0817056
-0.0234055
0.0211251
0.0582709
0.0908065
0.126134
0.167305
0.209875
0.238969
0.258963
0.0476064
0.0836161
0.116763
0.149001
0.17929
0.210567
0.241177
0.269224
0.292921
0.318174
0.154573
0.181113
0.207909
0.235029
0.260763
0.286349
0.310833
0.333931
0.357544
0.382211
0.249121
0.270824
0.293142
0.316082
0.338021
0.359907
0.381098
0.401952
0.423815
0.447459
0.33735
0.356195
0.375646
0.395621
0.414893
0.434454
0.453771
0.472791
0.492272
0.514018
0.422686
0.43937
0.45646
0.473823
0.490993
0.508432
0.525775
0.542315
0.559196
0.578472
0.506431
0.52075
0.535519
0.5517
0.567677
0.583251
0.598125
0.611924
0.624695
0.637398
0.589388
0.60204
0.616715
0.631401
0.646195
0.659671
0.671359
0.680832
0.687066
0.690709
0.660369
0.674592
0.691194
0.708222
0.724623
0.738296
0.747889
0.752846
0.753828
0.751618
0.743098
0.772265
0.800442
0.823537
0.840569
0.85276
0.860419
0.862019
0.856139
0.848865
0.851155
0.882704
0.903939
0.918982
0.931935
0.942921
0.95187
0.958606
0.963433
0.974044
1.01582
1.03485
1.05346
1.07137
1.08525
1.09551
1.10378
1.11235
1.12154
1.13598
1.25297
1.25729
1.24407
1.22893
1.22091
1.22562
1.24371
1.27233
1.30146
1.3279
1.55193
1.41842
1.34241
1.30068
1.28405
1.28842
1.31449
1.3699
1.47273
1.69601
1.29818
1.30283
1.30174
1.2935
1.28276
1.27205
1.26251
1.25371
1.24723
1.24346
1.2427
1.24532
1.25051
1.25888
1.26773
1.27798
1.28893
1.29894
1.30447
1.29912
1.24572
1.24873
1.25176
1.25245
1.25045
1.24706
1.24249
1.23712
1.23231
1.22908
1.22844
1.23078
1.23509
1.24046
1.24561
1.24966
1.25245
1.25354
1.25116
1.24778
1.24456
1.24525
1.24636
1.24707
1.24706
1.24609
1.24389
1.24119
1.23836
1.23622
1.23583
1.23753
1.24038
1.24329
1.24604
1.24769
1.24819
1.24784
1.24688
1.24587
1.23274
1.23277
1.23277
1.23267
1.23233
1.23155
1.23026
1.22853
1.22672
1.22533
1.22512
1.22641
1.22835
1.23037
1.23204
1.23315
1.23374
1.23395
1.23397
1.23394
1.22303
1.22308
1.2231
1.22305
1.22285
1.22243
1.22174
1.22079
1.21975
1.21896
1.21897
1.21985
1.22115
1.22241
1.2234
1.22405
1.2244
1.22455
1.22457
1.22454
1.21351
1.21353
1.21353
1.21349
1.21338
1.21316
1.2128
1.2123
1.21176
1.21139
1.21151
1.21223
1.21313
1.21395
1.21457
1.21498
1.21522
1.21534
1.21537
1.21536
1.20434
1.20435
1.20435
1.20434
1.20428
1.20418
1.20401
1.20379
1.20358
1.2035
1.20377
1.20438
1.20505
1.20564
1.20607
1.20636
1.20653
1.20661
1.20664
1.20664
1.19533
1.19533
1.19534
1.19534
1.19532
1.1953
1.19526
1.19523
1.19524
1.19539
1.19579
1.19639
1.19696
1.19743
1.19777
1.19799
1.19812
1.19819
1.19822
1.19822
1.18636
1.18637
1.18637
1.18639
1.18641
1.18644
1.1865
1.1866
1.18679
1.18713
1.18768
1.18832
1.18889
1.18932
1.18962
1.18982
1.18994
1.19
1.19002
1.19003
1.17736
1.17736
1.17737
1.1774
1.17745
1.17754
1.17768
1.1779
1.17824
1.17877
1.17949
1.18025
1.18086
1.18131
1.18162
1.18182
1.18193
1.182
1.18202
1.18203
1.16827
1.16826
1.16828
1.16832
1.1684
1.16853
1.16875
1.16909
1.1696
1.17033
1.17127
1.17219
1.17291
1.17342
1.17376
1.17398
1.17412
1.17419
1.17422
1.17422
1.15901
1.15901
1.15903
1.15909
1.15919
1.15938
1.15969
1.16015
1.16085
1.16182
1.16303
1.16418
1.16506
1.16567
1.16609
1.16635
1.1665
1.16659
1.16663
1.16663
1.14953
1.14953
1.14955
1.14963
1.14977
1.15003
1.15043
1.15105
1.15197
1.15323
1.15479
1.15625
1.15734
1.1581
1.15861
1.15893
1.15913
1.15923
1.15928
1.15929
1.13975
1.13974
1.13977
1.13987
1.14006
1.14039
1.14093
1.14174
1.14293
1.14457
1.14657
1.14843
1.14981
1.15076
1.1514
1.1518
1.15204
1.15217
1.15223
1.15224
1.12955
1.12954
1.12959
1.12972
1.12997
1.1304
1.1311
1.13216
1.1337
1.13582
1.13839
1.14075
1.1425
1.14371
1.14451
1.14502
1.14532
1.14548
1.14556
1.14557
1.11883
1.11881
1.11888
1.11905
1.11938
1.11994
1.12085
1.12223
1.12423
1.12696
1.13025
1.13327
1.13548
1.13701
1.13802
1.13866
1.13904
1.13925
1.13935
1.13936
1.1074
1.10738
1.10747
1.10769
1.10812
1.10887
1.11006
1.11186
1.11445
1.11797
1.12218
1.12602
1.12883
1.13077
1.13205
1.13286
1.13334
1.1336
1.13371
1.13374
1.09503
1.09501
1.09513
1.09543
1.09601
1.09699
1.09855
1.10091
1.10428
1.10882
1.11422
1.1191
1.12265
1.1251
1.12672
1.12773
1.12834
1.12867
1.12881
1.12884
1.08143
1.0814
1.08156
1.08197
1.08274
1.08405
1.08613
1.08923
1.09363
1.09949
1.10638
1.11257
1.11705
1.12014
1.12218
1.12346
1.12422
1.12464
1.12482
1.12486
1.06613
1.0661
1.06633
1.06689
1.06794
1.06971
1.0725
1.07662
1.08238
1.08995
1.09873
1.10654
1.11218
1.11607
1.11863
1.12025
1.12121
1.12173
1.12197
1.12201
1.0485
1.04847
1.04881
1.0496
1.05107
1.05352
1.05731
1.06283
1.07042
1.0802
1.09134
1.10114
1.1082
1.11307
1.1163
1.11834
1.11956
1.12022
1.12052
1.12058
1.02756
1.02754
1.02806
1.02923
1.03135
1.03483
1.0401
1.04761
1.05766
1.07026
1.0843
1.0965
1.10527
1.11136
1.11543
1.11802
1.11958
1.12044
1.12083
1.1209
1.00171
1.00175
1.00261
1.00443
1.00767
1.01281
1.02036
1.03071
1.04406
1.06022
1.07773
1.09274
1.10354
1.11111
1.11626
1.11962
1.12167
1.12281
1.12334
1.12345
0.968061
0.96829
0.969921
0.973109
0.978439
0.986466
0.997604
1.01206
1.02975
1.05027
1.07178
1.08994
1.10306
1.11244
1.119
1.12343
1.12625
1.12789
1.1287
1.12891
0.920397
0.921554
0.925564
0.932104
0.941775
0.954951
0.971705
0.991879
1.01508
1.04068
1.06657
1.0881
1.10374
1.11519
1.12354
1.12952
1.13366
1.13634
1.13789
1.13851
0.847622
0.851543
0.863634
0.878395
0.896682
0.918416
0.943254
0.970781
1.00046
1.0316
1.06199
1.08687
1.10507
1.11875
1.1292
1.13724
1.14343
1.1482
1.15201
1.15395
0.754812
0.767209
0.792352
0.820096
0.849876
0.881566
0.915059
0.950112
0.986267
1.02291
1.05779
1.08612
1.10713
1.12345
1.13653
1.14722
1.15609
1.16351
1.16971
1.17219
0.670546
0.693551
0.729529
0.767458
0.806861
0.847433
0.888978
0.931142
0.973375
1.015
1.05361
1.08449
1.10734
1.12529
1.13993
1.15215
1.16241
1.17097
1.178
1.18159
0.617701
0.64184
0.681446
0.72463
0.770266
0.817534
0.865703
0.914026
0.961589
1.00738
1.04865
1.08072
1.10405
1.12219
1.13692
1.14911
1.15927
1.16769
1.17453
1.17824
0.573641
0.599915
0.642828
0.689892
0.740073
0.792404
0.845919
0.899432
0.951533
1.00065
1.04344
1.07536
1.09786
1.11508
1.12897
1.14048
1.1501
1.1581
1.1647
1.16849
0.537095
0.564726
0.610114
0.660366
0.714316
0.770938
0.829036
0.887067
0.943088
0.994844
1.03818
1.06874
1.08925
1.10458
1.11693
1.12729
1.13608
1.1435
1.14972
1.15354
0.504377
0.53363
0.581371
0.634454
0.691734
0.752169
0.8144
0.876545
0.936137
0.990105
1.03323
1.06131
1.07868
1.09116
1.10125
1.10995
1.11761
1.12427
1.12999
1.13371
0.474426
0.505133
0.555123
0.610867
0.671255
0.735273
0.801392
0.867479
0.930527
0.986553
1.02899
1.05358
1.06661
1.0751
1.08206
1.08851
1.09462
1.1003
1.10542
1.10895
0.446074
0.478281
0.530391
0.588689
0.652095
0.719545
0.789466
0.859476
0.926074
0.984296
1.02588
1.04612
1.05347
1.05662
1.05932
1.0627
1.06675
1.07114
1.07549
1.07878
0.418674
0.452251
0.506459
0.567268
0.63361
0.704441
0.778151
0.852162
0.922551
0.983381
1.02433
1.03959
1.03983
1.03595
1.03289
1.03206
1.03331
1.03594
1.03927
1.04216
0.391393
0.426469
0.482833
0.546133
0.615351
0.689533
0.767033
0.845165
0.919703
0.983757
1.02476
1.03478
1.02643
1.01341
1.00258
0.995985
0.993362
0.993604
0.995597
0.997995
0.364256
0.400692
0.459183
0.524918
0.596998
0.674487
0.755774
0.838148
0.917177
0.985291
1.02745
1.03255
1.01425
0.98956
0.968244
0.953699
0.945684
0.942636
0.942811
0.944423
0.336807
0.374871
0.435387
0.503502
0.578342
0.659078
0.744105
0.830797
0.914665
0.987666
1.03257
1.03383
1.00462
0.965331
0.92992
0.904296
0.888738
0.881089
0.878796
0.879338
0.309336
0.348607
0.411245
0.48172
0.559299
0.643171
0.731857
0.822837
0.911786
0.990532
1.04001
1.03948
0.999228
0.942146
0.887878
0.846768
0.820527
0.806454
0.800795
0.800061
0.281436
0.322118
0.386859
0.459619
0.539816
0.626715
0.71891
0.81409
0.9082
0.993367
1.04942
1.05011
0.999999
0.922144
0.84278
0.779849
0.738488
0.715464
0.705397
0.703527
0.253418
0.295457
0.362255
0.437245
0.519953
0.609717
0.70524
0.804422
0.903629
0.995638
1.06015
1.0659
1.00901
0.908272
0.795713
0.701396
0.638533
0.604044
0.589524
0.585755
0.225205
0.268787
0.33757
0.414697
0.499799
0.592219
0.690863
0.793795
0.89789
0.996847
1.07129
1.08636
1.02803
0.9044
0.748378
0.605689
0.512942
0.466291
0.447914
0.444414
0.197486
0.24227
0.31296
0.392157
0.479488
0.574375
0.675822
0.78223
0.890851
0.996555
1.08174
1.11021
1.05805
0.915274
0.702018
0.484921
0.343546
0.285739
0.274299
0.279281
0.169864
0.216026
0.288593
0.369768
0.459191
0.556333
0.660306
0.769753
0.882476
0.994474
1.09044
1.13537
1.09833
0.946398
0.660985
0.313082
0.0742902
0.0226098
0.0652391
0.109261
0.142554
0.190156
0.264588
0.347697
0.439076
0.538246
0.644481
0.756597
0.872857
0.990389
1.09653
1.15917
1.14555
1.00205
0.63365
0.0146509
-0.486362
-0.450987
-0.168353
-0.0144957
0.115672
0.16475
0.2411
0.326055
0.419199
0.520246
0.628501
0.742888
0.862172
0.984361
1.09929
1.17891
1.19342
1.08065
0.641203
-0.60601
-1.92472
-1.40989
-0.412875
0.0471795
0.0892611
0.139851
0.218347
0.304861
0.399426
0.502004
0.612006
0.728334
0.85007
0.976059
1.09833
1.19296
1.23624
1.17394
0.738567
-0.899894
-3.02321
-2.42699
-0.967483
-0.209289
0.0632316
0.115709
0.196549
0.28424
0.379904
0.483657
0.595054
0.7129
0.836546
0.965233
1.09282
1.19855
1.26356
1.24609
0.935057
-0.213313
-1.52257
-1.419
-0.99311
-0.579918
0.0372388
0.09333
0.175821
0.264158
0.360503
0.465197
0.577799
0.696602
0.821464
0.952037
1.083
1.19459
1.2688
1.27153
1.07632
0.438692
-0.21257
-0.380641
-0.294677
-0.217077
0.00649222
0.0755475
0.156516
0.244784
0.341488
0.447077
0.559936
0.679797
0.805136
0.936548
1.06879
1.18116
1.25635
1.26394
1.11588
0.738108
0.353768
0.0953478
0.0177549
-0.00872298
0.0707692
0.0982797
0.179444
0.270899
0.372598
0.482845
0.601945
0.725315
0.853411
0.986655
1.10877
1.19834
1.23587
1.17901
0.98181
0.666319
0.400665
0.217978
0.119873
0.0511623
0.0379065
0.060491
0.12941
0.21433
0.311303
0.417744
0.53199
0.652834
0.779118
0.910609
1.0402
1.145
1.20344
1.18965
1.06862
0.813765
0.540117
0.315306
0.170085
0.0646529
0.0117516
0.0444215
0.112843
0.197302
0.294586
0.401398
0.51567
0.637122
0.763018
0.891601
1.01483
1.10977
1.15205
1.1219
0.990538
0.74927
0.485388
0.27381
0.110925
-0.0330427
-0.0211198
0.0131205
0.0866388
0.173889
0.273291
0.381274
0.496282
0.617047
0.741534
0.868744
0.989224
1.07532
1.1026
1.05258
0.912162
0.685391
0.407375
0.179059
-0.0212561
-0.218189
-0.0620767
-0.0251567
0.0559543
0.148102
0.24938
0.3584
0.474266
0.595743
0.72046
0.845866
0.960139
1.03334
1.04452
0.978549
0.821147
0.584292
0.272239
-0.0105327
-0.277559
-0.589567
-0.102241
-0.0627856
0.0251628
0.121165
0.224058
0.334149
0.450728
0.572288
0.696494
0.819895
0.929673
0.995983
0.997532
0.92265
0.757581
0.514709
0.160723
-0.220442
-0.621558
-1.2846
-0.141749
-0.0996252
-0.00730574
0.0913433
0.196669
0.308893
0.4273
0.54981
0.673517
0.794727
0.899349
0.956837
0.949395
0.868178
0.70165
0.450541
0.0843581
-0.410866
-0.951228
-1.90951
-0.17909
-0.135252
-0.0399749
0.0616842
0.169491
0.283224
0.402142
0.524515
0.647765
0.767494
0.868494
0.920595
0.90901
0.828639
0.674228
0.426959
0.0931673
-0.392492
-0.940452
-1.11302
-0.212092
-0.16945
-0.0737908
0.0290722
0.138386
0.25384
0.374168
0.49764
0.621148
0.739688
0.837512
0.885974
0.87402
0.801893