/*--------------------------------*- C++ -*----------------------------------*\
| =========                 |                                                 |
| \\      /  F ield         | OpenFOAM: The Open Source CFD Toolbox           |
|  \\    /   O peration     | Version:  2112                                  |
|   \\  /    A nd           | Website:  www.openfoam.com                      |
|    \\/     M anipulation  |                                                 |
\*---------------------------------------------------------------------------*/
FoamFile
{
    version     2.0;
    format      ascii;
    arch        "LSB;label=32;scalar=64";
    class       surfaceScalarField;
    location    "1.5";
    object      phi;
}
// * * * * * * * * * * * * * * * * * * * * * * * * * * * * * * * * * * * * * //

dimensions      [0 3 -1 0 0 0 0];

oriented        oriented;

internalField   nonuniform List<scalar> 
17370
(
-0.0858415
0.0881699
0.286682
-0.0718905
0.0568072
0.361859
-0.0431981
0.0337254
0.425641
-0.0258691
0.0205465
0.504574
-0.0161466
0.0131523
0.602396
-0.0105985
0.00879889
0.720857
-0.00716763
0.00596058
0.864114
-0.00479657
0.00378405
1.03646
-0.00272316
0.00180848
1.24342
-0.000816952
-0.000111219
1.49212
0.00103563
-0.00201899
1.49217
0.00291884
-0.00396097
1.24373
0.00494844
-0.00607407
1.03676
0.0072797
-0.00889193
0.864519
0.0106831
-0.0132271
0.721602
0.0162108
-0.0205985
0.603602
0.025911
-0.0337589
0.507287
0.0432262
-0.0568327
0.429775
0.0719132
-0.0881879
0.36305
0.0858504
0.20316
-0.152314
0.131585
0.0207288
-0.361916
0.35939
-0.0310878
0.033614
-0.436234
0.436335
-0.0340994
0.033998
-0.514751
0.515971
-0.0334375
0.0322169
-0.609803
0.612319
-0.030393
0.0278772
-0.726176
0.729294
-0.0251664
0.0220479
-0.867769
0.870764
-0.0191931
0.0161986
-1.03916
1.0418
-0.0136003
0.0109615
-1.24561
1.24801
-0.00862036
0.00621588
-1.49388
1.49622
-0.00406537
0.00172945
-1.49374
1.49596
0.000495324
-0.00271433
-1.245
1.2471
0.0050235
-0.00712217
-1.03832
1.0406
0.00946941
-0.0117519
-0.86664
0.869174
0.0143256
-0.0168595
-0.724397
0.727186
0.0197871
-0.0225758
-0.607351
0.609989
0.0256179
-0.0282566
-0.510995
0.512756
0.0307104
-0.0324712
-0.432455
0.432984
0.033668
-0.0341968
-0.365824
0.3653
0.0342556
-0.0337316
-0.27148
0.261077
0.0311613
-0.0207579
-0.123079
0.12237
0.000708851
-0.00778091
0.0115496
-0.362139
0.35837
-0.0148621
0.0170099
-0.431995
0.429847
-0.0183529
0.0188736
-0.513482
0.512961
-0.0187337
0.0181921
-0.611773
0.612315
-0.0170949
0.0157821
-0.729489
0.730802
-0.0140915
0.0123903
-0.871689
0.873391
-0.0103425
0.00841449
-1.04306
1.04499
-0.00620823
0.00415708
-1.24951
1.25156
-0.0016553
-0.000754538
-1.49849
1.5009
0.00312723
-0.00553691
-1.49877
1.50118
0.00761622
-0.00981688
-1.25041
1.25261
0.011617
-0.0135591
-1.0443
1.04624
0.0151595
-0.0167569
-0.873158
0.874755
0.0179904
-0.0190213
-0.731296
0.732327
0.0195205
-0.0195548
-0.613583
0.613618
0.0189311
-0.0174729
-0.515775
0.514317
0.0152225
-0.0118013
-0.43389
0.430469
0.0079364
-0.00357594
-0.354285
0.349925
0.000745742
-0.123003
0.122257
-0.122652
0.122371
0.000280294
-0.00218499
0.0035176
-0.355987
0.354654
-0.00506329
0.00643339
-0.427813
0.426442
-0.00782245
0.00889855
-0.511753
0.510677
-0.0098004
0.0103042
-0.612059
0.611555
-0.0105004
0.0103223
-0.731397
0.731575
-0.00975282
0.00893031
-0.874655
0.875477
-0.00775239
0.00644836
-1.04664
1.04794
-0.00479999
0.0031099
-1.25346
1.25515
-0.0011206
-0.000874614
-1.50319
1.50519
0.00285122
-0.00479959
-1.50343
1.50538
0.00640199
-0.0080033
-1.25458
1.25619
0.00924457
-0.0102652
-1.04773
1.04876
0.0109493
-0.0113676
-0.875692
0.87611
0.0114066
-0.0110623
-0.732451
0.732107
0.0104454
-0.00945921
-0.612679
0.611693
0.00831472
-0.00685858
-0.512363
0.510907
0.00543432
-0.00383383
-0.427832
0.426232
0.00244302
-0.00111659
-0.347575
0.346249
0.000334438
-0.122522
0.122188
-0.122063
0.121841
0.000221738
-0.00126799
0.00187822
-0.353759
0.353149
-0.00257324
0.00321075
-0.425505
0.424868
-0.00388611
0.00445889
-0.509882
0.509309
-0.00500215
0.0053686
-0.611115
0.610749
-0.00560958
0.00566536
-0.731598
0.731542
-0.00551709
0.00518098
-0.875999
0.876335
-0.00457847
0.00382193
-1.04893
1.04969
-0.00276935
0.00162211
-1.25655
1.2577
-0.00025191
-0.00111311
-1.50682
1.50819
0.00246082
-0.00375839
-1.50696
1.50826
0.00474597
-0.00557429
-1.25733
1.25816
0.00619478
-0.0066503
-1.04945
1.0499
0.0068431
-0.0068296
-0.876256
0.876243
0.00662565
-0.0062238
-0.731726
0.731324
0.00571751
-0.00505452
-0.610889
0.610226
0.00438014
-0.00359714
-0.509865
0.509082
0.00286624
-0.00207674
-0.425138
0.424349
0.0013901
-0.000720146
-0.345325
0.344655
0.000238757
-0.12183
0.121592
-0.121678
0.121563
0.000115171
-0.000632061
0.000921684
-0.352731
0.352441
-0.001253
0.00156486
-0.424426
0.424114
-0.00190781
0.00220956
-0.508892
0.50859
-0.00251106
0.00273723
-0.610453
0.610227
-0.00291236
0.00298465
-0.731463
0.73139
-0.00294512
0.00278228
-0.87656
0.876723
-0.00244712
0.00199251
-1.05027
1.05073
-0.00132705
0.000575677
-1.25863
1.25938
0.000361276
-0.00131032
-1.50933
1.51028
0.00222907
-0.0030714
-1.50931
1.51016
0.00366995
-0.00412409
-1.25877
1.25923
0.00439697
-0.00454043
-1.05018
1.05032
0.00452638
-0.00437328
-0.876137
0.875984
0.00412958
-0.00377494
-0.730936
0.730582
0.00339412
-0.00293838
-0.609674
0.609219
0.00250533
-0.00202851
-0.508477
0.508
0.00160288
-0.0011564
-0.423764
0.423317
0.000775371
-0.0004036
-0.344164
0.343792
0.000139739
-0.121418
0.121279
-0.121488
0.121442
4.64896e-05
-0.000269301
0.000403497
-0.35224
0.352106
-0.000558586
0.000704003
-0.423897
0.423751
-0.00086325
0.00100296
-0.508379
0.508239
-0.00114152
0.00124471
-0.610066
0.609963
-0.00131954
0.00134052
-0.731341
0.73132
-0.00129525
0.0011777
-0.876853
0.876971
-0.000950903
0.000646185
-1.05109
1.0514
-0.00020012
-0.000301417
-1.25999
1.26049
0.000940884
-0.00157907
-1.51106
1.5117
0.00217679
-0.00269495
-1.51082
1.51134
0.00303403
-0.00325929
-1.25955
1.25978
0.00335106
-0.00334124
-1.05037
1.05036
0.00324238
-0.00305568
-0.875808
0.875621
0.0028304
-0.00254277
-0.730263
0.729975
0.00225654
-0.00193103
-0.608837
0.608512
0.00163325
-0.00131437
-0.507616
0.507297
0.00103552
-0.00074675
-0.422964
0.422675
0.000502498
-0.00026395
-0.3435
0.343261
9.24566e-05
-0.121166
0.121073
-0.121415
0.121404
1.09611e-05
-6.91092e-05
0.000108712
-0.352025
0.351985
-0.000154818
0.000196849
-0.423663
0.423621
-0.00024002
0.000273552
-0.508157
0.508123
-0.00029969
0.000308754
-0.60991
0.609901
-0.000295338
0.000254077
-0.73133
0.731371
-0.000167693
4.27288e-05
-0.877088
0.877213
0.000151473
-0.000389472
-1.05166
1.0519
0.000719778
-0.00107882
-1.26091
1.26127
0.00152073
-0.00194396
-1.51222
1.51264
0.0023178
-0.002613
-1.51174
1.51203
0.0027778
-0.00284807
-1.25992
1.25999
0.00283095
-0.00273581
-1.05031
1.05021
0.00259417
-0.00239377
-0.875428
0.875227
0.00218343
-0.00193412
-0.729711
0.729461
0.00169965
-0.001443
-0.608228
0.607971
0.00121455
-0.000974454
-0.507025
0.506785
0.000766857
-0.000554201
-0.422432
0.422219
0.000375201
-0.000199588
-0.34306
0.342884
7.08717e-05
-0.120993
0.120922
-0.121407
0.121421
-1.36361e-05
5.45224e-05
-7.8543e-05
-0.351979
0.352003
0.000108902
-0.000140624
-0.423618
0.42365
0.000181158
-0.000225226
-0.508131
0.508175
0.000284077
-0.000350417
-0.609931
0.609997
0.000440556
-0.000542852
-0.731443
0.731545
0.000681461
-0.00083672
-0.87735
0.877505
0.00104227
-0.00126403
-1.05212
1.05235
0.00154289
-0.00182349
-1.26159
1.26187
0.00214505
-0.00242716
-1.51299
1.51327
0.00264794
-0.0027861
-1.51224
1.51238
0.00282269
-0.00279078
-1.26
1.25997
0.00269553
-0.00253975
-1.05008
1.04993
0.00236276
-0.00214492
-0.875019
0.874802
0.00193273
-0.00169523
-0.729222
0.728984
0.00147916
-0.00124904
-0.607732
0.607502
0.00104763
-0.000838359
-0.506564
0.506355
0.000659334
-0.000477501
-0.422027
0.421845
0.000324828
-0.000174004
-0.342724
0.342573
6.19675e-05
-0.120857
0.120795
-0.121445
0.121479
-3.42564e-05
0.000167678
-0.000240214
-0.352052
0.352125
0.000326953
-0.000414445
-0.42371
0.423798
0.000520674
-0.000628098
-0.508252
0.508359
0.00075843
-0.000890555
-0.610097
0.610229
0.00105164
-0.00121502
-0.731678
0.731841
0.0014138
-0.00161394
-0.877682
0.877882
0.00185388
-0.00208919
-1.05257
1.05281
0.00235973
-0.002608
-1.26213
1.26238
0.00286427
-0.00305903
-1.5135
1.5137
0.00317709
-0.00320576
-1.51246
1.51249
0.00315494
-0.00302714
-1.25989
1.25976
0.0028643
-0.00264938
-1.04974
1.04953
0.00243205
-0.00218098
-0.874569
0.874318
0.00194813
-0.00169563
-0.728742
0.728489
0.00147179
-0.00123732
-0.607272
0.607038
0.00103495
-0.000827346
-0.50615
0.505942
0.000651112
-0.000472635
-0.421667
0.421489
0.00032255
-0.0001736
-0.342426
0.342277
6.20543e-05
-0.120735
0.120673
-0.121523
0.121576
-5.30665e-05
0.000263518
-0.00038237
-0.352221
0.352339
0.000524612
-0.000666277
-0.423913
0.424054
0.000835349
-0.00100339
-0.508497
0.508665
0.00120371
-0.00140212
-0.610394
0.610593
0.00163653
-0.00186652
-0.732037
0.732267
0.00213498
-0.00239358
-0.878109
0.878368
0.00268764
-0.00296029
-1.05306
1.05333
0.00325338
-0.00350195
-1.26262
1.26287
0.00373164
-0.00387446
-1.51386
1.514
0.00392079
-0.00386302
-1.51247
1.51241
0.00373177
-0.00352398
-1.2596
1.25939
0.00329305
-0.00301225
-1.04928
1.049
0.00274195
-0.00244088
-0.874044
0.873743
0.00216883
-0.00187924
-0.728221
0.727931
0.0016262
-0.00136368
-0.606792
0.60653
0.00113884
-0.000909456
-0.505727
0.505497
0.000715715
-0.000519796
-0.421303
0.421108
0.000355282
-0.000191693
-0.342123
0.341959
6.85292e-05
-0.120608
0.12054
-0.121639
0.121713
-7.39528e-05
0.000369096
-0.000536031
-0.352482
0.352649
0.000735506
-0.000933988
-0.424224
0.424422
0.00117039
-0.00140411
-0.508865
0.509099
0.00168041
-0.00195142
-0.610826
0.611097
0.00226853
-0.0025751
-0.732534
0.73284
0.00292722
-0.00325917
-0.878661
0.878993
0.00362776
-0.00395862
-1.05363
1.05396
0.00430046
-0.00457467
-1.26313
1.2634
0.00480611
-0.00492171
-1.51413
1.51425
0.00491452
-0.00478116
-1.51232
1.51218
0.00457333
-0.00427915
-1.25914
1.25884
0.00397125
-0.00360943
-1.04868
1.04832
0.00326985
-0.0028989
-0.87341
0.873039
0.00256785
-0.00221941
-0.727615
0.727267
0.00191704
-0.00160572
-0.606245
0.605934
0.00134042
-0.00107061
-0.50525
0.50498
0.000842824
-0.000612874
-0.420897
0.420667
0.000419844
-0.000227343
-0.341783
0.34159
8.14747e-05
-0.120465
0.120384
-0.121798
0.121896
-9.77438e-05
0.000490328
-0.000713454
-0.352842
0.353066
0.00097996
-0.00124451
-0.424652
0.424917
0.00155885
-0.00186906
-0.509369
0.509679
0.00223502
-0.0025928
-0.611409
0.611767
0.00300894
-0.00340901
-0.733191
0.733591
0.00386457
-0.00429006
-0.879369
0.879795
0.00475592
-0.00516767
-1.05433
1.05474
0.0055834
-0.00590577
-1.2637
1.26402
0.00616123
-0.0062652
-1.51436
1.51446
0.00621319
-0.00600451
-1.51201
1.5118
0.00571381
-0.00532089
-1.2585
1.25811
0.00492017
-0.00445713
-1.04791
1.04745
0.00402802
-0.0035629
-0.872624
0.872159
0.00315112
-0.00271956
-0.72688
0.726448
0.00234682
-0.00196404
-0.60559
0.605207
0.00163855
-0.0013078
-0.504682
0.504351
0.00102899
-0.000748078
-0.420414
0.420133
0.000512716
-0.000277963
-0.341379
0.341144
9.96615e-05
-0.120294
0.120194
-0.122008
0.122136
-0.000127978
0.000640891
-0.000931853
-0.353321
0.353612
0.00127936
-0.0016245
-0.425219
0.425564
0.00203446
-0.00243843
-0.510034
0.510437
0.00291407
-0.00337812
-0.612175
0.612639
0.00391691
-0.00443292
-0.734046
0.734562
0.00501842
-0.00556217
-0.880276
0.880819
0.00615386
-0.00667189
-1.0552
1.05572
0.00718841
-0.00758107
-1.26437
1.26477
0.00787979
-0.00798282
-1.51456
1.51466
0.00788747
-0.00759546
-1.51155
1.51126
0.00720739
-0.00669401
-1.25766
1.25715
0.00617733
-0.00558573
-1.04692
1.04633
0.00504107
-0.00445386
-0.871637
0.871049
0.00393585
-0.00339447
-0.725965
0.725424
0.00292794
-0.00244931
-0.60478
0.604301
0.00204283
-0.00163018
-0.503983
0.50357
0.00128288
-0.000932958
-0.41982
0.41947
0.00063971
-0.000347045
-0.340882
0.340589
0.000124588
-0.120083
0.119959
-0.122282
0.122448
-0.000165665
0.000829252
-0.00120609
-0.353943
0.35432
0.00165581
-0.00210187
-0.425957
0.426403
0.00263133
-0.00315296
-0.510897
0.511418
0.00376678
-0.004365
-0.613166
0.613764
0.00505844
-0.00572155
-0.735147
0.73581
0.00647199
-0.00716673
-0.881434
0.882129
0.00791938
-0.00857456
-1.0563
1.05696
0.00922247
-0.00970877
-1.2652
1.26569
0.010069
-0.010178
-1.51477
1.51488
0.010034
-0.00964229
-1.51092
1.51053
0.0091343
-0.00847079
-1.25656
1.2559
0.00780771
-0.00705244
-1.04566
1.04491
0.00635956
-0.00561469
-0.870389
0.869644
0.00495874
-0.00427491
-0.724816
0.724132
0.00368628
-0.00308338
-0.603764
0.603161
0.00257157
-0.00205271
-0.503108
0.502589
0.00161596
-0.00117581
-0.419078
0.418637
0.000806148
-0.00043692
-0.340261
0.339892
0.000156407
-0.119819
0.119663
-0.122636
0.12285
-0.000214282
0.00107026
-0.00155603
-0.354748
0.355233
0.00213593
-0.00271118
-0.42691
0.427485
0.00339351
-0.00406527
-0.51201
0.512682
0.00485515
-0.00562433
-0.614443
0.615212
0.00651479
-0.00736502
-0.736561
0.737411
0.00832529
-0.00921223
-0.882914
0.883801
0.01017
-0.0110004
-1.05769
1.05853
0.0118163
-0.0124228
-1.26623
1.26684
0.0128626
-0.0129804
-1.51499
1.51511
0.0127768
-0.0122592
-1.51008
1.50956
0.0116002
-0.0107461
-1.25515
1.25429
0.009897
-0.0089334
-1.04406
1.04309
0.00805154
-0.00710554
-0.868804
0.867858
0.0062736
-0.00540702
-0.723363
0.722496
0.00466143
-0.00389809
-0.602484
0.60172
0.0032504
-0.00259394
-0.502005
0.501349
0.00204137
-0.00148461
-0.418142
0.417586
0.00101767
-0.00055164
-0.339477
0.339011
0.000197577
-0.119487
0.119289
-0.123094
0.123371
-0.000277366
0.00138163
-0.00200784
-0.355785
0.356411
0.0027552
-0.00349637
-0.428138
0.428879
0.0043755
-0.00524054
-0.513444
0.514309
0.00625682
-0.00724525
-0.616084
0.617072
0.00838826
-0.00947776
-0.738374
0.739463
0.0107062
-0.011838
-0.884803
0.885934
0.0130566
-0.0141085
-1.05946
1.06051
0.0151363
-0.0158928
-1.26752
1.26827
0.0164302
-0.016556
-1.51523
1.51536
0.0162731
-0.015594
-1.50897
1.50829
0.0147413
-0.0136439
-1.25332
1.25223
0.0125579
-0.0113282
-1.042
1.04077
0.0102057
-0.00900254
-0.866791
0.865588
0.00794628
-0.00684652
-0.72152
0.72042
0.00590139
-0.00493435
-0.600861
0.599894
0.00411442
-0.00328313
-0.50061
0.499779
0.0025834
-0.00187864
-0.41696
0.416255
0.00128786
-0.000698081
-0.338487
0.337897
0.000249932
-0.119067
0.118817
-0.123687
0.124047
-0.00036016
0.00178785
-0.00259647
-0.357123
0.357931
0.00356125
-0.00451745
-0.429721
0.430677
0.00565094
-0.0067655
-0.515291
0.516406
0.00807404
-0.00934559
-0.618193
0.619465
0.0108139
-0.0122112
-0.740697
0.742094
0.0137826
-0.0152265
-0.887213
0.888657
0.0167748
-0.018105
-1.0617
1.06303
0.0193957
-0.0203356
-1.26912
1.27006
0.0209872
-0.0211136
-1.51549
1.51561
0.020722
-0.0198306
-1.50751
1.50662
0.0187276
-0.0173187
-1.25098
1.24957
0.0159301
-0.0143631
-1.03939
1.03782
0.0129349
-0.0114067
-0.864232
0.862704
0.010066
-0.00867132
-0.719182
0.717787
0.00747316
-0.00624764
-0.598805
0.597579
0.00520864
-0.00415562
-0.498843
0.49779
0.00326979
-0.00237782
-0.415462
0.41457
0.00163005
-0.000883509
-0.337233
0.336487
0.000316363
-0.118536
0.118219
-0.124458
0.124928
-0.000469882
0.00232143
-0.00336875
-0.358851
0.359898
0.00461803
-0.00585568
-0.431764
0.433002
0.00732166
-0.00876182
-0.517672
0.519112
0.0104504
-0.0120885
-0.620907
0.622546
0.0139764
-0.0157685
-0.743677
0.745469
0.0177783
-0.0196176
-0.890286
0.892126
0.0215811
-0.0232573
-1.06452
1.0662
0.0248695
-0.0260274
-1.2711
1.27226
0.0268051
-0.0269146
-1.51573
1.51584
0.0263699
-0.0251982
-1.5056
1.50443
0.0237721
-0.0219642
-1.24798
1.24617
0.0201908
-0.0181952
-1.03605
1.03405
0.01638
-0.0144406
-0.860982
0.859043
0.0127404
-0.0109732
-0.716217
0.71445
0.00945552
-0.00790343
-0.5962
0.594648
0.00658783
-0.00525505
-0.496606
0.495273
0.00413407
-0.00300533
-0.413567
0.412438
0.00205897
-0.00111472
-0.335647
0.334703
0.000398326
-0.117865
0.117466
-0.125467
0.126084
-0.000617525
0.00303218
-0.00439516
-0.361092
0.362455
0.00601991
-0.00762815
-0.434412
0.43602
0.00953135
-0.0113986
-0.520751
0.522618
0.0135843
-0.0157004
-0.624407
0.626523
0.0181326
-0.0204338
-0.747499
0.749801
0.0230031
-0.0253423
-0.894201
0.89654
0.0278226
-0.0299222
-1.06807
1.07017
0.031918
-0.033325
-1.27354
1.27495
0.0342293
-0.0342868
-1.51593
1.51599
0.0335238
-0.0319797
-1.50308
1.50154
0.0301353
-0.0278189
-1.24412
1.24181
0.025558
-0.0230218
-1.0318
1.02927
0.0207191
-0.0182613
-0.856859
0.854401
0.0161088
-0.0138726
-0.712461
0.710225
0.0119528
-0.00999043
-0.592903
0.59094
0.00832726
-0.00664246
-0.493774
0.492089
0.00522521
-0.00379792
-0.411168
0.409741
0.00260145
-0.00140783
-0.333641
0.332447
0.000502734
-0.117018
0.116515
-0.126795
0.127616
-0.000820945
0.00399467
-0.00578114
-0.364014
0.365801
0.00790886
-0.0100126
-0.437858
0.439961
0.0124984
-0.0149324
-0.524749
0.527183
0.0177742
-0.0205163
-0.628931
0.631673
0.0236553
-0.0266102
-0.752408
0.755363
0.0298897
-0.0328534
-0.899174
0.902138
0.0359666
-0.0385711
-1.07252
1.07512
0.0410066
-0.0426792
-1.27648
1.27816
0.0436858
-0.0436283
-1.516
1.51594
0.0425518
-0.0405128
-1.49977
1.49773
0.0381302
-0.0351681
-1.23919
1.23622
0.0322945
-0.0290809
-1.02641
1.0232
0.0261691
-0.0230645
-0.851638
0.848534
0.0203466
-0.0175226
-0.707711
0.704887
0.0150985
-0.0126197
-0.588734
0.586256
0.0105191
-0.00839056
-0.490195
0.488067
0.00659992
-0.00479668
-0.408137
0.406334
0.0032849
-0.00177685
-0.331106
0.329598
0.000633899
-0.115951
0.115317
-0.128568
0.129677
-0.0011092
0.00533124
-0.00769795
-0.367853
0.37022
0.0105118
-0.0132889
-0.442375
0.445152
0.016562
-0.0197568
-0.529968
0.533163
0.0234721
-0.0270398
-0.634799
0.638366
0.0310987
-0.0348912
-0.758711
0.762504
0.0390616
-0.042789
-0.905466
0.909193
0.0466522
-0.0498307
-1.078
1.08118
0.0527348
-0.0546548
-1.27996
1.28188
0.0556928
-0.055411
-1.51579
1.51551
0.0538833
-0.0511902
-1.49538
1.49269
0.0481208
-0.0443522
-1.23288
1.22911
0.0407182
-0.0366683
-1.01959
1.01554
0.0330034
-0.0290976
-0.845049
0.841143
0.025677
-0.0221219
-0.701718
0.698162
0.0190673
-0.0159423
-0.583472
0.580347
0.0132913
-0.0106035
-0.485675
0.482987
0.00834111
-0.0060619
-0.404307
0.402027
0.00415072
-0.00224426
-0.327903
0.325996
0.000800077
-0.114605
0.113805
-0.130978
0.132516
-0.00153785
0.00726134
-0.0104488
-0.372959
0.376146
0.0142259
-0.0179411
-0.448358
0.452073
0.0223015
-0.026536
-0.536837
0.541072
0.0314279
-0.036087
-0.642442
0.647102
0.0413358
-0.0461826
-0.766795
0.771642
0.051439
-0.0560612
-0.913354
0.917976
0.0607588
-0.0645315
-1.08466
1.08843
0.0678634
-0.0699406
-1.2839
1.28597
0.0708594
-0.0701751
-1.51505
1.51437
0.068003
-0.0644537
-1.4896
1.48605
0.0605233
-0.055764
-1.22487
1.22011
0.0512082
-0.0461471
-1.011
1.00594
0.0415712
-0.0366905
-0.836772
0.831891
0.0324097
-0.0279504
-0.694178
0.689719
0.0241117
-0.0201754
-0.576839
0.572903
0.0168311
-0.0134352
-0.479966
0.476571
0.0105734
-0.0076875
-0.399464
0.396578
0.00526525
-0.00284748
-0.323851
0.321434
0.00101526
-0.112905
0.11189
-0.134359
0.136595
-0.00223585
0.0102707
-0.0146797
-0.379869
0.384278
0.019864
-0.0249288
-0.456405
0.46147
0.0308253
-0.0364973
-0.545974
0.551646
0.0429747
-0.0490592
-0.652433
0.658517
0.055802
-0.061913
-0.777099
0.78321
0.0683996
-0.0739684
-0.923075
0.928643
0.0794694
-0.0837358
-1.09248
1.09674
0.0873155
-0.0893354
-1.28806
1.29008
0.0898569
-0.0884933
-1.51339
1.51202
0.0854131
-0.0807599
-1.48198
1.47733
0.075774
-0.0698365
-1.21479
1.20885
0.064201
-0.0579632
-1.00031
0.994075
0.0523246
-0.0462994
-0.826457
0.820432
0.0409959
-0.0354483
-0.684737
0.67919
0.0306489
-0.0257045
-0.568487
0.563543
0.0214841
-0.0171814
-0.472749
0.468446
0.0135427
-0.00986217
-0.393324
0.389644
0.00676442
-0.00366462
-0.318706
0.315606
0.00130895
-0.11074
0.109431
-0.139341
0.143019
-0.00367771
0.0158718
-0.0222203
-0.389513
0.395862
0.0295215
-0.036535
-0.467503
0.474516
0.0445686
-0.052163
-0.558287
0.565881
0.0606586
-0.0684564
-0.665462
0.67326
0.0768777
-0.0842992
-0.789995
0.797416
0.0919353
-0.098274
-0.934639
0.940978
0.104286
-0.108713
-1.10115
1.10558
0.112121
-0.113677
-1.29193
1.29348
0.11335
-0.110908
-1.51018
1.50774
0.106576
-0.100532
-1.47202
1.46597
0.0942916
-0.0870074
-1.20226
1.19497
0.0801708
-0.0726428
-0.9872
0.979672
0.0658471
-0.0585697
-0.813784
0.806507
0.0521355
-0.0453597
-0.673029
0.666253
0.0394514
-0.0333097
-0.558001
0.551859
0.0280183
-0.0225705
-0.463579
0.458131
0.0179163
-0.0131591
-0.385464
0.380707
0.00910929
-0.00499288
-0.312097
0.307981
0.00179632
-0.10793
0.106134
-0.147349
0.155504
-0.00815468
0.0299092
-0.0390158
-0.403824
0.412931
0.0489992
-0.058358
-0.483316
0.492674
0.0688355
-0.0785101
-0.57488
0.584555
0.0890199
-0.0983529
-0.682
0.691333
0.108095
-0.116371
-0.805358
0.813634
0.124546
-0.131019
-0.947477
0.953949
0.136816
-0.140717
-1.10983
1.11373
0.143234
-0.143678
-1.29457
1.29501
0.141869
-0.137825
-1.50456
1.50051
0.131825
-0.124085
-1.45911
1.45137
0.116397
-0.107652
-1.18696
1.17822
0.099564
-0.0907425
-0.971485
0.962664
0.0828192
-0.074354
-0.798594
0.790128
0.0668635
-0.0589449
-0.658818
0.6509
0.0519966
-0.0447237
-0.544988
0.537715
0.0383956
-0.0317825
-0.451878
0.445265
0.0260195
-0.0199635
-0.375153
0.369097
0.0145269
-0.00831989
-0.303353
0.297146
0.00296922
-0.104124
0.101155
-0.164588
0.166967
-0.00237926
0.0190035
-0.0278146
-0.426427
0.435238
0.0380472
-0.0481452
-0.505221
0.515319
0.0596521
-0.0708782
-0.595637
0.606863
0.0828899
-0.0935641
-0.701023
0.711697
0.105358
-0.115799
-0.821705
0.832145
0.126611
-0.135859
-0.959918
0.969167
0.145009
-0.152303
-1.11689
1.12419
0.158723
-0.162865
-1.29453
1.29867
0.164935
-0.164074
-1.49538
1.49452
0.160187
-0.15369
-1.44262
1.43612
0.14616
-0.136655
-1.16868
1.15918
0.127383
-0.116303
-0.953212
0.942131
0.10607
-0.0947161
-0.781089
0.769736
0.0844312
-0.0733442
-0.642352
0.631265
0.0632556
-0.0528309
-0.529588
0.519163
0.0440434
-0.0347044
-0.437458
0.428119
0.0268229
-0.0188356
-0.361628
0.35364
0.0118211
-0.00498479
-0.29056
0.283724
0.00064066
-0.0977805
0.0971399
-0.176764
0.171855
0.00490981
0.000487416
-0.00712497
-0.448366
0.455004
0.0161873
-0.0249287
-0.527134
0.535875
0.0354142
-0.0450497
-0.617862
0.627498
0.0558029
-0.0655764
-0.722462
0.732235
0.0760277
-0.0854817
-0.842285
0.851739
0.0953205
-0.103497
-0.978351
0.986528
0.111834
-0.118173
-1.13158
1.13792
0.123755
-0.127084
-1.30284
1.30616
0.128211
-0.12668
-1.49321
1.49168
0.122288
-0.115522
-1.4292
1.42243
0.10777
-0.0983475
-1.14955
1.14013
0.0894005
-0.0793161
-0.931216
0.921131
0.0700046
-0.0597631
-0.758441
0.7482
0.0506827
-0.0413534
-0.619799
0.61047
0.0334477
-0.0253644
-0.507912
0.499829
0.0187145
-0.0124345
-0.416693
0.410413
0.00769143
-0.00332976
-0.342228
0.337866
0.000230854
0.00198915
-0.273589
0.271369
-0.00220414
-0.0920858
0.09429
-0.178326
0.175099
0.00322721
-0.000288311
-0.00411853
-0.46494
0.469347
0.010394
-0.017163
-0.545158
0.551927
0.0252544
-0.0330855
-0.636822
0.644653
0.0419677
-0.0502147
-0.741497
0.749744
0.0593497
-0.067561
-0.860612
0.868824
0.075989
-0.0833863
-0.994665
1.00206
0.0907968
-0.0965824
-1.14407
1.14986
0.101331
-0.104014
-1.30915
1.31183
0.104852
-0.103065
-1.48982
1.48803
0.0986534
-0.0921388
-1.41546
1.40895
0.0849444
-0.0765492
-1.13105
1.12265
0.0684213
-0.0596366
-0.911299
0.902515
0.0516967
-0.0431481
-0.738883
0.730334
0.0358918
-0.0284532
-0.601631
0.594192
0.0223134
-0.0159824
-0.491502
0.485171
0.0110596
-0.00654594
-0.402474
0.39796
0.00325833
-0.00055584
-0.330058
0.327356
-0.00123351
0.00244958
-0.26399
0.262774
-0.00216742
-0.0898607
0.0920281
-0.181119
0.17813
0.00298895
-0.00117794
-0.00241086
-0.477322
0.48091
0.00752346
-0.0133565
-0.559139
0.564972
0.0204432
-0.0270886
-0.652179
0.658824
0.0348159
-0.042041
-0.757808
0.765033
0.0500373
-0.0572832
-0.876708
0.883954
0.0651449
-0.0717286
-1.00922
1.0158
0.0785665
-0.0835512
-1.15549
1.16047
0.0879808
-0.0904868
-1.31456
1.31707
0.0911293
-0.0891496
-1.48612
1.48414
0.0850766
-0.0791149
-1.40223
1.39627
0.0725505
-0.0646782
-1.11439
1.10652
0.0574372
-0.0497201
-0.893858
0.886141
0.0427004
-0.0355292
-0.722288
0.715116
0.0291422
-0.0228077
-0.586816
0.580482
0.0175304
-0.0123654
-0.478714
0.473549
0.00833291
-0.00452423
-0.391697
0.387889
0.00172914
0.000241561
-0.321041
0.31907
-0.00178796
0.00262833
-0.256837
0.255997
-0.00202898
-0.0880121
0.0900411
-0.184163
0.18166
0.00250303
-0.00107718
-0.0020262
-0.487832
0.490936
0.00705317
-0.0122235
-0.57138
0.57655
0.0183662
-0.0245918
-0.665533
0.671759
0.0314321
-0.0380969
-0.77203
0.778695
0.0453998
-0.0520772
-0.891016
0.897693
0.0592897
-0.0655648
-1.02247
1.02874
0.0718656
-0.0768536
-1.16555
1.17054
0.0811192
-0.083564
-1.31947
1.32192
0.0842355
-0.0823956
-1.4822
1.48036
0.078564
-0.0727628
-1.38985
1.38405
0.0665864
-0.059356
-1.09876
1.09153
0.0526431
-0.0453897
-0.87834
0.871087
0.0390103
-0.0323839
-0.707887
0.70126
0.0266928
-0.0209274
-0.574141
0.568376
0.01619
-0.0115398
-0.467924
0.463274
0.00772598
-0.00421791
-0.382679
0.379171
0.00184977
0.000166115
-0.313712
0.311696
-0.00169295
0.00231142
-0.25084
0.250221
-0.00189126
-0.0864305
0.0883218
-0.187265
0.18501
0.00225507
-0.000700332
-0.00263597
-0.497225
0.500562
0.00706049
-0.0120354
-0.582013
0.586988
0.0181727
-0.0239028
-0.677681
0.683411
0.0303122
-0.036585
-0.785053
0.791326
0.0435771
-0.0500214
-0.904298
0.910742
0.0571311
-0.0631548
-1.03498
1.04101
0.0693845
-0.0743728
-1.17548
1.18047
0.0786529
-0.0811739
-1.32431
1.32684
0.0819615
-0.0805866
-1.47853
1.47715
0.0768642
-0.0713502
-1.37785
1.37234
0.0653153
-0.0582427
-1.08409
1.07702
0.0518902
-0.044732
-0.863685
0.856526
0.0385075
-0.0321948
-0.694516
0.688204
0.0267386
-0.0212098
-0.562598
0.557069
0.016618
-0.0119607
-0.458173
0.453516
0.00843023
-0.00500724
-0.374491
0.371068
0.00236882
-0.000305873
-0.306856
0.304793
-0.00113342
0.0020039
-0.245499
0.244628
-0.00167614
-0.0849488
0.086625
-0.190342
0.188574
0.0017676
0.0001323
-0.00343849
-0.506134
0.50944
0.00805661
-0.0126681
-0.592411
0.597022
0.0186609
-0.0242523
-0.689192
0.694783
0.0307865
-0.0367713
-0.797642
0.803627
0.0435614
-0.0498479
-0.917422
0.923708
0.0570975
-0.0631431
-1.04732
1.05336
0.0693544
-0.07458
-1.18551
1.19074
0.079435
-0.0821821
-1.32954
1.33229
0.0833402
-0.082105
-1.47544
1.47421
0.0787727
-0.0730715
-1.36647
1.36077
0.0671407
-0.0601351
-1.06959
1.06258
0.0536
-0.0465457
-0.849187
0.842133
0.040239
-0.0337176
-0.681474
0.674952
0.0284223
-0.0227886
-0.551276
0.545642
0.0180622
-0.0134937
-0.448534
0.443965
0.00975523
-0.00607691
-0.366684
0.363006
0.00338476
-0.00112852
-0.300428
0.298171
-0.000421178
0.0015459
-0.24034
0.239215
-0.00151219
-0.0834793
0.0849915
-0.193665
0.192239
0.00142652
0.00094385
-0.00424095
-0.514679
0.517976
0.00908181
-0.0138202
-0.602503
0.607241
0.019712
-0.0251918
-0.700478
0.705958
0.03145
-0.0376485
-0.809924
0.816122
0.0444743
-0.0512685
-0.930098
0.936892
0.0582988
-0.0645925
-1.05976
1.06605
0.0713913
-0.076838
-1.19609
1.20153
0.0817394
-0.0852671
-1.33512
1.33865
0.0869372
-0.0861044
-1.47299
1.47215
0.0828504
-0.077354
-1.35495
1.34946
0.0712734
-0.0639775
-1.05491
1.04761
0.0572112
-0.0498288
-0.834602
0.82722
0.043282
-0.0366343
-0.668156
0.661508
0.0308511
-0.0250702
-0.539664
0.533883
0.0202643
-0.0153691
-0.438947
0.434051
0.0113675
-0.00769412
-0.358558
0.354885
0.00473685
-0.00211129
-0.293875
0.291249
0.00026913
0.00108132
-0.235165
0.233815
-0.00135673
-0.0821472
0.0835039
-0.197346
0.196094
0.00125237
0.00195976
-0.00547438
-0.523147
0.526662
0.0102529
-0.0151182
-0.612568
0.617434
0.0208942
-0.0265334
-0.711823
0.717462
0.0329608
-0.0390917
-0.822452
0.828583
0.0464138
-0.0528408
-0.943431
0.949858
0.0602696
-0.0668267
-1.07275
1.07931
0.0740123
-0.0801082
-1.20722
1.21331
0.0858022
-0.0895959
-1.34215
1.34594
0.0919996
-0.0917241
-1.47122
1.47094
0.0889498
-0.083327
-1.34349
1.33786
0.0770493
-0.0693196
-1.03988
1.03215
0.0621168
-0.0541667
-0.819156
0.811206
0.0472524
-0.0400312
-0.65426
0.647039
0.0338952
-0.0277138
-0.527658
0.521477
0.0225217
-0.0175271
-0.428771
0.423777
0.0132379
-0.00926279
-0.350161
0.346186
0.00596153
-0.00308348
-0.287001
0.284123
0.00103439
0.000705512
-0.229701
0.227961
-0.00113528
-0.0808506
0.0819859
-0.200949
0.200111
0.000838004
0.00275214
-0.00673947
-0.531783
0.53577
0.0113902
-0.0163703
-0.622328
0.627308
0.0220059
-0.027748
-0.723219
0.728961
0.0342881
-0.0408318
-0.834898
0.841442
0.0479144
-0.054836
-0.956748
0.963669
0.0626449
-0.0694087
-1.08653
1.0933
0.077172
-0.0837381
-1.21951
1.22608
0.0900832
-0.0949034
-1.35034
1.35516
0.0982644
-0.0985758
-1.47073
1.47104
0.0960517
-0.0906532
-1.33198
1.32658
0.0842122
-0.0758678
-1.02366
1.01532
0.0679482
-0.0594114
-0.802543
0.794006
0.0515364
-0.0438298
-0.639124
0.631418
0.0371869
-0.0304574
-0.514959
0.50823
0.0250207
-0.0195858
-0.418046
0.412611
0.0150991
-0.0106812
-0.341487
0.337069
0.00724457
-0.00406472
-0.27983
0.27665
0.00160895
0.000395083
-0.22401
0.222006
-0.00105141
-0.0795245
0.0805759
-0.204786
0.204161
0.000624745
0.0034192
-0.00725201
-0.540558
0.544391
0.0125092
-0.0172732
-0.632494
0.637258
0.0231906
-0.0289792
-0.734595
0.740384
0.0356089
-0.0420249
-0.847956
0.854372
0.0495206
-0.0564366
-0.970842
0.977758
0.0645738
-0.072141
-1.10076
1.10833
0.0800647
-0.0874426
-1.23297
1.24035
0.0948102
-0.100345
-1.36017
1.36571
0.104772
-0.106304
-1.47162
1.47315
0.104345
-0.0992867
-1.32068
1.31562
0.0923454
-0.0833742
-1.00624
0.997272
0.0746845
-0.0650212
-0.784335
0.774672
0.0563817
-0.0476974
-0.62266
0.613976
0.0403708
-0.0329895
-0.500984
0.493603
0.0270177
-0.0212664
-0.406654
0.400903
0.0163921
-0.0117747
-0.332159
0.327541
0.00808477
-0.0046483
-0.272252
0.268816
0.00206105
0.000141165
-0.218127
0.215924
-0.000960721
-0.0784542
0.0794149
-0.208793
0.208419
0.000373414
0.00431176
-0.00820042
-0.549327
0.553216
0.0132099
-0.0181946
-0.642464
0.647449
0.02411
-0.0298789
-0.746078
0.751846
0.0367743
-0.0432314
-0.861007
0.867464
0.0508156
-0.0581063
-0.985369
0.992659
0.0664553
-0.074338
-1.11602
1.12391
0.0829465
-0.0908605
-1.24799
1.2559
0.0990749
-0.106047