/*--------------------------------*- C++ -*----------------------------------*\
| =========                 |                                                 |
| \\      /  F ield         | OpenFOAM: The Open Source CFD Toolbox           |
|  \\    /   O peration     | Version:  2112                                  |
|   \\  /    A nd           | Website:  www.openfoam.com                      |
|    \\/     M anipulation  |                                                 |
\*---------------------------------------------------------------------------*/
FoamFile
{
    version     2.0;
    format      ascii;
    arch        "LSB;label=32;scalar=64";
    class       volVectorField;
    location    "1.5";
    object      U;
}
// * * * * * * * * * * * * * * * * * * * * * * * * * * * * * * * * * * * * * //

dimensions      [0 1 -1 0 0 0 0];

internalField   nonuniform List<vector> 
8800
(
(0.969798 -0.0835978 0)
(1.01004 -0.0558007 0)
(0.998078 -0.0330099 0)
(0.993608 -0.0199906 0)
(0.991797 -0.0126633 0)
(0.991083 -0.00840373 0)
(0.990822 -0.00569411 0)
(0.990634 -0.00370697 0)
(0.990435 -0.00195626 0)
(0.990334 -0.000303701 0)
(0.99036 0.00132001 0)
(0.990508 0.00297305 0)
(0.990718 0.00479694 0)
(0.990869 0.00700748 0)
(0.991307 0.0103405 0)
(0.992461 0.0158733 0)
(0.995284 0.0256223 0)
(1.00256 0.0428798 0)
(1.01278 0.0716421 0)
(0.758399 0.0469844 0)
(0.491539 -0.00918701 0)
(1.05373 -0.0284042 0)
(1.06091 -0.0294963 0)
(1.04313 -0.0285093 0)
(1.03025 -0.0251727 0)
(1.02207 -0.0203329 0)
(1.01713 -0.0152334 0)
(1.01432 -0.0105707 0)
(1.0128 -0.00638384 0)
(1.01204 -0.00248316 0)
(1.0119 0.00138642 0)
(1.01232 0.00523359 0)
(1.01337 0.00914609 0)
(1.01546 0.0134307 0)
(1.0192 0.0182444 0)
(1.02562 0.0232298 0)
(1.03601 0.0273413 0)
(1.05148 0.0295264 0)
(1.06685 0.0293776 0)
(0.93499 0.0274108 0)
(0.421525 0.000417365 0)
(1.03417 -0.00863856 0)
(1.03164 -0.0139643 0)
(1.02514 -0.0162242 0)
(1.01883 -0.0160382 0)
(1.01333 -0.0142397 0)
(1.00908 -0.011444 0)
(1.00611 -0.00809617 0)
(1.00423 -0.00448 0)
(1.00346 -0.000367815 0)
(1.00365 0.00374005 0)
(1.00489 0.00753488 0)
(1.00718 0.0108778 0)
(1.01074 0.0137944 0)
(1.01557 0.0160514 0)
(1.0215 0.0169899 0)
(1.02793 0.0159125 0)
(1.0341 0.0118936 0)
(1.01009 0.00508403 0)
(0.421192 -0.000399652 0)
(0.424085 -6.92548e-05 0)
(1.02493 -0.00248444 0)
(1.02685 -0.00503076 0)
(1.02461 -0.00730822 0)
(1.0214 -0.008754 0)
(1.01789 -0.00905629 0)
(1.01461 -0.00810281 0)
(1.01185 -0.00615011 0)
(1.00983 -0.00341511 0)
(1.00902 -0.000101156 0)
(1.00917 0.00331615 0)
(1.0106 0.00623405 0)
(1.01261 0.00845484 0)
(1.0156 0.00969299 0)
(1.01903 0.00979276 0)
(1.0223 0.00868006 0)
(1.02498 0.00663041 0)
(1.02651 0.00406006 0)
(1.00054 0.001503 0)
(0.423547 8.44949e-05 0)
(0.42185 -6.7001e-05 0)
(1.01904 -0.00136967 0)
(1.02149 -0.00251655 0)
(1.02062 -0.00363117 0)
(1.01921 -0.00451713 0)
(1.01742 -0.0049057 0)
(1.0154 -0.00465187 0)
(1.01342 -0.00364805 0)
(1.01181 -0.00189651 0)
(1.011 0.000370483 0)
(1.01107 0.0026935 0)
(1.01215 0.00446824 0)
(1.01359 0.00558325 0)
(1.01549 0.00594562 0)
(1.01734 0.00558951 0)
(1.01888 0.00469113 0)
(1.01998 0.00347143 0)
(1.02044 0.00215274 0)
(0.994668 0.000905371 0)
(0.421018 6.99167e-05 0)
(0.420801 -3.34875e-05 0)
(1.01672 -0.000677503 0)
(1.01944 -0.00122414 0)
(1.01898 -0.00179097 0)
(1.01824 -0.00228479 0)
(1.0172 -0.00256809 0)
(1.01592 -0.00249546 0)
(1.01454 -0.00193564 0)
(1.01328 -0.000829458 0)
(1.01248 0.000723613 0)
(1.01244 0.00230025 0)
(1.01312 0.00338693 0)
(1.01412 0.003884 0)
(1.01525 0.00386977 0)
(1.01627 0.00343727 0)
(1.01706 0.00275193 0)
(1.01759 0.00197082 0)
(1.01767 0.00119811 0)
(0.991887 0.000508008 0)
(0.419863 4.40297e-05 0)
(0.420267 -1.32705e-05 0)
(1.01554 -0.000292733 0)
(1.01838 -0.000549331 0)
(1.01813 -0.000811542 0)
(1.0177 -0.00103939 0)
(1.01707 -0.00116021 0)
(1.01624 -0.00108195 0)
(1.01526 -0.000703196 0)
(1.01429 3.69574e-05 0)
(1.01355 0.00109167 0)
(1.01335 0.00211658 0)
(1.01367 0.00273642 0)
(1.01423 0.00290798 0)
(1.01484 0.00273675 0)
(1.01538 0.00233419 0)
(1.01578 0.00181982 0)
(1.01604 0.00127867 0)
(1.01596 0.000774618 0)
(0.990188 0.000328658 0)
(0.419076 3.01265e-05 0)
(0.42008 -2.52982e-06 0)
(1.01506 -7.76998e-05 0)
(1.01795 -0.000152987 0)
(1.0178 -0.000224651 0)
(1.01752 -0.000266912 0)
(1.0171 -0.000243035 0)
(1.01651 -9.87726e-05 0)
(1.01577 0.000228852 0)
(1.01497 0.000775509 0)
(1.01425 0.00150133 0)
(1.01388 0.00214173 0)
(1.0139 0.00244961 0)
(1.01412 0.00241825 0)
(1.0144 0.00216613 0)
(1.01464 0.00178784 0)
(1.01482 0.00136227 0)
(1.01494 0.000950959 0)
(1.01479 0.000571397 0)
(0.989024 0.000247786 0)
(0.41852 2.35341e-05 0)
(0.420093 6.36438e-06 0)
(1.01503 5.80411e-05 0)
(1.01793 0.00010733 0)
(1.01782 0.000175754 0)
(1.01762 0.000273406 0)
(1.01729 0.000424102 0)
(1.01683 0.000654885 0)
(1.01621 0.000996013 0)
(1.01548 0.00145599 0)
(1.01471 0.00198211 0)
(1.01417 0.0023592 0)
(1.01392 0.00243719 0)
(1.01387 0.0022726 0)
(1.01391 0.00195629 0)
(1.01397 0.00157385 0)
(1.01402 0.00118407 0)
(1.01405 0.000817798 0)
(1.01385 0.000493052 0)
(0.988096 0.000213699 0)
(0.418068 2.11692e-05 0)
(0.420266 1.26747e-05 0)
(1.01531 0.00017646 0)
(1.01822 0.000321122 0)
(1.01813 0.000497447 0)
(1.01795 0.000713802 0)
(1.01766 0.000980647 0)
(1.01724 0.00130992 0)
(1.01665 0.00170588 0)
(1.0159 0.00215061 0)
(1.01503 0.00256778 0)
(1.01427 0.00276925 0)
(1.01379 0.00268111 0)
(1.01352 0.00239096 0)
(1.01337 0.00200012 0)
(1.01329 0.00157955 0)
(1.01325 0.00117446 0)
(1.01323 0.000806445 0)
(1.013 0.000487821 0)
(0.98724 0.000212657 0)
(0.417645 2.16107e-05 0)
(0.420567 1.96115e-05 0)
(1.01587 0.000280008 0)
(1.01877 0.000516292 0)
(1.01868 0.000796112 0)
(1.0185 0.00112867 0)
(1.01821 0.00151702 0)
(1.01777 0.00196063 0)
(1.01714 0.00244565 0)
(1.01629 0.00292625 0)
(1.01525 0.00329757 0)
(1.01425 0.00337578 0)
(1.01352 0.00314587 0)
(1.01304 0.00273366 0)
(1.01273 0.0022468 0)
(1.01254 0.00175454 0)
(1.01243 0.00129581 0)
(1.01236 0.000887684 0)
(1.01211 0.000535686 0)
(0.98635 0.00023462 0)
(0.417197 2.39552e-05 0)
(0.421004 2.66718e-05 0)
(1.01669 0.000391886 0)
(1.01959 0.00072318 0)
(1.01949 0.00111596 0)
(1.01928 0.00157344 0)
(1.01895 0.00209831 0)
(1.01845 0.00267984 0)
(1.01772 0.00328655 0)
(1.01671 0.00384599 0)
(1.01542 0.00421818 0)
(1.01412 0.00420509 0)
(1.01312 0.00383818 0)
(1.01242 0.0032859 0)
(1.01196 0.00267348 0)
(1.01166 0.00207497 0)
(1.01147 0.00152666 0)
(1.01137 0.00104534 0)
(1.01109 0.000630788 0)
(0.985331 0.00027789 0)
(0.416681 2.86409e-05 0)
(0.421595 3.55217e-05 0)
(1.01781 0.000521652 0)
(1.0207 0.000964275 0)
(1.02057 0.00148475 0)
(1.02033 0.00209154 0)
(1.01993 0.0027801 0)
(1.01933 0.00353266 0)
(1.01843 0.00429891 0)
(1.01719 0.00497879 0)
(1.01557 0.0053877 0)
(1.01389 0.00529753 0)
(1.01257 0.00478272 0)
(1.01163 0.00406373 0)
(1.01099 0.00328937 0)
(1.01058 0.00254398 0)
(1.01032 0.00186782 0)
(1.01017 0.00127692 0)
(1.00987 0.000769995 0)
(0.984106 0.000339036 0)
(0.416059 3.51892e-05 0)
(0.422373 4.61815e-05 0)
(1.01928 0.000681106 0)
(1.02216 0.00125788 0)
(1.022 0.0019383 0)
(1.0217 0.00272587 0)
(1.0212 0.00361743 0)
(1.02045 0.00458339 0)
(1.01933 0.00555658 0)
(1.01776 0.00640061 0)
(1.01571 0.00687785 0)
(1.01356 0.00671284 0)
(1.01184 0.00602464 0)
(1.01061 0.00509728 0)
(1.00978 0.00411437 0)
(1.00923 0.00317626 0)
(1.00889 0.00233034 0)
(1.00869 0.0015916 0)
(1.00836 0.000960561 0)
(0.982594 0.000422541 0)
(0.415288 4.40077e-05 0)
(0.423382 5.99929e-05 0)
(1.0212 0.000881642 0)
(1.02405 0.00162855 0)
(1.02384 0.00250586 0)
(1.02346 0.00352323 0)
(1.02284 0.0046699 0)
(1.02188 0.00590857 0)
(1.02046 0.00714624 0)
(1.01847 0.00820409 0)
(1.01585 0.00877877 0)
(1.0131 0.0085307 0)
(1.01089 0.00762984 0)
(1.00932 0.00643909 0)
(1.00824 0.00518827 0)
(1.00753 0.00400063 0)
(1.00709 0.00293366 0)
(1.00683 0.00200341 0)
(1.00647 0.00121017 0)
(0.980694 0.000532964 0)
(0.41432 5.52087e-05 0)
(0.424689 7.77176e-05 0)
(1.02367 0.00113773 0)
(1.02649 0.00210024 0)
(1.02622 0.00323164 0)
(1.02573 0.00454 0)
(1.02494 0.00601321 0)
(1.0237 0.00759762 0)
(1.02189 0.0091723 0)
(1.01934 0.0105048 0)
(1.016 0.0112052 0)
(1.01249 0.0108543 0)
(1.00968 0.00968414 0)
(1.00766 0.00815902 0)
(1.00628 0.00656731 0)
(1.00538 0.00506147 0)
(1.00482 0.00370861 0)
(1.00449 0.00253251 0)
(1.00409 0.00152806 0)
(0.9783 0.000673215 0)
(0.413102 6.94735e-05 0)
(0.42638 0.000100719 0)
(1.02686 0.00146797 0)
(1.02964 0.00270895 0)
(1.02929 0.00416642 0)
(1.02865 0.0058497 0)
(1.02762 0.00773987 0)
(1.02603 0.00976649 0)
(1.0237 0.0117694 0)
(1.02044 0.0134477 0)
(1.01616 0.0143024 0)
(1.01169 0.0138157 0)
(1.00811 0.0123014 0)
(1.00555 0.0103502 0)
(1.0038 0.00832268 0)
(1.00266 0.00640961 0)
(1.00195 0.0046947 0)
(1.00152 0.00320592 0)
(1.00107 0.00193322 0)
(0.975268 0.000851438 0)
(0.41156 8.81314e-05 0)
(0.428571 0.000131198 0)
(1.03098 0.00189895 0)
(1.0337 0.00350075 0)
(1.03324 0.00537943 0)
(1.03241 0.00754666 0)
(1.03107 0.00997475 0)
(1.02901 0.0125672 0)
(1.02599 0.0151119 0)
(1.0218 0.017219 0)
(1.01633 0.0182546 0)
(1.01064 0.0175815 0)
(1.0061 0.015621 0)
(1.00286 0.013126 0)
(1.00065 0.0105471 0)
(0.999206 0.00811836 0)
(0.998302 0.00594542 0)
(0.997767 0.00405747 0)
(0.997254 0.00244796 0)
(0.971437 0.00107722 0)
(0.409612 0.000111706 0)
(0.431423 0.000171907 0)
(1.0363 0.00246417 0)
(1.03894 0.00453879 0)
(1.03833 0.00696846 0)
(1.03724 0.00976493 0)
(1.03549 0.012886 0)
(1.0328 0.0162005 0)
(1.02889 0.019427 0)
(1.02349 0.0220588 0)
(1.01649 0.0232933 0)
(1.00927 0.0223579 0)
(1.00352 0.0198216 0)
(0.999431 0.0166328 0)
(0.996644 0.0133541 0)
(0.994822 0.0102753 0)
(0.993682 0.00752229 0)
(0.993008 0.0051314 0)
(0.992418 0.00309473 0)
(0.966584 0.00136054 0)
(0.407152 0.000140172 0)
(0.435159 0.000227013 0)
(1.04321 0.00321603 0)
(1.04574 0.00591401 0)
(1.04492 0.00906805 0)
(1.04348 0.0126867 0)
(1.04116 0.0167073 0)
(1.03763 0.0209436 0)
(1.03253 0.0250188 0)
(1.02555 0.0282767 0)
(1.01661 0.0297095 0)
(1.00745 0.0283999 0)
(1.00022 0.0251163 0)
(0.995071 0.0210509 0)
(0.991568 0.0168901 0)
(0.989276 0.0129905 0)
(0.987841 0.00950785 0)
(0.986993 0.00648724 0)
(0.986307 0.00391065 0)
(0.960453 0.00171878 0)
(0.404049 0.000176547 0)
(0.440095 0.000304116 0)
(1.05223 0.00423085 0)
(1.05461 0.00776576 0)
(1.0535 0.0118842 0)
(1.05155 0.0165875 0)
(1.04845 0.0217735 0)
(1.04376 0.0271797 0)
(1.03706 0.0322939 0)
(1.02802 0.0362698 0)
(1.01661 0.0378606 0)
(1.00506 0.0360142 0)
(0.995985 0.0317664 0)
(0.98954 0.0265944 0)
(0.985146 0.0213321 0)
(0.982267 0.0164086 0)
(0.980461 0.01201 0)
(0.979391 0.00819344 0)
(0.978581 0.00493896 0)
(0.952701 0.00216987 0)
(0.400135 0.000222501 0)
(0.44671 0.000415093 0)
(1.06412 0.00563715 0)
(1.06627 0.0103125 0)
(1.06472 0.0157338 0)
(1.06204 0.02188 0)
(1.0578 0.0285837 0)
(1.05149 0.0354551 0)
(1.04263 0.0418015 0)
(1.03091 0.0465449 0)
(1.0164 0.0481779 0)
(1.0019 0.0455567 0)
(0.990589 0.040077 0)
(0.982551 0.0335323 0)
(0.97705 0.026907 0)
(0.973426 0.0207094 0)
(0.971142 0.0151693 0)
(0.969785 0.0103542 0)
(0.968815 0.0062423 0)
(0.942905 0.00274086 0)
(0.3952 0.000280819 0)
(0.455764 0.000583928 0)
(1.08 0.00765948 0)
(1.08177 0.0139364 0)
(1.07952 0.0211543 0)
(1.0757 0.0292422 0)
(1.06976 0.0379047 0)
(1.06114 0.0465645 0)
(1.04933 0.054285 0)
(1.03413 0.0597299 0)
(1.01576 0.0611585 0)
(0.997734 0.0574311 0)
(0.983746 0.0503995 0)
(0.973779 0.0421854 0)
(0.9669 0.0339085 0)
(0.962322 0.0261514 0)
(0.959407 0.0191879 0)
(0.957661 0.0131132 0)
(0.956469 0.00791399 0)
(0.930509 0.00347742 0)
(0.388957 0.000356549 0)
(0.468599 0.000865057 0)
(1.10157 0.0107894 0)
(1.10267 0.0194017 0)
(1.09921 0.0291528 0)
(1.0935 0.0398526 0)
(1.0849 0.0509802 0)
(1.07287 0.0616708 0)
(1.05705 0.0707186 0)
(1.0374 0.0765749 0)
(1.01437 0.0773431 0)
(0.992229 0.0720521 0)
(0.975141 0.063111 0)
(0.96288 0.0529377 0)
(0.954284 0.0427303 0)
(0.948442 0.0331174 0)
(0.94464 0.0244127 0)
(0.94232 0.0167514 0)
(0.940795 0.0101424 0)
(0.914743 0.00447122 0)
(0.380986 0.00046134 0)
(0.488 0.00143668 0)
(1.13165 0.0164573 0)
(1.13138 0.0285832 0)
(1.12551 0.0418652 0)
(1.11634 0.0559014 0)
(1.10341 0.0698096 0)
(1.0864 0.08241 0)
(1.06521 0.0923121 0)
(1.04008 0.0978912 0)
(1.01165 0.0972549 0)
(0.984914 0.0898035 0)
(0.964382 0.0785841 0)
(0.949494 0.0662247 0)
(0.938805 0.05391 0)
(0.931274 0.0422379 0)
(0.926153 0.0315155 0)
(0.922888 0.0219084 0)
(0.92078 0.0134621 0)
(0.894521 0.00606628 0)
(0.370573 0.000637123 0)
(0.519567 0.00326856 0)
(1.17564 0.0294552 0)
(1.17151 0.0464066 0)
(1.16006 0.0637719 0)
(1.14439 0.0811607 0)
(1.12455 0.0972756 0)
(1.10057 0.110771 0)
(1.0726 0.120315 0)
(1.04108 0.124404 0)
(1.00675 0.121302 0)
(0.975203 0.110966 0)
(0.951096 0.0971178 0)
(0.933393 0.082483 0)
(0.92029 0.0681165 0)
(0.910594 0.0545203 0)
(0.903512 0.0418947 0)
(0.898538 0.0303956 0)
(0.895069 0.0199006 0)
(0.868357 0.0100792 0)
(0.357034 0.00109873 0)
(0.566554 0.0181393 1.14829e-19)
(1.23904 0.0628161 1.02452e-19)
(1.22356 0.0817495 -3.52631e-20)
(1.20125 0.101382 0)
(1.17567 0.120036 -8.08166e-34)
(1.14671 0.136122 1.15685e-20)
(1.1143 0.148532 -1.93523e-20)
(1.07858 0.156131 0)
(1.03997 0.157523 3.6536e-34)
(0.999177 0.151076 -2.08508e-20)
(0.962397 0.137401 0)
(0.934345 0.120853 -2.333e-20)
(0.91337 0.104168 -6.78516e-20)
(0.897245 0.0882274 -3.17614e-20)
(0.884564 0.0735174 -9.39536e-21)
(0.874357 0.0602432 -5.5512e-21)
(0.865985 0.0488157 0)
(0.858766 0.0390608 3.89448e-21)
(0.830583 0.0301652 4.60533e-21)
(0.339817 0.010559 8.32132e-20)
(0.593415 0.053039 9.94802e-20)
(1.2951 0.124094 5.27455e-22)
(1.26971 0.139631 1.02094e-20)
(1.23802 0.156535 0)
(1.20364 0.172535 -4.34569e-20)
(1.16633 0.186174 -4.76223e-20)
(1.12596 0.196149 -2.01311e-20)
(1.08257 0.201195 -6.69019e-20)
(1.03645 0.199757 0)
(0.988247 0.190189 8.86731e-20)
(0.944796 0.173581 8.52229e-20)
(0.911348 0.154917 2.46555e-20)
(0.885898 0.136965 8.73254e-20)
(0.86581 0.120566 1.20567e-19)
(0.849378 0.106047 0)
(0.835499 0.0938084 1.68213e-19)
(0.823448 0.0839745 2.42075e-19)
(0.812621 0.0769242 2.69569e-19)
(0.78461 0.0703127 -3.08253e-19)
(0.323474 0.0289918 -5.44548e-21)
(0.598202 0.0888728 0)
(1.33139 0.20181 2.2728e-20)
(1.30178 0.211339 0)
(1.26454 0.222533 -6.88442e-20)
(1.22398 0.233609 0)
(1.18021 0.243008 -9.83647e-20)
(1.13324 0.249225 4.21281e-20)
(1.08317 0.250688 -1.39026e-19)
(1.03039 0.245683 -1.21612e-21)
(0.975572 0.232434 4.64461e-20)
(0.926406 0.212646 1.83138e-19)
(0.888657 0.1919 8.34064e-23)
(0.860002 0.172961 -6.24197e-20)
(0.837501 0.15641 -1.10619e-19)
(0.819344 0.142387 1.30574e-19)
(0.804388 0.130961 -2.30476e-19)
(0.791805 0.122144 -3.03954e-20)
(0.780927 0.115863 0)
(0.753638 0.109259 1.31688e-21)
(0.313748 0.0457326 0)
(0.603099 0.123046 3.82577e-19)
(1.35252 0.277799 -1.81952e-19)
(1.32111 0.283792 -1.19098e-19)
(1.28099 0.291027 3.54856e-20)
(1.23665 0.297997 -5.80628e-20)
(1.1883 0.303268 2.0858e-19)
(1.13608 0.305487 8.89348e-20)
(1.08032 0.30301 0)
(1.0216 0.29403 -2.44068e-19)
(0.960821 0.276665 0)
(0.906679 0.253249 -9.63221e-20)
(0.865544 0.230019 -1.13524e-19)
(0.83474 0.209614 -6.65325e-20)
(0.810954 0.192353 -7.88465e-20)
(0.792136 0.178098 0)
(0.776935 0.166629 0)
(0.764431 0.15782 -1.94822e-19)
(0.753787 0.151423 3.83187e-20)
(0.727243 0.14397 -2.27172e-20)
(0.30426 0.0605575 -2.63863e-20)
(0.607072 0.155788 -2.29512e-19)
(1.3658 0.35198 0)
(1.33289 0.355563 2.86923e-19)
(1.29053 0.35968 1.10101e-19)
(1.24329 0.363128 1.27316e-19)
(1.19131 0.364735 0)
(1.13477 0.363214 9.1836e-20)
(1.07412 0.356838 1.56057e-19)
(1.01011 0.343728 1.27819e-19)
(0.943988 0.321909 2.122e-19)
(0.885512 0.294377 0)
(0.841678 0.268085 -2.40678e-19)
(0.809418 0.245602 -1.40562e-19)
(0.784964 0.227002 -8.16825e-20)
(0.765979 0.211865 4.88816e-19)
(0.750923 0.19979 5.76579e-20)
(0.738713 0.190457 2.73758e-19)
(0.728464 0.183554 -1.30136e-18)
(0.702776 0.174951 7.70324e-19)
(0.295293 0.0737964 -9.32282e-19)
(0.610197 0.187257 -2.03349e-19)
(1.37361 0.423607 4.78806e-20)
(1.33933 0.425539 -4.1544e-20)
(1.29516 0.427169 -1.45333e-19)
(1.24552 0.427769 -1.27482e-19)
(1.19047 0.426247 1.55612e-21)
(1.13017 0.421334 -9.86559e-20)
(1.06513 0.411265 1.64391e-19)
(0.99627 0.394027 -2.73232e-19)
(0.925162 0.367536 0)
(0.862745 0.335377 -1.11317e-19)
(0.816658 0.305386 -3.45784e-22)
(0.7834 0.280227 -1.49874e-19)
(0.758673 0.259702 0)
(0.739841 0.243203 -1.03625e-19)
(0.725174 0.23005 -2.43619e-19)
(0.713436 0.219931 6.51203e-19)
(0.703683 0.212312 -6.44246e-19)
(0.67898 0.202349 9.13017e-19)
(0.286391 0.0854447 -9.52652e-19)
(0.612707 0.217613 -2.25225e-21)
(1.37781 0.492635 -4.74361e-20)
(1.34211 0.493351 -1.68267e-19)
(1.29631 0.493008 7.38638e-20)
(1.2445 0.49128 -6.72549e-20)
(1.18668 0.487147 0)
(1.12297 0.479189 -1.00477e-19)
(1.05387 0.465713 -1.74369e-19)
(0.980396 0.444449 -1.44355e-19)
(0.904468 0.413117 0)
(0.838258 0.375837 -1.16111e-19)
(0.790174 0.341548 -1.35169e-19)
(0.756204 0.313117 1.5852e-19)
(0.731538 0.290116 -9.39534e-20)
(0.71312 0.271827 -4.34662e-19)
(0.699018 0.25738 2.56891e-19)
(0.687939 0.246082 7.6353e-20)
(0.678765 0.237668 0)
(0.655149 0.226307 -8.51712e-19)
(0.277496 0.0956862 -3.0989e-20)
(0.614991 0.247128 -2.62275e-20)
(1.37949 0.559115 4.82682e-20)
(1.34241 0.558919 8.9185e-20)
(1.295 0.556941 2.42063e-19)
(1.24118 0.553324 -2.78055e-19)
(1.18079 0.546894 2.46468e-19)
(1.11388 0.536343 2.15787e-19)
(1.04089 0.519745 -2.79446e-19)
(0.962876 0.494694 8.13034e-20)
(0.882079 0.45846 -5.14168e-19)
(0.811984 0.415635 -1.2559e-19)
(0.761957 0.376388 0)
(0.72751 0.344011 1.6724e-19)
(0.703159 0.318104 1.94015e-19)
(0.68541 0.297658 2.28781e-19)
(0.672108 0.28155 -2.68594e-19)
(0.661814 0.269032 -7.87016e-20)
(0.653382 0.259563 9.44395e-20)
(0.630886 0.246891 0)
(0.268813 0.104702 -6.51608e-20)
(0.617154 0.275747 2.57772e-19)
(1.37944 0.623035 -1.93504e-19)
(1.34094 0.622118 -9.4286e-20)
(1.29198 0.618897 1.68115e-19)
(1.23623 0.613677 -1.43497e-19)
(1.17338 0.605336 -3.44733e-21)
(1.10343 0.592515 -2.32957e-19)
(1.02666 0.573166 -1.0027e-19)
(0.944122 0.54462 -2.48927e-19)
(0.858197 0.503548 4.36032e-22)
(0.783891 0.454758 -3.9688e-19)
(0.731799 0.409847 3.05657e-19)
(0.697026 0.37287 -1.75475e-19)
(0.673287 0.343486 2.03499e-19)
(0.656524 0.320525 0)
(0.644274 0.302586 -1.38423e-19)
(0.634955 0.288768 -1.93364e-21)
(0.627413 0.278153 -3.87639e-19)
(0.60616 0.264174 -5.80076e-20)
(0.260253 0.112492 0)
(0.618867 0.30324 0)
(1.37824 0.684492 -2.07435e-19)
(1.33827 0.683048 -1.90991e-19)
(1.2878 0.678768 -1.75646e-19)
(1.23016 0.672163 -1.59342e-19)
(1.16505 0.662213 0)
(1.09216 0.647508 -1.18147e-19)
(1.01167 0.625799 -5.7105e-22)
(0.924522 0.594161 5.33427e-19)
(0.833117 0.548424 -7.25512e-20)
(0.753972 0.493383 -2.83112e-19)
(0.699473 0.441954 1.62423e-19)
(0.664471 0.399526 1.17436e-21)
(0.641734 0.366017 2.12787e-19)
(0.626393 0.340195 1.23816e-19)
(0.615545 0.320326 -2.91307e-19)
(0.60747 0.305049 3.39815e-19)
(0.600976 0.2934 9.9189e-20)
(0.581083 0.278163 4.15003e-19)
(0.251946 0.119234 -1.11242e-18)
(0.620747 0.330326 5.09754e-20)
(1.3762 0.743674 -1.02115e-19)
(1.33477 0.741678 9.00596e-20)
(1.28284 0.736454 1.80502e-19)
(1.22344 0.728712 0)
(1.15608 0.717443 -1.4025e-19)
(1.08042 0.701129 3.85994e-19)
(0.996369 0.677521 2.27359e-19)
(0.904498 0.643226 0)
(0.807114 0.593325 -1.02231e-18)
(0.722254 0.53176 7.56529e-19)
(0.664728 0.472864 0)
(0.629516 0.42383 1.92917e-19)
(0.608265 0.385498 2.60907e-21)
(0.594959 0.356458 -3.79838e-19)
(0.586005 0.334617 1.50265e-19)
(0.579555 0.317958 0)
(0.574337 0.305337 5.1017e-19)
(0.555959 0.289118 0)
(0.244531 0.125411 -4.96547e-19)
(0.622828 0.356697 -5.21649e-20)
(1.37336 0.800599 -9.94784e-20)
(1.33067 0.798044 9.82589e-20)
(1.27736 0.79198 0)
(1.21627 0.783245 -1.71531e-19)
(1.14686 0.770856 0)
(1.06858 0.753263 -4.02892e-19)
(0.981071 0.728208 -1.15812e-19)
(0.884441 0.69186 9.96792e-20)
(0.780623 0.638274 -5.06542e-19)
(0.688898 0.570342 8.0847e-20)
(0.627169 0.503047 0)
(0.591563 0.44586 -4.05934e-19)
(0.572497 0.40144 -3.47965e-21)
(0.562285 0.368642 0)
(0.556165 0.344769 -1.93593e-21)
(0.551846 0.32721 4.3721e-19)
(0.548194 0.313954 -4.11956e-19)
(0.531673 0.29711 1.21453e-19)
(0.238502 0.131216 0)
(0.624309 0.381971 0)
(1.37015 0.855147 -9.95828e-20)
(1.32616 0.852078 -9.52677e-20)
(1.27154 0.845225 -2.25147e-21)
(1.20895 0.835674 -8.51346e-20)
(1.13761 0.822371 -3.20377e-19)
(1.0569 0.803784 1.46474e-19)
(0.96617 0.777692 -1.28872e-19)
(0.864869 0.739981 4.34797e-19)
(0.754029 0.683644 -8.18651e-19)
(0.654054 0.609654 -2.52791e-21)
(0.586489 0.532939 -1.94427e-19)
(0.549803 0.46553 6.39293e-19)
(0.533841 0.413111 5.05483e-21)
(0.528351 0.375783 -2.60946e-19)
(0.52658 0.350166 -4.52754e-19)
(0.525455 0.332239 0)
(0.523773 0.319328 0)
(0.509337 0.302756 1.19869e-19)
(0.235049 0.13751 -6.84455e-20)
(0.626125 0.406664 -5.01451e-20)
(1.36654 0.907419 2.0684e-19)
(1.32129 0.903813 1.01659e-19)
(1.26549 0.896234 0)
(1.20151 0.885872 -1.49534e-21)
(1.12852 0.871766 -3.30278e-19)
(1.04566 0.852472 3.79689e-19)
(0.951896 0.825778 5.36534e-19)
(0.846074 0.787432 5.78497e-19)
(0.727946 0.729491 -6.83849e-19)
(0.618156 0.650336 -6.61214e-19)
(0.542255 0.563415 5.23366e-19)
(0.503042 0.483082 0)
(0.491048 0.419495 -1.176e-19)
(0.493017 0.375988 -2.62131e-19)
(0.498437 0.348848 -2.9601e-19)
(0.502294 0.332173 -3.35841e-19)
(0.503338 0.321284 9.47388e-20)
(0.491115 0.306763 -5.91527e-20)
(0.235716 0.145471 -4.22803e-21)
(0.627399 0.430511 0)
(1.36255 0.957399 0)
(1.3162 0.953186 2.85923e-21)
(1.2593 0.944939 0)
(1.19407 0.933866 2.77322e-19)
(1.11966 0.919067 2.55496e-19)
(1.03489 0.899276 0)
(0.938477 0.872324 6.89812e-20)
(0.828441 0.834061 9.87482e-19)
(0.702903 0.775849 -1.57833e-18)
(0.581744 0.693078 0)
(0.494278 0.595915 -3.42849e-19)
(0.44954 0.499278 5.86457e-21)
(0.441894 0.419314 7.21184e-21)
(0.455491 0.366177 2.65552e-19)
(0.473301 0.337726 -1.27475e-21)
(0.485764 0.325033 -6.36685e-19)
(0.490845 0.319698 1.7996e-19)
(0.48075 0.310677 5.02889e-20)
(0.243018 0.156845 0)
(0.628231 0.453419 1.34737e-19)
(1.35826 1.00511 1.03648e-19)
(1.31092 1.00019 2.04413e-19)
(1.25302 0.991251 -4.03109e-19)
(1.18673 0.979554 4.7767e-19)
(1.11108 0.96414 0)
(1.02477 0.943997 2.51667e-19)
(0.926064 0.917172 -1.50239e-19)
(0.812269 0.879685 3.18213e-21)
(0.679516 0.822596 1.1459e-19)
(0.545721 0.738534 8.87536e-19)
(0.442667 0.632158 -1.24171e-19)
(0.387167 0.515803 -3.92533e-19)
(0.382432 0.411284 -1.21248e-19)
(0.413546 0.341326 1.23711e-19)
(0.45375 0.310708 -2.57246e-21)
(0.481736 0.307167 1.36985e-19)
(0.493395 0.313911 -3.17799e-19)
(0.485753 0.316492 3.47782e-19)
(0.261457 0.175002 5.62332e-20)
(0.628393 0.475143 -4.28243e-20)
(1.35363 1.05045 5.2685e-20)
(1.30549 1.04482 6.82112e-21)
(1.24676 1.03517 -2.02038e-19)
(1.17953 1.02281 -9.51185e-20)
(1.10289 1.00689 -4.77659e-19)
(1.01537 0.986516 8.45082e-20)
(0.914785 0.960133 -6.38239e-19)
(0.797739 0.924057 -1.12505e-18)
(0.65823 0.869556 -9.70634e-19)
(0.511135 0.786967 0)
(0.388315 0.674233 -5.42292e-19)
(0.313745 0.536089 5.61547e-19)
(0.306071 0.395343 0)
(0.361915 0.293081 -2.54146e-19)
(0.442314 0.256358 1.0082e-19)
(0.501166 0.271452 -1.12391e-19)
(0.524444 0.304688 -1.16273e-19)
(0.516624 0.330496 -2.11995e-19)
(0.298207 0.205438 -1.59518e-19)
(0.628897 0.496433 4.12398e-20)
(1.34876 1.09346 -5.62305e-20)
(1.30003 1.08714 -1.48912e-19)
(1.2406 1.07671 -2.5975e-19)
(1.17254 1.06369 2.06441e-19)
(1.09515 1.04731 -2.95855e-19)
(1.00662 1.02671 2.74135e-19)
(0.904579 1.00102 -6.74148e-19)
(0.784894 0.966885 -6.76307e-19)
(0.639469 0.916307 1.0428e-18)
(0.479226 0.838426 2.02002e-18)
(0.333009 0.724366 0)
(0.228096 0.565815 0)
(0.202804 0.374812 -1.34863e-19)
(0.286801 0.209655 0)
(0.443084 0.150064 1.48887e-19)
(0.570143 0.204746 1.29177e-19)
(0.614297 0.295917 0)
(0.593235 0.367563 0)
(0.355152 0.253589 9.02498e-20)
(0.628588 0.516066 -3.60111e-20)
(1.34363 1.13428 -4.10461e-20)
(1.29451 1.12712 -1.03649e-19)
(1.23454 1.11592 2.08137e-19)
(1.16591 1.10219 2.12479e-19)
(1.08791 1.08539 3.56123e-19)
(0.998681 1.06468 -3.86655e-19)
(0.895584 1.03966 -9.86635e-22)
(0.773838 1.00778 -4.66677e-21)
(0.623537 0.96221 1.38133e-22)
(0.451269 0.892457 1.05613e-18)
(0.279635 0.784047 0)
(0.131678 0.612987 6.00966e-19)
(0.0596925 0.360538 3.14355e-19)
(0.15612 0.0737434 3.56688e-19)
(0.459102 -0.0692408 2.25699e-20)
(0.758173 0.0784839 5.32771e-20)
(0.79877 0.323651 -9.7459e-21)
(0.703185 0.463366 0)
(0.426609 0.339821 1.96849e-20)
(0.628818 0.535556 6.1845e-20)
(1.33824 1.17283 0)
(1.28873 1.16485 -9.90012e-20)
(1.22851 1.15279 1.60308e-19)
(1.15969 1.13831 -2.14103e-19)
(1.08121 1.12107 -4.70531e-19)
(0.9916 1.10058 8.04524e-19)
(0.887796 1.07617 -5.05453e-20)
(0.764662 1.04659 0)
(0.610648 1.00679 -1.19036e-18)
(0.428271 0.947883 -2.36252e-18)
(0.231989 0.853483 8.94272e-20)
(0.0306723 0.686524 8.96489e-19)
(-0.134317 0.378241 0)
(-0.109804 -0.132122 1.51984e-19)
(0.369081 -0.493411 0)
(1.05054 -0.124825 0)
(1.1564 0.395328 1.38145e-19)
(0.907077 0.575634 0)
(0.531836 0.431812 1.88644e-21)
(0.628176 0.553627 5.42595e-20)
(1.33264 1.20914 0)
(1.28274 1.20042 -1.45384e-19)
(1.22229 1.18758 0)
(1.15346 1.17253 1.05796e-19)
(1.07484 1.15483 0)
(0.98541 1.13449 4.82013e-20)
(0.881312 1.11103 9.63018e-20)
(0.757409 1.08373 8.64672e-20)
(0.600912 1.05005 -1.32659e-18)
(0.410798 1.00451 7.40534e-20)
(0.19331 0.932258 7.17817e-19)
(-0.0643642 0.795299 9.0339e-19)
(-0.382298 0.491079 1.03695e-19)
(-0.701087 -0.093721 5.63324e-20)
(-0.403508 -0.0455297 0)
(0.616019 0.755604 -1.44574e-18)
(0.937267 1.21244 5.95853e-19)
(0.531885 1.16832 -1.14777e-19)
(-0.0272206 1.5113 -1.15073e-19)
(0.627736 0.57109 -3.38888e-20)
(1.32652 1.24365 -1.13142e-19)
(1.27671 1.23412 0)
(1.21609 1.22067 6.12068e-21)
(1.14705 1.2053 -2.65926e-19)
(1.06845 1.18752 8.01719e-19)
(0.979576 1.16736 3.09376e-19)
(0.875817 1.14517 0)
(0.751819 1.12094 6.01801e-19)
(0.594515 1.09399 -7.2648e-20)
(0.399998 1.06367 0)
(0.16784 1.0221 0)
(-0.134463 0.946917 8.54957e-19)
(-0.599876 0.805679 -3.07483e-19)
(-1.21209 0.802609 -1.87443e-19)
(-1.42453 1.57085 0)
(-0.570219 2.57825 -7.01226e-19)
(-0.161954 3.03695 5.18719e-19)
(-0.0948053 3.29084 1.90784e-21)
(-0.0672625 3.38285 6.22238e-20)
(0.627351 0.587491 1.31609e-20)
(1.31936 1.27641 1.23862e-19)
(1.27052 1.26582 -7.36429e-20)
(1.2101 1.252 -1.03987e-19)
(1.14094 1.23628 0)
(1.06212 1.21839 5.44777e-19)
(0.973814 1.19887 4.65987e-19)
(0.870751 1.17807 -4.96651e-20)
(0.747921 1.157 8.91146e-20)
(0.591934 1.1378 1.29449e-18)
(0.397799 1.12373 1.25126e-18)
(0.16298 1.11542 8.49708e-19)
(-0.147859 1.11534 8.88131e-19)
(-0.598168 1.16444 -8.27998e-19)
(-1.17108 1.47284 -4.349e-19)
(-1.42355 2.28358 0)
(-0.938956 3.03559 0)
(-0.593741 3.31324 -6.09815e-20)
(-0.370569 3.36661 0)
(-0.24875 3.30337 -1.99554e-19)
(0.628338 0.607208 0)
(1.31103 1.30699 0)
(1.26393 1.29512 0)
(1.20378 1.28121 -2.37218e-20)
(1.13477 1.26549 -2.27406e-19)
(1.05606 1.24775 3.81629e-19)
(0.96844 1.2286 3.14865e-19)
(0.865678 1.20881 -5.00181e-20)
(0.744395 1.19118 7.85924e-19)
(0.59168 1.18036 -8.64146e-21)
(0.402785 1.18358 2.49986e-18)
(0.178549 1.20847 -9.59661e-20)
(-0.101607 1.26887 1.10786e-19)
(-0.45303 1.41432 1.16028e-19)
(-0.835439 1.77559 -2.18297e-20)
(-1.02895 2.43391 -9.46542e-21)
(-0.798546 2.90411 -2.8345e-20)
(-0.555904 3.05951 4.19493e-20)
(-0.384509 3.10388 -2.67521e-20)
(-0.292475 3.1277 2.78548e-20)
(0.493031 0.539229 3.6534e-21)
(1.30316 1.33503 0)
(1.25772 1.3226 1.13187e-19)
(1.19795 1.30895 2.3509e-19)
(1.12891 1.29334 -4.10118e-19)
(1.05071 1.27582 -3.91155e-19)
(0.963998 1.25617 -3.44815e-19)
(0.862081 1.23767 6.30048e-19)
(0.74241 1.22289 -6.58529e-19)
(0.593895 1.21847 0)
(0.414797 1.23658 1.23674e-18)
(0.211256 1.28829 -6.91134e-19)
(-0.0186126 1.39338 0)
(-0.299043 1.60828 1.23503e-19)
(-0.526141 1.95195 2.03058e-19)
(-0.640107 2.3998 -1.41767e-19)
(-0.527093 2.70764 1.15322e-19)
(-0.39999 2.87814 5.00543e-20)
(-0.300371 2.96198 1.47367e-20)
(-0.23705 3.00872 8.77061e-21)
(0.730215 0.726042 2.44425e-20)
(1.29585 1.36472 0)
(1.24791 1.36281 -9.12872e-20)
(1.1873 1.35009 -2.02837e-19)
(1.1176 1.33456 3.78148e-19)
(1.03945 1.31725 3.6108e-19)
(0.952239 1.29912 4.4644e-19)
(0.8521 1.28287 4.87892e-20)
(0.735779 1.2726 6.73504e-19)
(0.593195 1.27853 1.19245e-18)
(0.427122 1.31951 7.39082e-20)
(0.251889 1.40982 6.25377e-19)
(0.0788057 1.56249 1.03838e-19)
(-0.0736333 1.79882 -1.13837e-19)
(-0.170091 2.09329 -1.95157e-19)
(-0.21775 2.38246 1.53374e-19)
(-0.189026 2.57926 -1.41244e-19)
(-0.144962 2.73025 -5.76534e-20)
(-0.121616 2.83354 -2.62982e-20)
(-0.160093 2.92985 -1.52024e-22)
(0.724793 0.7254 0)
(1.29332 1.39338 -6.12611e-21)
(1.24229 1.39091 1.27975e-20)
(1.18077 1.37845 1.77668e-20)
(1.11117 1.36314 2.26699e-19)
(1.03367 1.34599 -3.39999e-19)
(0.947291 1.32843 -2.77557e-19)
(0.849578 1.31354 4.60876e-20)
(0.736494 1.30525 -7.24829e-19)
(0.598607 1.31524 -1.1893e-20)
(0.443002 1.36309 -2.33328e-18)
(0.289005 1.46267 8.68578e-20)
(0.151555 1.62136 -9.85892e-20)
(0.0525176 1.84386 -9.98982e-20)
(0.00362561 2.1142 1.09794e-20)
(-0.0359513 2.36796 -1.33405e-20)
(-0.0251356 2.56522 2.02703e-19)
(0.000869759 2.70071 7.04286e-20)
(-0.00134859 2.80343 2.91122e-20)
(-0.064544 2.89228 9.61629e-21)
(0.69398 0.712873 1.36186e-20)
(1.29043 1.4272 -2.43417e-20)
(1.23659 1.42246 3.38661e-20)
(1.174 1.4097 6.73066e-20)
(1.10498 1.39408 0)
(1.02784 1.37588 -4.28417e-19)
(0.941505 1.35689 -3.86405e-19)
(0.844054 1.34038 4.34518e-20)
(0.732874 1.33331 -7.94255e-20)
(0.6023 1.34936 -1.14928e-18)
(0.461711 1.40791 -1.10252e-18)
(0.332474 1.51789 -7.45107e-19)
(0.230274 1.6817 -7.2252e-19)
(0.177277 1.90004 6.62871e-19)
(0.172989 2.15129 5.23147e-19)
(0.154331 2.36037 0)
(0.145362 2.54731 0)
(0.161207 2.71653 1.67307e-20)
(0.124531 2.82623 0)
(0.0332661 2.88714 8.49901e-20)
(0.664632 0.705871 -4.56129e-20)
(1.28535 1.46402 -7.01119e-21)
(1.22923 1.45666 0)
(1.16553 1.4419 7.79048e-21)
(1.09623 1.42414 1.77417e-19)
(1.01944 1.40484 -5.87608e-19)
(0.935313 1.38616 -2.37935e-19)
(0.841254 1.37267 3.70659e-20)
(0.734196 1.37001 -5.73152e-19)