/*--------------------------------*- C++ -*----------------------------------*\
| =========                 |                                                 |
| \\      /  F ield         | OpenFOAM: The Open Source CFD Toolbox           |
|  \\    /   O peration     | Version:  2112                                  |
|   \\  /    A nd           | Website:  www.openfoam.com                      |
|    \\/     M anipulation  |                                                 |
\*---------------------------------------------------------------------------*/
FoamFile
{
    version     2.0;
    format      ascii;
    arch        "LSB;label=32;scalar=64";
    class       volScalarField;
    location    "7.0005";
    object      Ma;
}
// * * * * * * * * * * * * * * * * * * * * * * * * * * * * * * * * * * * * * //

dimensions      [0 0 0 0 0 0 0];

internalField   nonuniform List<scalar> 
7000
(
3.00001
3
3
3
3
2.99999
2.99999
2.99991
2.99984
2.99891
2.99797
2.9928
2.98654
2.96451
2.88603
2.7006
2.14665
1.41218
0.562328
0.244308
0.338175
0.393836
0.396091
0.378874
0.35606
0.338629
0.32483
0.311643
0.298015
0.283821
0.269163
0.254059
0.23855
0.222868
0.207447
0.192641
0.178609
0.165519
0.153511
0.142555
0.132498
0.123077
0.11382
0.104223
0.0939317
0.0825701
0.0697257
0.0552858
0.0371657
0.025213
3.00001
3
3
3
3
3
2.99999
2.99991
2.99985
2.99896
2.99807
2.9932
2.98723
2.96749
2.88939
2.70923
2.17205
1.44412
0.582031
0.257494
0.344742
0.398449
0.399246
0.381113
0.357526
0.33908
0.324476
0.31071
0.296574
0.281894
0.266857
0.251564
0.236118
0.220776
0.20593
0.191817
0.178456
0.165905
0.154203
0.143219
0.132747
0.122552
0.112256
0.101494
0.0900974
0.0779164
0.0648858
0.0516369
0.0379364
0.0352024
3.00001
3
3
3
3
3
2.99999
2.99992
2.99985
2.999
2.9982
2.99352
2.98786
2.96715
2.89764
2.71531
2.19716
1.46984
0.593127
0.254719
0.343663
0.397657
0.398146
0.380377
0.357235
0.338494
0.323634
0.309847
0.29575
0.281138
0.266193
0.251042
0.235838
0.22084
0.206355
0.192508
0.179257
0.166657
0.154764
0.14349
0.132677
0.122118
0.111469
0.100459
0.0890716
0.0774337
0.0659598
0.0560792
0.0488524
0.051774
3.00001
3
3
3
3
3
2.99999
2.99992
2.99987
2.99911
2.99839
2.99417
2.98914
2.96844
2.90127
2.71758
2.22886
1.50766
0.61715
0.265609
0.349567
0.40073
0.399764
0.382178
0.35944
0.340083
0.324636
0.310596
0.296403
0.281782
0.266955
0.252071
0.237265
0.22274
0.20872
0.195238
0.18221
0.169658
0.157598
0.145956
0.13467
0.123652
0.112694
0.101714
0.0909103
0.0806449
0.0716126
0.0653977
0.0627295
0.068027
3.00001
3
3
3
3
3
2.99999
2.99993
2.99989
2.99922
2.99861
2.99506
2.98967
2.97171
2.90523
2.73304
2.2619
1.54803
0.645343
0.276125
0.353556
0.401379
0.400281
0.384048
0.362414
0.342567
0.326672
0.312517
0.298371
0.283886
0.269287
0.254734
0.240365
0.226344
0.212795
0.199685
0.186913
0.17446
0.162332
0.150497
0.138948
0.127654
0.116568
0.105846
0.0958829
0.0872036
0.0805855
0.0772668
0.0774631
0.0837744
3.00001
3
3
3
3
3
2.99999
2.99994
2.9999
2.99934
2.99876
2.99589
2.99197
2.97844
2.90984
2.74107
2.30036
1.59176
0.679286
0.291718
0.358028
0.400335
0.400884
0.387012
0.366695
0.346187
0.329814
0.315564
0.301544
0.287313
0.273063
0.258983
0.245148
0.231676
0.218672
0.205984
0.193468
0.18116
0.169046
0.157079
0.145353
0.133966
0.122993
0.112752
0.103785
0.0966902
0.0921331
0.0909686
0.0928852
0.099697
3.00001
3
3
3
3
3
2.99999
2.99995
2.99992
2.99945
2.99891
2.99674
2.99197
2.97916
2.91642
2.74623
2.33358
1.63261
0.717216
0.313846
0.361257
0.396751
0.402604
0.391551
0.372306
0.351035
0.334127
0.31978
0.30597
0.292118
0.278329
0.264784
0.251584
0.238754
0.226286
0.214027
0.201831
0.189678
0.177583
0.165592
0.153856
0.142519
0.131792
0.122168
0.114264
0.108626
0.105725
0.10602
0.109111
0.116062
3.00001
3
3
3
3
3
3
2.99995
2.99991
2.99943
2.99886
2.99661
2.99173
2.98022
2.91628
2.75925
2.36728
1.67729
0.757534
0.342288
0.362295
0.393414
0.405623
0.396635
0.378498
0.356967
0.339625
0.325297
0.311852
0.298496
0.285307
0.272434
0.259902
0.247732
0.235843
0.223995
0.212078
0.200116
0.188101
0.176122
0.164444
0.153306
0.142997
0.134092
0.127222
0.12283
0.121199
0.122557
0.126234
0.133307
3.00001
3
3
3
3
3
2.99999
2.99994
2.99987
2.99935
2.99874
2.99658
2.99161
2.98127
2.92243
2.76538
2.40247
1.73285
0.804446
0.370438
0.359533
0.390464
0.405664
0.399177
0.383092
0.362462
0.345184
0.331513
0.319043
0.306634
0.294254
0.282159
0.270402
0.258934
0.247628
0.236206
0.224528
0.21268
0.200734
0.18882
0.177257
0.166376
0.156552
0.148389
0.142466
0.139095
0.138386
0.140424
0.144637
0.151502
3.00001
3.00001
3
3
3
3
2.99999
2.99993
2.99985
2.99931
2.99864
2.99615
2.99201
2.98365
2.92747
2.78437
2.43445
1.79268
0.861632
0.403241
0.356504
0.387084
0.405794
0.402019
0.387914
0.368711
0.352196
0.339638
0.32836
0.31703
0.305671
0.294587
0.283773
0.273022
0.262147
0.250974
0.239448
0.227643
0.215681
0.203788
0.192353
0.181746
0.172418
0.164999
0.159946
0.157444
0.15748
0.15996
0.164288
0.171229
3.00001
3.00001
3
3
3
3
3
2.99994
2.99985
2.9993
2.99878
2.99605
2.99156
2.98292
2.92975
2.80143
2.47267
1.86512
0.925976
0.440375
0.352685
0.384658
0.408671
0.407917
0.395646
0.377994
0.362647
0.351349
0.341397
0.331326
0.32113
0.310997
0.30082
0.290496
0.279848
0.268671
0.256998
0.245017
0.232895
0.220992
0.209744
0.199503
0.190699
0.183959
0.179674
0.177876
0.178472
0.181345
0.185911
0.192414
3.00001
3.00001
3
3
3
3
3
2.99994
2.99986
2.99939
2.99898
2.99665
2.99228
2.98669
2.93332
2.81948
2.50987
1.94648
1.0063
0.48388
0.348024
0.384063
0.415789
0.418716
0.40838
0.39247
0.37864
0.368791
0.36009
0.351017
0.341528
0.331863
0.321873
0.311399
0.300462
0.288915
0.276835
0.264518
0.252192
0.240226
0.229206
0.21945
0.211305
0.205317
0.201794
0.200668
0.201707
0.204804
0.209347
0.215967
3.00001
3.00001
3.00001
3
3
3
3
2.99995
2.99987
2.99945
2.99906
2.99688
2.99318
2.98585
2.94236
2.83526
2.55644
2.03619
1.10359
0.53553
0.344063
0.387901
0.430042
0.437452
0.429036
0.414612
0.401779
0.392617
0.384396
0.375461
0.36577
0.35567
0.345122
0.334045
0.322367
0.310117
0.297484
0.28488
0.272602
0.260998
0.250505
0.241501
0.2342
0.229066
0.226353
0.225893
0.227453
0.230705
0.235468
0.24159
3.00001
3.00001
3.00001
3.00001
3.00001
3
3
2.99994
2.99986
2.99945
2.99902
2.99704
2.9932
2.98573
2.94915
2.85568
2.60603
2.13086
1.22779
0.598716
0.345671
0.401783
0.455907
0.466413
0.457672
0.442361
0.428466
0.418299
0.408916
0.398933
0.38831
0.377332
0.366003
0.354229
0.342185
0.329795
0.317246
0.304971
0.293321
0.282588
0.273194
0.265322
0.259218
0.25525
0.253567
0.253914
0.256076
0.259924
0.264414
0.270793
3.00001
3.00001
3.00001
3.00001
3.00001
3
2.99999
2.99993
2.99984
2.99945
2.99895
2.99734
2.9934
2.98901
2.95595
2.87056
2.65867
2.23256
1.38471
0.674279
0.363507
0.428142
0.487444
0.495732
0.482663
0.464268
0.447962
0.435951
0.425385
0.414568
0.403491
0.392292
0.380915
0.369432
0.357848
0.346293
0.334891
0.323923
0.31371
0.304635
0.296934
0.290715
0.2862
0.283795
0.2835
0.285057
0.287931
0.292108
0.29775
0.303496
3.00001
3.00001
3.00001
3.00001
3.00001
3
2.99997
2.99992
2.99966
2.9994
2.99793
2.99664
2.98974
2.98478
2.9667
2.89602
2.71131
2.30888
1.55191
0.742893
0.370796
0.439581
0.499253
0.50616
0.491833
0.473011
0.455905
0.443191
0.432312
0.421705
0.411111
0.400626
0.390168
0.379856
0.369745
0.359783
0.350358
0.341708
0.333823
0.327074
0.321817
0.31792
0.315443
0.314879
0.316449
0.319713
0.324488
0.32994
0.335372
0.342323
3.00001
3.00001
3.00001
3.00001
3.00001
3
2.99998
2.99995
2.9998
2.99964
2.99888
2.99776
2.9952
2.98509
2.97929
2.90519
2.73125
2.29544
1.59577
0.689472
0.317141
0.404863
0.466218
0.478803
0.47219
0.459864
0.446919
0.437119
0.428878
0.420698
0.412317
0.403939
0.395587
0.387387
0.379501
0.371876
0.364789
0.358722
0.353752
0.349848
0.347387
0.346521
0.346976
0.349022
0.353093
0.358706
0.365414
0.373683
0.381859
0.388572
3.00001
3.00001
3.00001
3.00001
3.00001
3
2.99998
2.99996
2.99982
2.9997
2.99902
2.99803
2.99607
2.98643
2.97972
2.91472
2.74861
2.37638
1.68626
0.760019
0.360793
0.396732
0.436107
0.455016
0.454755
0.446721
0.435759
0.427652
0.421775
0.416315
0.410591
0.404708
0.398957
0.393439
0.388289
0.383582
0.379498
0.376336
0.374318
0.373626
0.374384
0.376547
0.380461
0.386298
0.394234
0.403797
0.414823
0.426354
0.43858
0.450195
3.00001
3.00001
3.00001
3.00001
3
3
2.99998
2.99997
2.99986
2.99977
2.9993
2.99834
2.997
2.98682
2.98597
2.92348
2.78115
2.43738
1.79504
0.863273
0.426518
0.397959
0.43106
0.453389
0.454079
0.445918
0.434564
0.425606
0.419899
0.415416
0.41114
0.407007
0.403269
0.400069
0.397415
0.39546
0.394381
0.394416
0.395661
0.398336
0.402658
0.408879
0.416704
0.426879
0.439679
0.455019
0.472944
0.493868
0.515601
0.537878
3.00001
3.00001
3.00001
3.00001
3.00001
3
2.99999
2.99998
2.99994
2.99978
2.99954
2.99758
2.99478
2.97738
2.97572
2.93592
2.82229
2.50597
1.91474
0.982052
0.493923
0.400925
0.434013
0.460375
0.462439
0.454003
0.441965
0.432401
0.426438
0.421985
0.418027
0.41454
0.41184
0.410076
0.409252
0.40938
0.41076
0.413426
0.417647
0.423776
0.432046
0.442587
0.455327
0.470958
0.490235
0.513602
0.542893
0.579612
0.629976
0.716399
3.00001
3.00001
3.00001
3.00001
3.00001
3.00001
3
3
2.99996
2.99992
2.99963
2.99916
2.99651
2.99553
2.97771
2.9795
2.86464
2.61936
1.98495
1.20327
0.576684
0.418276
0.447322
0.475476
0.478438
0.469491
0.457259
0.447558
0.441811
0.437847
0.43463
0.432131
0.430556
0.430178
0.431013
0.433053
0.436752
0.442514
0.450298
0.460183
0.472654
0.488233
0.507343
0.530848
0.560015
0.597096
0.644326
0.710099
0.80558
0.93428
3.00001
3.00001
3.00001
3.00001
3.00001
3.00001
3
3
2.99998
2.99996
2.99976
2.99945
2.99742
2.9961
2.98061
2.97896
2.88155
2.67432
2.11119
1.36717
0.644171
0.412153
0.447907
0.481525
0.487889
0.480653
0.47056
0.462411
0.458065
0.455652
0.454154
0.453464
0.453675
0.454767
0.457081
0.461292
0.467398
0.475448
0.485751
0.498629
0.514655
0.534252
0.558053
0.587513
0.623681
0.669287
0.727628
0.801674
0.90846
1.02055
3.00001
3.00001
3.00001
3.00001
3.00001
3.00001
3
3
2.99999
2.99997
2.99977
2.99949
2.99766
2.99632
2.9837
2.98177
2.90161
2.73619
2.2993
1.61509
0.755626
0.433752
0.463633
0.493491
0.502116
0.496506
0.487907
0.480009
0.476045
0.47451
0.474239
0.474878
0.476491
0.479741
0.484678
0.491144
0.499144
0.509124
0.521383
0.536711
0.55526
0.578068
0.605075
0.637495
0.676614
0.723029
0.780596
0.846691
0.93287
1.01195
3.00001
3.00001
3.00001
3.00001
3.00001
3.00001
3.00001
3
2.99999
2.99998
2.99982
2.99958
2.99807
2.99687
2.98644
2.98304
2.92292
2.77465
2.43965
1.79891
0.888151
0.495922
0.477307
0.501335
0.516202
0.514914
0.507595
0.500194
0.495911
0.494572
0.49471
0.496097
0.499365
0.504444
0.511036
0.518986
0.528593
0.540128
0.553928
0.57039
0.590339
0.613604
0.641971
0.674032
0.712683
0.755408
0.806802
0.861467
0.92873
0.987379
3.00001
3.00001
3.00001
3.00001
3.00001
3.00001
3.00001
3
3
2.99999
2.99988
2.99972
2.99863
2.99798
2.98991
2.98882
2.94007
2.82682
2.56089
2.01301
1.1372
0.639005
0.507315
0.523532
0.540077
0.542847
0.536792
0.529878
0.524425
0.521829
0.521198
0.522749
0.526774
0.532297
0.539161
0.547624
0.557857
0.57012
0.584566
0.601219
0.620848
0.643231
0.669863
0.699351
0.734475
0.77193
0.816165
0.862672
0.916332
0.964135
3.00001
3.00001
3.00001
3.00001
3.00001
3.00001
3.00001
3
3
2.99997
2.99996
2.99974
2.99945
2.99751
2.99634
2.98168
2.97987
2.89025
2.69863
2.16722
1.44679
0.729108
0.501822
0.52014
0.545805
0.561087
0.561579
0.557121
0.553103
0.550797
0.550054
0.551949
0.556139
0.561511
0.56812
0.576486
0.586713
0.598811
0.613234
0.629524
0.648463
0.669351
0.693613
0.719861
0.750493
0.782874
0.82037
0.859441
0.902056
0.941833
3.00001
3.00001
3.00001
3.00001
3.00001
3.00001
3.00001
3
3
2.99999
2.99997
2.99978
2.9995
2.99777
2.99671
2.98505
2.98205
2.91593
2.75165
2.39249
1.72242
0.858554
0.514799
0.511879
0.540548
0.563757
0.570286
0.570229
0.569558
0.569305
0.570777
0.574577
0.579962
0.585946
0.593214
0.601651
0.61217
0.623936
0.638148
0.653591
0.671783
0.691186
0.71343
0.737282
0.763814
0.792301
0.823329
0.855929
0.89101
0.923821
3.00001
3.00001
3.00001
3.00001
3.00001
3.00001
3.00001
3.00001
3
2.99999
2.99998
2.99986
2.99966
2.99845
2.99792
2.98928
2.99036
2.93748
2.82099
2.5237
1.96029
1.05267
0.61782
0.527784
0.54567
0.566671
0.577883
0.580817
0.581362
0.58273
0.5861
0.591325
0.597504
0.604276
0.612318
0.621292
0.632197
0.643896
0.65782
0.672565
0.689605
0.707825
0.728084
0.749816
0.773366
0.798581
0.825429
0.853188
0.882627
0.90998
3.00001
3.00001
3.00001
3.00001
3.00001
3.00001
3.00001
3.00001
3
2.99999
2.99998
2.99988
2.99977
2.99871
2.99713
2.98649
2.98605
2.96216
2.88722
2.68363
2.26344
1.48564
0.822782
0.559855
0.561816
0.583132
0.602723
0.606749
0.605356
0.605318
0.607882
0.61209
0.617416
0.623653
0.631148
0.639753
0.650108
0.66131
0.674424
0.688306
0.703895
0.720627
0.738848
0.758375
0.779405
0.801628
0.82493
0.84902
0.874449
0.897824
3.00001
3.00001
3.00001
3.00001
3.00001
3.00001
3.00001
3.00001
3
3
2.99998
2.99997
2.99976
2.9995
2.99775
2.99685
2.98553
2.98494
2.91457
2.7629
2.40496
1.73557
0.890409
0.53897
0.531634
0.566195
0.597231
0.610378
0.614982
0.617757
0.621809
0.626865
0.632998
0.639807
0.647552
0.656127
0.665946
0.676732
0.688688
0.701843
0.715874
0.731214
0.747454
0.764859
0.783545
0.803015
0.823189
0.844012
0.86584
0.885928
3.00001
3.00001
3.00001
3.00001
3.00001
3.00001
3.00001
3.00001
3.00001
3
2.99999
2.99998
2.99984
2.99964
2.99834
2.9977
2.98926
2.98983
2.9369
2.82292
2.53734
1.97433
1.09216
0.631428
0.531948
0.559686
0.590299
0.609466
0.617579
0.622291
0.627664
0.634146
0.641515
0.649514
0.657975
0.667154
0.677007
0.687729
0.699173
0.71155
0.724713
0.73875
0.753725
0.769699
0.786192
0.803134
0.8207
0.838808
0.857609
0.874912
3.00001
3.00001
3.00001
3.00001
3.00001
3.00001
3.00001
3.00001
3.00001
3
3
2.99997
2.99995
2.99974
2.99955
2.99777
2.99611
2.97994
2.97483
2.87891
2.67419
2.13263
1.39212
0.728682
0.529494
0.547493
0.57785
0.604351
0.616694
0.623489
0.630084
0.637746
0.646057
0.654967
0.664125
0.673766
0.683791
0.694447
0.705569
0.717343
0.729781
0.743053
0.7571
0.771538
0.786228
0.801346
0.816924
0.832886
0.84934
0.864437
3.00001
3.00001
3.00001
3.00001
3.00001
3.00001
3.00001
3.00001
3.00001
3.00001
3
2.99999
2.99992
2.99987
2.99935
2.99862
2.99381
2.99469
2.97504
2.95735
2.8032
2.45794
1.72196
0.93335
0.537069
0.533085
0.566602
0.59969
0.615608
0.623906
0.631193
0.63936
0.648096
0.65731
0.666626
0.676318
0.686354
0.696773
0.707724
0.719229
0.731378
0.743953
0.756765
0.769822
0.783178
0.79698
0.811129
0.825533
0.840252
0.853735
3.00001
3.00001
3.00001
3.00001
3.00001
3.00001
3.00001
3.00001
3.00001
3.00001
3
2.99999
2.99997
2.99987
2.99973
2.9988
2.99787
2.98844
2.99016
2.93296
2.81912
2.52353
1.96121
1.05327
0.611907
0.523012
0.551536
0.586109
0.609345
0.621358
0.62917
0.637085
0.6458
0.655314
0.665199
0.675198
0.685401
0.695904
0.706727
0.717881
0.729204
0.740679
0.752249
0.764265
0.776673
0.789456
0.80246
0.815657
0.82907
0.841333
3.00001
3.00001
3.00001
3.00001
3.00001
3.00001
3.00001
3.00001
3.00001
3.00001
3.00001
3
2.99999
2.99993
2.99986
2.9993
2.99867
2.99275
2.99349
2.9567
2.88966
2.68214
2.25372
1.46381
0.809661
0.547701
0.559371
0.591039
0.62186
0.634952
0.639914
0.644543
0.650846
0.658574
0.667321
0.67654
0.686108
0.695933
0.705877
0.715903
0.726047
0.736548
0.747381
0.758611
0.770112
0.781892
0.793813
0.805878
0.818127
0.829309
3.00001
3.00001
3.00001
3.00001
3.00001
3.00001
3.00001
3.00001
3.00001
3.00001
3
3
2.99998
2.99995
2.99976
2.99954
2.99776
2.99676
2.98359
2.98465
2.91481
2.7477
2.38556
1.70781
0.860608
0.513164
0.520654
0.564094
0.604441
0.624146
0.632704
0.638803
0.645871
0.654029
0.662918
0.672168
0.681489
0.690914
0.70052
0.710335
0.720311
0.730515
0.740942
0.751591
0.762405
0.773427
0.784552
0.795769
0.80712
0.817481
3.00001
3.00001
3.00001
3.00001
3.00001
3.00001
3.00001
3.00001
3.00001
3.00001
3.00001
3
2.99999
2.99997
2.99982
2.99966
2.99831
2.9976
2.98774
2.98711
2.93005
2.80646
2.51151
1.92469
1.02199
0.589103
0.516348
0.550788
0.588619
0.611373
0.621665
0.628136
0.635153
0.643305
0.652053
0.661123
0.67052
0.680351
0.690402
0.70059
0.710988
0.721408
0.731901
0.742489
0.753111
0.7638
0.774487
0.785209
0.795976
0.805786
3.00001
3.00001
3.00001
3.00001
3.00001
3.00001
3.00001
3.00001
3.00001
3.00001
3.00001
3
3
2.99996
2.99993
2.99966
2.99938
2.99705
2.99559
2.97707
2.98143
2.86267
2.65313
2.05885
1.31799
0.674106
0.499561
0.527853
0.56613
0.593465
0.605833
0.612811
0.61989
0.628188
0.637293
0.646915
0.656883
0.666976
0.677288
0.687728
0.698219
0.708875
0.719505
0.730244
0.740911
0.75164
0.762279
0.772901
0.78349
0.793092
3.00001
3.00001
3.00001
3.00001
3.00001
3.00001
3.00001
3.00001
3.00001
3.00001
3.00001
3
3
2.99997
2.99995
2.9997
2.99942
2.99725
2.99611
2.98159
2.98716
2.89551
2.72827
2.27207
1.57967
0.770857
0.486961
0.508822
0.547793
0.581245
0.594921
0.60051
0.606103
0.613706
0.622846
0.632761
0.642973
0.65335
0.663817
0.674379
0.684949
0.695461
0.705961
0.716336
0.726737
0.737039
0.74739
0.757697
0.768078
0.777597
3.00001
3.00001
3.00001
3.00001
3.00001
3.00001
3.00001
3.00001
3.00001
3.00001
3.00001
3.00001
3
2.99999
2.99992
2.99991
2.99921
2.99855
2.99216
2.99445
2.96292
2.96517
2.81162
2.48063
1.78313
0.984314
0.519249
0.502099
0.538173
0.572997
0.587174
0.592184
0.596737
0.603319
0.611514
0.620606
0.630225
0.640094
0.650271
0.660493
0.670776
0.681096
0.69139
0.701655
0.711827
0.721969
0.73202
0.742
0.752084
0.761213
3.00001
3.00001
3.00001
3.00001
3.00001
3.00001
3.00001
3.00001
3.00001
3.00001
3.00001
3.00001
3
2.99999
2.99993
2.99989
2.99948
2.99898
2.99526
2.99502
2.97266
2.97996
2.846
2.58488
1.94448
1.16062
0.59366
0.485152
0.514231
0.550134
0.571421
0.580276
0.5855
0.591511
0.598941
0.607261
0.616217
0.62544
0.63504
0.644828
0.654737
0.664752
0.674744
0.684816
0.694742
0.704708
0.714598
0.724462
0.734393
0.743388
3.00001
3.00001
3.00001
3.00001
3.00001
3.00001
3.00001
3.00001
3.00001
3.00001
3.00001
3.00001
3
3
2.99999
2.99992
2.99988
2.99937
2.99877
2.99378
2.9919
2.96061
2.90744
2.69309
2.26496
1.42389
0.771606
0.493514
0.516507
0.556362
0.589657
0.602244
0.60547
0.607457
0.610982
0.615879
0.62165
0.627972
0.63474
0.641871
0.649403
0.657305
0.665353
0.673786
0.68232
0.691093
0.699952
0.708934
0.718085
0.726478
3.00001
3.00001
3.00001
3.00001
3.00001
3.00001
3.00001
3.00001
3.00001
3.00001
3.00001
3.00001
3
2.99999
2.99998
2.99987
2.99979
2.99899
2.99808
2.99086
2.99267
2.95718
2.95988
2.78071
2.42891
1.67497
0.888738
0.461219
0.484126
0.534481
0.581336
0.601326
0.607623
0.611012
0.615135
0.620225
0.625705
0.631279
0.636998
0.642813
0.648766
0.655009
0.661321
0.668067
0.674944
0.682195
0.68967
0.697368
0.705393
0.712781
3.00001
3.00001
3.00001
3.00001
3.00001
3.00001
3.00001
3.00001
3.00001
3.00001
3.00001
3.00001
3.00001
3
2.99999
2.99989
2.99985
2.99914
2.99844
2.99206
2.99435
2.96287
2.97463
2.80748
2.50583
1.78829
0.988992
0.475225
0.452883
0.502954
0.552017
0.576065
0.586261
0.592945
0.599541
0.60671
0.613856
0.620782
0.627431
0.633996
0.640292
0.646774
0.653021
0.659491
0.665861
0.672469
0.679223
0.686132
0.693399
0.700018
3.00001
3.00001
3.00001
3.00001
3.00001
3.00001
3.00001
3.00001
3.00001
3.00001
3.00001
3.00001
3.00001
3
2.99999
2.99998
2.99988
2.99978
2.99896
2.99823
2.99136
2.98889
2.94482
2.84368
2.54523
1.98635
1.05145
0.55582
0.426864
0.47019
0.520803
0.552516
0.567236
0.575685
0.583198
0.591419
0.599713
0.607853
0.61559
0.62292
0.630033
0.636854
0.643561
0.650094
0.656569
0.663009
0.669503
0.676027
0.682738
0.688885
3.00001
3.00001
3.00001
3.00001
3.00001
3.00001
3.00001
3.00001
3.00001
3.00001
3.00001
3.00001
3.00001
3
2.99999
2.99998
2.99991
2.99985
2.99924
2.99853
2.99248
2.99024
2.9512
2.88122
2.63969
2.16589
1.27627
0.671435
0.420476
0.463596
0.52474
0.566305
0.583158
0.589487
0.594313
0.600234
0.606813
0.613542
0.620123
0.626385
0.632647
0.63865
0.64474
0.650687
0.656644
0.662645
0.668509
0.674626
0.680493
0.68612
3.00001
3.00001
3.00001
3.00001
3.00001
3.00001
3.00001
3.00001
3.00001
3.00001
3.00001
3.00001
3.00001
3
3
2.99998
2.9999
2.99985
2.99923
2.99862
2.99366
2.99427
2.973
2.94272
2.74783
2.3358
1.51567
0.753073
0.382041
0.451292
0.531579
0.575481
0.590057
0.59423
0.597844
0.60301
0.609036
0.615295
0.621486
0.627422
0.633359
0.639139
0.644984
0.650811
0.65661
0.662536
0.668237
0.674189
0.679779
0.685113
3.00001
3.00001
3.00001
3.00001
3.00001
3.00001
3.00001
3.00001
3.00001
3.00001
3.00001
3.00001
3.00001
3
3
2.99997
2.99987
2.99979
2.99919
2.99819
2.99446
2.98677
2.96162
2.90112
2.72924
2.24413
1.53974
0.641673
0.30733
0.402698
0.489756
0.528582
0.543252
0.551008
0.558601
0.567218
0.57633
0.585338
0.594054
0.602444
0.610489
0.618334
0.625934
0.63345
0.64082
0.64812
0.655151
0.662173
0.668789
0.674944
3.00001
3.00001
3.00001
3.00001
3.00001
3.00001
3.00001
3.00001
3.00001
3.00001
3.00001
3.00001
3.00001
3
3
2.99998
2.99994
2.99978
2.99917
2.99842
2.99439
2.98835
2.96113
2.91322
2.7433
2.35237
1.65686
0.724901
0.351979
0.406596
0.464759
0.49881
0.512687
0.51963
0.526728
0.535501
0.545334
0.555441
0.565456
0.575276
0.584765
0.594042
0.603008
0.611845
0.620523
0.629089
0.637377
0.645611
0.653428
0.660668
3.00001
3.00001
3.00001
3.00001
3.00001
3.00001
3.00001
3.00001
3.00001
3.00001
3.00001
3.00001
3.00001
3
3
2.99998
2.99997
2.99978
2.99964
2.99801
2.99719
2.98488
2.98971
2.91778
2.774
2.40293
1.74512
0.801426
0.402277
0.4068
0.453709
0.494084
0.510911
0.517321
0.522789
0.529892
0.538255
0.54715
0.556128
0.565259
0.574349
0.58359
0.592774
0.60199
0.611071
0.620075
0.628901
0.637594
0.646039
0.653757
3.00001
3.00001
3.00001
3.00001
3.00001
3.00001
3.00001
3.00001
3.00001
3.00001
3.00001
3.00001
3.00001
3
3
2.99998
2.99997
2.99984
2.99968
2.99842
2.99779
2.98762
2.98828
2.92989
2.79879
2.46026
1.83369
0.887183
0.450774
0.402464
0.448093
0.494843
0.517004
0.525734
0.531341
0.537906
0.545742
0.554417
0.563223
0.572191
0.581005
0.589939
0.598722
0.607543
0.616204
0.624741
0.633116
0.641274
0.649283
0.656509
3.00001
3.00001
3.00001
3.00001
3.00001
3.00001
3.00001
3.00001
3.00001
3.00001
3.00001
3.00001
3.00001
3.00001
3
2.99999
2.99997
2.99986
2.99972
2.99869
2.99796
2.99001
2.98745
2.93821
2.819
2.51175
1.91123
0.977501
0.496906
0.392846
0.440845
0.495842
0.526136
0.538673
0.545436
0.552444
0.560759
0.569787
0.57863
0.587219
0.595324
0.60321
0.610726
0.618097
0.62524
0.632181
0.639061
0.645774
0.652473
0.658551
3.00001
3.00001
3.00001
3.00001
3.00001
3.00001
3.00001
3.00001
3.00001
3.00001
3.00001
3.00001
3.00001
3
3
2.99998
2.99997
2.99984
2.99967
2.9986
2.99774
2.98967
2.99237
2.93876
2.83591
2.55074
1.98336
1.06875
0.538925
0.379878
0.434133
0.499797
0.537167
0.551809
0.55843
0.564811
0.572307
0.580102
0.587582
0.59449
0.600836
0.606947
0.612787
0.618618
0.624335
0.630081
0.635816
0.641504
0.647284
0.652482
3.00001
3.00001
3.00001
3.00001
3.00001
3.00001
3.00001
3.00001
3.00001
3.00001
3.00001
3.00001
3.00001
3.00001
3
2.99999
2.99997
2.99983
2.99968
2.99846
2.9977
2.98982
2.993
2.9437
2.8525
2.58065
2.03862
1.14014
0.566482
0.363879
0.427391
0.502066
0.540577
0.553147
0.557382
0.561979
0.568098
0.574927
0.58184
0.588099
0.594027
0.599597
0.605103
0.610575
0.61599
0.621491
0.626893
0.632385
0.637824
0.642829
3.00001
3.00001
3.00001
3.00001
3.00001
3.00001
3.00001
3.00001
3.00001
3.00001
3.00001
3.00001
3.00001
3.00001
3
2.99999
2.99997
2.99983
2.99965
2.99832
2.99776
2.98896
2.98321
2.95337
2.86036
2.60459
2.07365
1.17653
0.582448
0.357679
0.425872
0.504036
0.542214
0.552993
0.555156
0.558239
0.563202
0.569483
0.575879
0.581632
0.587016
0.592119
0.597283
0.602356
0.607516
0.612684
0.617819
0.623057
0.628218
0.633076
3.00001
3.00001
3.00001
3.00001
3.00001
3.00001
3.00001
3.00001
3.00001
3.00001
3.00001
3.00001
3.00001
3
3
2.99998
2.99995
2.99977
2.99977
2.99926
2.99855
2.99154
2.98946
2.94642
2.87113
2.60146
2.0836
1.1782
0.596383
0.376214
0.434856
0.50572
0.544377
0.556409
0.558946
0.561676
0.566285
0.572229
0.57772
0.582593
0.586916
0.591104
0.595232
0.599409
0.60378
0.608165
0.612785
0.617397
0.622115
0.626407
3.00001
3.00001
3.00001
3.00001
3.00001
3.00001
3.00001
3.00001
3.00001
3.00001
3.00001
3.00001
3.00001
3.00001
3
2.99999
2.99993
2.99991
2.99943
2.99905
2.99514
2.99323
2.97527
2.94551
2.86842
2.62314
1.97487
1.19555
0.521378
0.348501
0.39643
0.450075
0.471921
0.476884
0.479998
0.486508
0.495812
0.506266
0.51664
0.526649
0.536088
0.545216
0.554024
0.562606
0.571038
0.57919
0.587207
0.594947
0.602453
0.609257
3.00001
3.00001
3.00001
3.00001
3.00001
3.00001
3.00001
3.00001
3.00001
3.00001
3.00001
3.00001
3.00001
3.00001
3
2.99999
2.99992
2.99988
2.99949
2.99898
2.99514
2.99339
2.96758
2.95686
2.87298
2.61771
1.9704
1.19043
0.526396
0.361333
0.407662
0.458606
0.478714
0.481181
0.480195
0.482544
0.488456
0.496134
0.504535
0.513207
0.52182
0.530735
0.539652
0.548949
0.558144
0.567528
0.57675
0.585956
0.595148
0.603494
3.00001
3.00001
3.00001
3.00001
3.00001
3.00001
3.00001
3.00001
3.00001
3.00001
3.00001
3.00001
3.00001
3
3
2.99998
2.99995
2.99973
2.99957
2.99817
2.99739
2.9884
2.98406
2.94883
2.87121
2.59414
2.07109
1.15655
0.601533
0.404265
0.453168
0.516003
0.553939
0.565481
0.566239
0.56614
0.567266
0.571138
0.575683
0.579105
0.581674
0.584014
0.586707
0.589875
0.593495
0.597569
0.601785
0.606326
0.610695
0.6149
3.00001
3.00001
3.00001
3.00001
3.00001
3.00001
3.00001
3.00001
3.00001
3.00001
3.00001
3.00001
3.00001
3
2.99999
2.99998
2.99988
2.99987
2.9996
2.99927
2.99618
2.99568
2.9762
2.9782
2.85909
2.62239
1.96225
1.20273
0.537425
0.37109
0.414211
0.463699
0.483319
0.485489
0.48468
0.486621
0.492532
0.501252
0.510599
0.519529
0.528059
0.536518
0.544954
0.553553
0.562075
0.570771
0.579286
0.588009
0.596554
0.604535
1.2598
0.86029
0.279458
0.226368
0.280456
0.359299
0.380509
0.38169
0.370191
0.36351
0.357654
0.352496
0.344308
0.33012
0.312481
0.29201
0.269106
0.244956
0.219765
0.193815
0.167578
0.141082
0.114709
0.0885718
0.0626448
0.0374188
0.0160076
0.0192224
0.0436082
0.0673793
0.091353
0.114277
0.137132
0.159094
0.180041
0.199886
0.2203
0.241826
0.263071
0.283527
0.303438
0.322897
0.34208
0.360756
0.379257
0.397301
0.41509
0.432512
0.449767
0.466551
0.483103
0.499282
0.515307
0.53097
0.546391
0.561625
0.576546
0.591364
0.605743
0.620113
0.634041
0.64795
0.661343
0.674887
0.687752
0.700955
0.713369
0.726152
0.738194
0.75055
0.762193
0.77416
0.785353
0.796957
0.807693
0.818869
0.829183
0.839834
0.849751
0.859808
0.869256
0.878663
0.887527
0.896184
0.904274
0.912036
0.919044
0.925576
0.931093
0.935517
0.938361
0.940464
0.942079
0.94277
0.94194
0.939315
0.934971
0.930525
0.925301
0.93106
1.16403
0.939257
0.610231
0.475558
0.373314
0.264731
0.186117
0.130085
0.0703457
0.0382366
0.0208391
0.011033
0.0285228
0.0404106
0.0552699
0.0744255
0.0924404
0.112668
0.133514
0.154582
0.176011
0.197311
0.218525
0.239564
0.260043
0.280044
0.299258
0.317647
0.335536
0.353213
0.370563
0.387731
0.40473
0.421438
0.43771
0.453018
0.46838
0.484888
0.501814
0.518187
0.534076
0.549915
0.565204
0.580753
0.595664
0.610992
0.625501
0.640437
0.654482
0.668972
0.682675
0.696826
0.710144
0.723822
0.736699
0.750002
0.762656
0.775729
0.788169
0.800974
0.813131
0.825593
0.837366
0.849414
0.86075
0.872342
0.88321
0.894324
0.904732
0.915386
0.925348
0.935543
0.945055
0.954764
0.963848
0.973037
0.981746
0.990394
0.998726
1.00684
1.01473
1.0223
1.02965
1.03664
1.0433
1.04955
1.05532
1.0605
1.06495
1.06832
1.07037
1.0718
1.07274
1.07299
1.07201
1.06945
1.06515
1.06116
1.05554
1.06038
1.09927
1.02735
0.904629
0.819264
0.749879
0.679261
0.617874
0.570685
0.532423
0.501775
0.482037
0.471603
0.465715
0.463461
0.464348
0.468844
0.475907
0.485564
0.496937
0.509536
0.522829
0.536793
0.550961
0.565395
0.579646
0.593751
0.607355
0.620506
0.63321
0.645744
0.657832
0.669873
0.681548
0.693314
0.704368
0.714983
0.725167
0.736232
0.74765
0.759093
0.769782
0.780495
0.790909
0.801516
0.811991
0.822699
0.833425
0.844308
0.855153
0.866143
0.877026
0.888003
0.898703
0.909513
0.920102
0.930811
0.941328
0.951845
0.96232
0.972698
0.98313
0.993425
1.00374
1.01398
1.02414
1.03427
1.04428
1.05418
1.06404
1.07367
1.08329
1.09261
1.10193
1.11089
1.11982
1.12841
1.13686
1.14503
1.1529
1.16053
1.16784
1.17483
1.18149
1.18777
1.19368
1.19918
1.20416
1.20866
1.21248
1.2154
1.21692
1.21845
1.21921
1.21979
1.21869
1.21692
1.21306
1.20982
1.204
1.2079
1.07187
1.0665
1.02805
0.989919
0.956343
0.922573
0.888875
0.85575
0.827899
0.80686
0.79214
0.785331
0.78242
0.780816
0.779279
0.778927
0.779265
0.781068
0.783803
0.7875
0.792005
0.797323
0.803274
0.809846
0.81683
0.824218
0.831738
0.83942
0.847151
0.855134
0.863143
0.871457
0.879754
0.888389
0.89656
0.904446
0.911847
0.919911
0.928454
0.937544
0.94602
0.954479
0.962625
0.9709
0.979103
0.987309
0.995584
1.00374
1.01206
1.02023
1.02856
1.03677
1.04509
1.05337
1.06167
1.07
1.07829
1.08667
1.09502
1.10342
1.11184
1.12029
1.12874
1.13726
1.14572
1.15429
1.16275
1.17139
1.17987
1.18854
1.19705
1.20567
1.21419
1.22277
1.2313
1.23977
1.24817
1.25643
1.26454
1.27248
1.28015
1.28758
1.29463
1.30138
1.30767
1.31352
1.31888
1.32355
1.32762
1.33042
1.3322
1.33377
1.33455
1.33493
1.3335
1.33168
1.32776
1.32444
1.31846
1.32032
1.04574
1.06834
1.07122
1.06619
1.0596
1.05047
1.03813
1.02341
1.00927
0.99766
0.989777
0.98563
0.983635
0.981927
0.979266
0.975908
0.973075
0.970872
0.969269
0.968318
0.967911
0.968163
0.969095
0.970595
0.972675
0.97523
0.978253
0.981635
0.985456
0.989648
0.994297
0.999407
1.00492
1.01094
1.0168
1.02259
1.02811
1.03431
1.04097
1.04855
1.05565
1.063
1.06983
1.07709
1.08396
1.09132
1.09826
1.10576
1.11282
1.12046
1.12764
1.13539
1.14267
1.15045
1.15779
1.16556
1.17292
1.18065
1.18808
1.19575
1.20331
1.21096
1.21866
1.22634
1.23417
1.24191
1.2498
1.2577
1.26572
1.27372
1.28182
1.2899
1.29798
1.30598
1.31392
1.32176
1.3295
1.33715
1.34466
1.35201
1.35925
1.36618
1.37289
1.37928
1.38518
1.39084
1.39571
1.40021
1.40373
1.40631
1.4079
1.40933
1.41032
1.41054
1.40952
1.40766
1.40431
1.40156
1.39619
1.3976
1.0175
1.04946
1.07312
1.08836
1.10082
1.10834
1.11262
1.11257
1.11005
1.10669
1.10384
1.10143
1.10076
1.1005
1.09996
1.09741
1.0937
1.0899
1.08631
1.08289
1.07995
1.0777
1.07562
1.0744
1.07355
1.07315
1.07349
1.07427
1.07563