/*--------------------------------*- C++ -*----------------------------------*\
| =========                 |                                                 |
| \\      /  F ield         | OpenFOAM: The Open Source CFD Toolbox           |
|  \\    /   O peration     | Version:  2112                                  |
|   \\  /    A nd           | Website:  www.openfoam.com                      |
|    \\/     M anipulation  |                                                 |
\*---------------------------------------------------------------------------*/
FoamFile
{
    version     2.0;
    format      ascii;
    arch        "LSB;label=32;scalar=64";
    class       volScalarField;
    location    "7.0005";
    object      p;
}
// * * * * * * * * * * * * * * * * * * * * * * * * * * * * * * * * * * * * * //

dimensions      [1 -1 -2 0 0 0 0];

internalField   nonuniform List<scalar> 
7000
(
0.999999
1
1.00001
1.00001
1.00001
1.00001
1.00003
1.00004
1.00023
1.00058
1.00203
1.00404
1.01242
1.0219
1.10514
1.11548
2.01058
2.90916
7.25083
11.5852
11.0437
10.5331
10.5038
10.5845
10.7541
10.8901
10.9859
11.0666
11.1439
11.2198
11.2936
11.3643
11.4313
11.4947
11.5546
11.611
11.6642
11.7145
11.7622
11.8076
11.8508
11.8921
11.9311
11.9679
12.0023
12.0341
12.0627
12.0877
12.1078
12.1257
1
1
1.00001
1.00001
1.00001
1.00001
1.00003
1.00004
1.00022
1.00055
1.00193
1.00383
1.01169
1.02008
1.10196
1.10911
1.97725
2.82834
7.04552
11.5324
11.0448
10.5352
10.501
10.5788
10.7444
10.8812
10.9785
11.0598
11.1373
11.2134
11.2874
11.3583
11.4256
11.4893
11.5495
11.6063
11.6598
11.7104
11.7585
11.8044
11.8481
11.8898
11.9293
11.9664
12.0012
12.0331
12.0618
12.0868
12.1065
12.1237
1
1
1.00001
1.00001
1.00001
1.00001
1.00003
1.00004
1.00022
1.00053
1.0018
1.00358
1.01142
1.0167
1.09965
1.09789
1.95019
2.77336
6.84932
11.5689
11.0773
10.5559
10.5139
10.5874
10.7456
10.8812
10.9792
11.0601
11.1367
11.212
11.2853
11.3556
11.4225
11.4859
11.546
11.6029
11.6565
11.7075
11.756
11.8022
11.8463
11.8882
11.9278
11.9649
11.9994
12.0308
12.0587
12.0824
12.1001
12.1144
1
1
1.00001
1.00001
1.00001
1.00001
1.00003
1.00004
1.00019
1.00047
1.00161
1.0033
1.00999
1.01951
1.09252
1.11634
1.88314
2.68327
6.58586
11.57
11.0958
10.5651
10.5158
10.5842
10.7341
10.8698
10.9696
11.0508
11.1271
11.2021
11.2753
11.3456
11.4126
11.4762
11.5367
11.5939
11.6482
11.6998
11.749
11.796
11.8408
11.8833
11.9233
11.9606
11.9949
12.0257
12.0526
12.0748
12.0908
12.1027
1
1
1.00001
1.00001
1.00001
1.00001
1.00003
1.00003
1.00017
1.00042
1.00142
1.00267
1.00932
1.01697
1.0916
1.09384
1.85867
2.59468
6.26264
11.5674
11.1301
10.5963
10.5317
10.5911
10.7269
10.8623
10.9634
11.0442
11.1193
11.1933
11.2657
11.3353
11.4018
11.4653
11.5258
11.5834
11.6382
11.6905
11.7405
11.7883
11.8338
11.8769
11.9172
11.9544
11.9883
12.0184
12.0441
12.065
12.0795
12.09
1
1
1.00001
1.00001
1.00001
1.00001
1.00003
1.00003
1.00015
1.00036
1.00122
1.00233
1.00749
1.00777
1.09362
1.09391
1.80599
2.4993
5.90735
11.513
11.1515
10.6402
10.5491
10.5958
10.7129
10.8493
10.9523
11.0328
11.107
11.1802
11.2518
11.321
11.3873
11.4507
11.5114
11.5694
11.6249
11.678
11.7289
11.7776
11.824
11.8677
11.9083
11.9455
11.9789
12.0082
12.0327
12.0524
12.0658
12.0752
1
1
1.00001
1.00001
1.00001
1.00001
1.00002
1.00003
1.00012
1.00031
1.00104
1.00203
1.00672
1.00757
1.08798
1.09249
1.75862
2.40829
5.61994
11.3462
11.1427
10.6978
10.5695
10.6009
10.6973
10.8344
10.9389
11.0192
11.0921
11.1641
11.2349
11.3035
11.3693
11.4327
11.4935
11.552
11.6081
11.6621
11.714
11.7637
11.8109
11.8552
11.8961
11.9333
11.9663
11.9947
12.0183
12.0368
12.0492
12.0579
1
1
1.00001
1.00001
1.00001
1.00001
1.00002
1.00003
1.00013
1.00032
1.00105
1.00208
1.00704
1.00822
1.08516
1.08746
1.72112
2.31573
5.38841
11.0694
11.0703
10.7858
10.5932
10.6082
10.6822
10.8164
10.9225
11.0026
11.0739
11.1445
11.2144
11.2823
11.3477
11.4109
11.4719
11.5308
11.5876
11.6425
11.6954
11.746
11.794
11.8389
11.8799
11.9168
11.9493
11.9769
11.9994
12.017
12.0286
12.0368
1
1
1.00001
1.00001
1.00001
1.00001
1.00002
1.00004
1.00015
1.00037
1.00101
1.00237
1.00563
1.01023
1.07622
1.09933
1.659
2.22177
5.16622
10.73
11.0537
10.8268
10.6092
10.6125
10.6697
10.7933
10.9021
10.9823
11.0519
11.1209
11.1898
11.2571
11.3221
11.3851
11.4462
11.5054
11.5629
11.6186
11.6723
11.7237
11.7724
11.8175
11.8585
11.8951
11.927
11.9538
11.9754
11.9921
12.0029
12.0109
1
1
1.00001
1.00001
1.00001
1.00001
1.00001
1.00004
1.00017
1.00039
1.00117
1.00257
1.00598
1.00829
1.07373
1.07341
1.63272
2.13394
4.91913
10.3286
11.0608
10.8572
10.6186
10.6077
10.656
10.7686
10.8781
10.958
11.026
11.0934
11.1611
11.2276
11.2921
11.3548
11.4159
11.4755
11.5335
11.5897
11.644
11.6959
11.7448
11.7899
11.8306
11.8666
11.8977
11.9235
11.9442
11.9602
11.9706
11.9782
1
1
1
1.00001
1.00001
1.00001
1.00001
1.00004
1.00017
1.00038
1.00118
1.00222
1.0071
1.00815
1.07066
1.0708
1.58664
2.03952
4.65288
9.86141
11.0866
10.8938
10.6205
10.5911
10.6355
10.7416
10.8505
10.9297
10.996
11.0617
11.1281
11.1937
11.2576
11.3198
11.3808
11.4403
11.4984
11.5549
11.6093
11.6611
11.7097
11.7542
11.7941
11.8293
11.8594
11.8843
11.904
11.9192
11.9291
11.9369
1
1
1
1
1.00001
1.00001
1.00001
1.00004
1.00015
1.00033
1.00099
1.00176
1.00588
1.00822
1.06311
1.07041
1.53445
1.93305
4.36698
9.3184
11.1445
10.9461
10.617
10.5625
10.6053
10.7094
10.8187
10.8973
10.9619
11.0257
11.0907
11.1551
11.2181
11.2796
11.3399
11.3989
11.4565
11.5125
11.5662
11.6172
11.6647
11.7081
11.7467
11.7805
11.8093
11.833
11.8518
11.8663
11.8758
11.8831
1
1
1
1
1
1
1.00001
1.00003
1.00014
1.0003
1.00092
1.00178
1.00532
1.00917
1.05432
1.06874
1.47198
1.83427
4.05706
8.66921
11.2485
11.0218
10.6078
10.5222
10.5645
10.67
10.7819
10.8601
10.9229
10.9847
11.048
11.111
11.1725
11.2327
11.2918
11.3496
11.4058
11.4602
11.5122
11.5613
11.6068
11.6482
11.6849
11.7169
11.7441
11.7664
11.7841
11.7978
11.8069
11.8148
1
1
1
1
1
1
1.00001
1.00004
1.00015
1.00031
1.00092
1.00171
1.00537
1.01077
1.04749
1.06138
1.41747
1.70897
3.72831
7.88619
11.419
11.1318
10.5944
10.4699
10.5135
10.6237
10.7399
10.8181
10.8789
10.9384
10.9994
11.0602
11.1197
11.1777
11.2344
11.2898
11.3434
11.395
11.4441
11.4902
11.5327
11.5711
11.6049
11.6343
11.6593
11.6796
11.6956
11.7084
11.7168
11.7245
1
1
1
1
1
1
1.00001
1.00005
1.00015
1.00032
1.00091
1.00178
1.00494
1.00707
1.04536
1.04547
1.36266
1.62119
3.33595
6.99797
11.6467
11.2834
10.5927
10.4206
10.4632
10.5732
10.6908
10.7684
10.8271
10.8841
10.9423
11.0004
11.0568
11.1117
11.1651
11.2168
11.2665
11.3142
11.359
11.4009
11.4392
11.4735
11.5032
11.5288
11.5502
11.5677
11.5814
11.5921
11.5993
11.6074
1
1
1
1
1
1.00001
1.00002
1.00009
1.0002
1.00058
1.00118
1.00302
1.00605
1.01154
1.03571
1.03703
1.30942
1.50298
2.98951
6.04063
11.7349
11.3393
10.58
10.3816
10.4186
10.5183
10.6329
10.7102
10.7677
10.8219
10.8767
10.9311
10.9838
11.0345
11.0833
11.13
11.1744
11.2163
11.2553
11.291
11.3232
11.3515
11.3753
11.3951
11.4107
11.4225
11.4315
11.4387
11.4437
11.4511
1
1
1
1
1
1
1.00002
1.00006
1.00012
1.00035
1.00068
1.00179
1.00378
1.00912
1.01623
1.08945
1.11639
1.7981
2.48643
5.81959
11.4728
11.1203
10.5079
10.3365
10.3669
10.4516
10.5621
10.6418
10.6998
10.7515
10.8026
10.8527
10.9007
10.9462
10.9893
11.0298
11.0674
11.102
11.1331
11.1606
11.1841
11.2032
11.2176
11.2279
11.2341
11.2365
11.236
11.235
11.2337
11.2395
1
1
1
1
1
1.00001
1.00002
1.00005
1.0001
1.0003
1.00058
1.00159
1.00326
1.0081
1.01505
1.0846
1.10975
1.69904
2.29456
5.3455
10.8847
10.847
10.5195
10.3205
10.3285
10.3821
10.4882
10.5713
10.6291
10.6771
10.723
10.7677
10.8099
10.849
10.8848
10.9173
10.9462
10.9714
10.9924
11.0088
11.0206
11.0264
11.026
11.0215
11.0105
10.9945
10.9759
10.9567
10.9405
10.9376
1
1
1
1
1
1.00001
1.00001
1.00004
1.00008
1.00024
1.0004
1.00146
1.00244
1.00843
1.00678
1.08017
1.07812
1.63716
2.1218
4.88981
10.1848
10.7773
10.5666
10.3118
10.2896
10.3281
10.4188
10.5039
10.5596
10.602
10.6415
10.6795
10.7146
10.7459
10.7732
10.7961
10.8144
10.8278
10.8356
10.8369
10.8332
10.8219
10.7995
10.77
10.7311
10.6829
10.6258
10.5644
10.5054
10.4721
1
1
1
1
1
1
1.00001
1.00002
1.00004
1.00017
1.00017
1.00221
1.00282
1.01574
1.03787
1.05924
1.05846
1.54441
1.93168
4.41347
9.32133
10.7355
10.5695
10.281
10.2332
10.2676
10.3511
10.4337
10.4861
10.5235
10.557
10.588
10.6152
10.6374
10.6545
10.6663
10.672
10.6711
10.6646
10.6487
10.6217
10.584
10.5331
10.4678
10.3842
10.2789
10.1498
9.99391
9.8166
9.63406
1
1
1
1
1
1
1.00001
1.00001
1.00004
1.00004
1.00037
1.00053
1.00233
1.00582
1.01024
1.00907
1.13904
1.14087
2.23077
3.50684
8.41644
10.7387
10.5764
10.2456
10.1674
10.1983
10.2758
10.3542
10.4017
10.4324
10.4578
10.48
10.4972
10.5083
10.5124
10.5104
10.502
10.4828
10.4514
10.4091
10.3531
10.2801
10.1857
10.0634
9.90319
9.68927
9.39149
8.95576
8.25829
6.84043
1
1
1
1
1
1
1
1.00001
1.00002
1.00002
1.0002
1.00021
1.00198
1.00377
1.01095
1.01223
1.11602
1.10927
2.06708
2.99313
7.27666
10.7485
10.5727
10.2003
10.0896
10.1159
10.1852
10.2585
10.3007
10.3243
10.3409
10.3526
10.358
10.3566
10.3493
10.3313
10.2992
10.2565
10.2009
10.1299
10.0396
9.92472
9.77842
9.59077
9.34678
9.02431
8.58934
7.99061
7.18983
6.00908
1
1
1
1
1
1
1
1
1.00001
1.00002
1.00018
1.00019
1.00182
1.00321
1.0098
1.01263
1.09441
1.09866
1.81121
2.43773
5.74063
10.6725
10.5543
10.2145
10.0464
10.0546
10.0954
10.1611
10.1986
10.2145
10.2204
10.2203
10.2163
10.204
10.1778
10.1393
10.0897
10.0276
9.94956
9.85243
9.73209
9.5831
9.39827
9.16857
8.88178
8.5234
8.07747
7.52555
6.88587
6.10381
1
1
1
1
1
1
1
1
1.00001
1.00001
1.00015
1.00017
1.00146
1.00303
1.00746
1.0133
1.07446
1.09509
1.62229
2.10969
4.85175
9.96022
10.4493
10.2527
10.0249
9.98481
10.0063
10.0553
10.0911
10.1029
10.1018
10.0958
10.0802
10.0496
10.0088
9.95746
9.89404
9.81584
9.7199
9.60362
9.46429
9.29654
9.09565
8.85587
8.57077
8.23456
7.84329
7.39448
6.90793
6.34722
1
1
1
1
1
1
1
1
1.00001
1.00001
1.0001
1.00011
1.00103
1.002
1.00544
1.00809
1.05706
1.07138
1.47534
1.82675
4.03228
8.39684
10.4373
10.3314
10.0659
9.94767
9.95068
9.9698
9.99808
10.0036
9.99871
9.98322
9.95108
9.90833
9.8574
9.79599
9.72143
9.6316
9.52454
9.39813
9.24995
9.07653
8.87727
8.64646
8.38459
8.08745
7.75685
7.39429
6.99033
6.57277
1
1
1
1
1
1
1
1
1.00001
1.00002
1.00004
1.00022
1.00023
1.00189
1.00369
1.00999
1.01231
1.10499
1.09735
2.00278
2.82012
6.77748
10.4525
10.4005
10.1595
9.9414
9.89261
9.89947
9.91437
9.91331
9.90386
9.87844
9.83174
9.77936
9.72069
9.65178
9.56989
9.47344
9.36112
9.23161
9.08336
8.91491
8.7257
8.51227
8.27686
8.01517
7.73048
7.41938
7.10133
6.76028
1
1
1
1
1
1
1
1
1
1.00002
1.00001
1.00019
1.00023
1.0016
1.00349
1.00767
1.01403
1.08181
1.1029
1.68699
2.22814
5.09961
10.1216
10.3849
10.1875
9.92539
9.82863
9.82643
9.83022
9.8271
9.81247
9.77758
9.72282
9.66326
9.59869
9.52459
9.43846
9.33916
9.22591
9.09798
8.95457
8.79487
8.61822
8.4241
8.21234
7.98334
7.73836
7.47725
7.20966
6.92504
1
1
1
1
1
1
1
1
1
1.00001
1.00001
1.00014
1.00017
1.0011
1.00241
1.00549
1.00568
1.06131
1.05528
1.53679
1.88476
4.26577
8.87136
10.3623
10.2442
9.97283
9.81948
9.76866
9.76234
9.75155
9.72725
9.68119
9.6243
9.56145
9.49315
9.41515
9.32723
9.22754
9.11599
8.99218
8.85567
8.7062
8.54347
8.36758
8.17878
7.97819
7.76211
7.54089
7.31376
7.07187
1
1
1
1
1
1
1
1
1
1.00001
1.00003
1.00008
1.00009
1.00116
1.00134
1.00937
1.02407
1.03559
1.03132
1.34839
1.53834
3.15496
6.30986
10.4277
10.4293
10.205
9.89114
9.76471
9.73441
9.71036
9.66891
9.61459
9.55236
9.4844
9.4107
9.32848
9.23886
9.13907
9.03013
8.91144
8.78264
8.64369
8.49449
8.33534
8.16645
7.98657
7.80011
7.60744
7.41037
7.20326
1
1
1
1
1
1
1
1
1
1.00001
1.00002
1.00003
1.00021
1.00025
1.00165
1.00322
1.0083
1.01047
1.08348
1.08937
1.68446
2.17994
4.99004
10.0146
10.4316
10.233
9.89299
9.73033
9.67374
9.64237
9.6009
9.54607
9.48227
9.41221
9.33653
9.25456
9.16583
9.06972
8.96554
8.85337
8.73304
8.60444
8.4678
8.32347
8.1705
8.00918
7.84552
7.67728
7.50574
7.32721
1
1
1
1
1
1
1
1
1
1
1.00001
1.00002
1.00016
1.00018
1.0012
1.00238
1.00605
1.00748
1.06001
1.06242
1.51423
1.84603
4.16964
8.6179
10.3244
10.2067
9.9067
9.6928
9.60726
9.57299
9.53711
9.48656
9.42453
9.35526
9.28033
9.19958
9.11291
9.02011
8.92098
8.81546
8.70346
8.58497
8.46056
8.32778
8.18769
8.04675
7.90216
7.75392
7.60354
7.4479
1
1
1
1
1
1
1
1
1
1
1
1.00003
1.00005
1.00019
1.00021
1.00192
1.00293
1.01196
1.02009
1.10884
1.13168
2.03184
2.91209
7.06348
10.3087
10.2491
9.98969
9.71257
9.58905
9.54081
9.50145
9.44936
9.38587
9.31613
9.24185
9.16319
9.07965
8.99108
8.89736
8.79874
8.69508
8.58535
8.46737
8.34486
8.22187
8.09616
7.96722
7.83548
7.70238
7.56533
1
1
1
1
1
1
1
1
1
1
1.00001
1.00002
1.00006
1.00008
1.00057
1.00063
1.00427
1.01023
1.01293
1.01569
1.21253
1.22981
2.66602
4.59357
10.0886
10.3832
10.1548
9.77755
9.59668
9.52699
9.48183
9.42919
9.36639
9.2971
9.22354
9.14638
9.06593
8.98226
8.89422
8.8003
8.70028
8.59566
8.48825
8.38083
8.27118
8.15791
8.04169
7.92341
7.80429
7.68214
1
1
1
1
1
1
1
1
1
1
1
1.00001
1.00003
1.0001
1.00013
1.00102
1.00174
1.00646
1.00746
1.06183
1.06299
1.53542
1.86007
4.27329
8.80192
10.3496
10.2034
9.85651
9.61002
9.49495
9.44075
9.39583
9.34246
9.28056
9.21292
9.14132
9.0657
8.98474
8.89934
8.81022
8.71785
8.62389
8.5299
8.43259
8.33177
8.22798
8.12208
8.01474
7.9069
7.7966
1
1
1
1
1
1
1
1
1
1
1
1.00001
1.00001
1.00006
1.00007
1.00063
1.0009
1.00446
1.00568
1.03701
1.03529
1.35466
1.52063
3.19031
6.36098
10.4077
10.3763
10.0878
9.69627
9.50627
9.4366
9.39346
9.34346
9.28372
9.21698
9.14642
9.07312
8.99698
8.91807
8.83761
8.75577
8.6712
8.58319
8.49192
8.39797
8.30209
8.20473
8.10633
8.00758
7.90668
1
1
1
1
1
1
1
1
1
1
1
1.00001
1.00002
1.00004
1.00019
1.00023
1.0017
1.00333
1.00874
1.01279
1.08079
1.09186
1.70128
2.20861
5.09636
10.1038
10.3516
10.1117
9.70436
9.49215
9.41428
9.37649
9.33508
9.2827
9.22227
9.15783
9.09153
9.0239
8.95381
8.88025
8.80321
8.72276
8.63932
8.5534
8.46554
8.37613
8.28569
8.19456
8.10323
8.01004
1
1
1
1
1
1
1
1
1
1
1
1
1.00002
1.00003
1.00014
1.00017
1.00126
1.00237
1.00665
1.01001
1.06386
1.07536
1.5474
1.88955
4.36624
8.94312
10.2355
10.0832
9.72819
9.49496
9.40337
9.36976
9.33791
9.29271
9.23983
9.18354
9.12378
9.06036
8.99352
8.92334
8.85023
8.77477
8.69675
8.61632
8.53402
8.45031
8.36556
8.2801
8.1945
8.10737
1
1
1
1
1
1
1
1
1
1
1
1
1
1.00003
1.00006
1.00025
1.00028
1.00233
1.00416
1.0128
1.01369
1.12423
1.11202
2.15064
3.09512
7.48197
10.2405
10.124
9.79866
9.52313
9.41374
9.38086
9.35634
9.32102
9.27623
9.22385
9.16621
9.1046
9.03963
8.97158
8.90067
8.82699
8.7514
8.6745
8.59656
8.51781
8.43844
8.35861
8.27874
8.19753
1
1
1
1
1
1
1
1
1
1
1
1
1.00001
1.00003
1.00004
1.00024
1.00025
1.00203
1.0038
1.01019
1.01007
1.09396
1.08216
1.87843
2.42946
5.90911
10.2782
10.2338
9.95068
9.60295
9.45578
9.41874
9.40044
9.36881
9.322
9.26692
9.20762
9.14555
9.08098
9.01402
8.94535
8.87525
8.80383
8.7312
8.6576
8.58314
8.5081
8.43267
8.35714
8.28026
1
1
1
1
1
1
1
1
1
1
1
1
1.00001
1.00001
1.00006
1.0001
1.00055
1.00065
1.00594
1.01409
1.01588
1.02046
1.18913
1.23195
2.52631
4.27867
9.78603
10.3004
10.0759
9.69621
9.52277
9.47291
9.44837
9.41221
9.36254
9.30582
9.24609
9.18469
9.12174
9.05734
8.99122
8.92354
8.85468
8.78488
8.71435
8.64344
8.57223
8.50079
8.42937
8.35684
1
1
1
1
1
1
1
1
1
1
1
1
1.00001
1.00001
1.00005
1.0001
1.00042
1.00049
1.00329
1.00735
1.01221
1.01383
1.14205
1.15823
2.28208
3.54686
8.55449
10.3504
10.1879
9.82562
9.58732
9.49483
9.45861
9.42427
9.37866
9.32508
9.2683
9.21021
9.15081
9.09006
9.02794
8.96432
8.89933
8.83343
8.76696
8.70004
8.63283
8.56546
8.49814
8.42978
1
1
1
1
1
1
1
1
1
1
1
1
1
1.00001
1.00002
1.00006
1.00007
1.00056
1.00054
1.00445
1.00779
1.02967
1.02182
1.35177
1.45201
3.23354
6.40252
10.5951
10.5154
10.1511
9.75256
9.56452
9.49902
9.46248
9.41923
9.36626
9.30856
9.24933
9.1897
9.12942
9.0682
9.00647
8.94439
8.88192
8.81913
8.75607
8.69284
8.62951
8.5662
8.50194
1
1
1
1
1
1
1
1
1
1
1
1
1
1.00001
1.00002
1.0001
1.00016
1.00077
1.00083
1.00651
1.01506
1.01939
1.02434
1.22843
1.24787
2.74825
4.72296
10.5581
10.6392
10.3316
9.84896
9.60901
9.52816
9.49101
9.44924
9.3968
9.3392
9.2806
9.22231
9.16426
9.10613
9.04772
8.98897
8.92981
8.87041
8.81084
8.75123
8.69165
8.63225
8.57208
1
1
1
1
1
1
1
1
1
1
1
1
1
1.00001
1.00001
1.00008
1.00014
1.00059
1.00073
1.00557
1.01359
1.01575
1.01741
1.1851
1.1808
2.5727
4.17509
9.88924
10.6016
10.3488
9.89457
9.6559
9.56791
9.52681
9.48481
9.43358
9.37727
9.31984
9.26273
9.20612
9.14969
9.09314
9.03642
8.97963
8.92271
8.86568
8.80862
8.75165
8.69491
8.63769
1
1
1
1
1
1
1
1
1
1
1
1
1
1
1.00002
1.00002
1.0001
1.0001
1.0009
1.00137
1.00506
1.01032
1.04265
1.04408
1.51786
1.75069
4.20566
8.63322
10.5959
10.4222
10.007
9.72123
9.59837
9.5493
9.51155
9.46574
9.41288
9.35745
9.30189
9.24675
9.19182
9.13686
9.08176
9.02652
8.97119
8.91578
8.86042
8.80507
8.74992
8.69427
1
1
1
1
1
1
1
1
1
1
1
1
1
1
1.00001
1.00002
1.00008
1.00009
1.00065
1.00066
1.00512
1.00923
1.03819
1.03741
1.40758
1.56642
3.57718
7.28126
10.8977
10.7195
10.2139
9.79925
9.62093
9.56631
9.53678
9.49743
9.44729
9.39284
9.33792
9.2835
9.22943
9.17538
9.12121
9.06688
9.01242
8.95788
8.90333
8.84889
8.79457
8.73998
1
1
1
1
1
1
1
1
1
1
1
1
1
1
1.00001
1.00001
1.00007
1.00013
1.00058
1.00068
1.0045
1.01071
1.01569
1.01335
1.28631
1.3267
3.01487
5.83228
11.363
11.0513
10.2927
9.80852
9.63338
9.59144
9.56844
9.53113
9.4812
9.42652
9.37143
9.317
9.26309
9.20934
9.15555
9.10166
9.04761
8.99353
8.93945
8.88548
8.8317
8.77766
1
1
1
1
1
1
1
1
1
1
1
1
1
1
1
1.00004
1.00005
1.00026
1.00032
1.002
1.00236
1.01256
1.02341
1.08441
1.06728
1.92876
2.4755
6.27568
11.1108
10.7352
10.0197
9.69024
9.59645
9.57973
9.56455
9.53371
9.4887
9.43874
9.38733
9.3356
9.28368
9.23153
9.17912
9.12645
9.0736
9.02054
8.96735
8.91401
8.86064
8.80684
1
1
1
1
1
1
1
1
1
1
1
1
1
1
1.00001
1.00002
1.00003
1.00028
1.00029
1.00182
1.00263
1.01135
1.02291
1.07959
1.08797
1.76085
2.24874
5.48979
10.7473
10.5573
10.0582
9.739
9.62597
9.60007
9.58218
9.55008
9.50595
9.45598
9.40461
9.35323
9.30184
9.25023
9.19837
9.14628
9.094
9.04155
8.98894
8.93615
8.88319
8.82954
1
1
1
1
1
1
1
1
1
1
1
1
1
1
1
1.00002
1.00003
1.00015
1.00018
1.00146
1.00289
1.0074
1.01146
1.07156
1.05816
1.71582
2.08896
5.14429
10.322
10.5348
10.2541
9.87201
9.6957
9.63953
9.60944
9.57102
9.52272
9.47019
9.41725
9.36502
9.31345
9.26215
9.21098
9.15976
9.10848
9.05699
9.00527
8.95327
8.90101
8.84784
1
1
1
1
1
1
1
1
1
1
1
1
1
1
1
1.00002
1.00002
1.00013
1.00011
1.00121
1.0024
1.00617
1.00931
1.06158
1.05147
1.6415
1.96006
4.79173
9.77304
10.6107
10.3822
9.95268
9.72727
9.64517
9.6096
9.57329
9.5272
9.47545
9.42236
9.3699
9.31843
9.26758
9.21707
9.16665
9.11624
9.06575
9.01513
8.96438
8.91346
8.86178
1
1
1
1
1
1
1
1
1
1
1
1
1
1
1
1.00002
1.00003
1.00011
1.00013
1.00104
1.00179
1.00564
1.01052
1.05014
1.05171
1.5675
1.84561
4.48489
9.22257
10.7595
10.5372
10.0595
9.77036
9.65679
9.61566
9.58164
9.53646
9.48313
9.42775
9.37337
9.3207
9.2693
9.21873
9.16872
9.11906
9.06959
9.0202
8.97082
8.92153
8.87189
1
1
1
1
1
1
1
1
1
1
1
1
1
1
1
1.00002
1.00003
1.00012
1.00015
1.00116
1.002
1.00643
1.00722
1.05097
1.04051
1.52877
1.76619
4.2144
8.71546
10.9455
10.698
10.1428
9.793
9.65953
9.61894
9.58735
9.54179
9.48653
9.42889
9.37271
9.31883
9.26685
9.21622
9.16651
9.11752
9.06905
9.02101
8.97325
8.92586
8.87844
1
1
1
1
1
1
1
1
1
1
1
1
1
1
1
1.00002
1.00003
1.00013
1.00016
1.00117
1.00199
1.0061
1.00676
1.04608
1.03518
1.49393
1.69879
4.01945
8.31451
11.0967
10.8036
10.1596
9.77999
9.64868
9.61546
9.59004
9.54661
9.49201
9.43405
9.37687
9.32223
9.26947
9.21826
9.1684
9.11971
9.07197
9.02488
8.97836
8.93217
8.88598
1
1
1
1
1
1
1
1
1
1
1
1
1
1
1
1.00001
1.00003
1.00013
1.00019
1.00125
1.00301
1.00516
1.01633
1.04009
1.04169
1.45612
1.65181
3.89273
8.03433
11.1262
10.8162
10.1375
9.7477
9.61874
9.59631
9.57616
9.53637
9.48532
9.42794
9.37211
9.3184
9.26627
9.21564
9.16654
9.11885
9.07231
9.02657
8.98143
8.93679
8.89222
1
1
1
1
1
1
1
1
1
1
1
1
1
1
1
1.00002
1.00002
1.00018
1.00043
1.00055
1.00062
1.00549
1.0098
1.04187
1.03851
1.46009
1.62015
3.87306
7.93031
10.9861
10.7408
10.1508
9.76441
9.62387
9.59588
9.57424
9.53561
9.48524
9.4294
9.37503
9.32221
9.27066
9.22049
9.17194
9.12495
9.07931
9.0346
8.99053
8.94681
8.90297
1
1
1
1
1
1
1
1
1
1
1
1
1
1
1.00001
1.00001
1.00005
1.00009
1.00041
1.00051
1.00352
1.00692
1.01496
1.04098
1.12101
1.12769
2.24467
3.42001
8.38242
10.6571
10.4093
9.92291
9.68799
9.62163
9.60129
9.57215
9.52875
9.47776
9.42515
9.37317
9.32236
9.27269
9.22436
9.17747
9.13194
9.08737
9.04328
8.99924
8.95489
8.90976
1
1
1
1
1
1
1
1
1
1
1
1
1
1
1.00001
1.00001
1.00006
1.00009
1.00041
1.00048
1.0038
1.00873
1.01612
1.04561
1.12149
1.13059
2.23415
3.40456
8.29559
10.5578
10.3395
9.89322
9.66559
9.60899
9.60089
9.58207
9.54225
9.48962
9.43388
9.37986
9.32889
9.28036
9.23349
9.18787
9.14319
9.099
9.05499
9.01065
8.96554
8.91875
1
1
1
1
1
1
1
1
1
1
1
1
1
1
1
1.00002
1.00002
1.0002
1.00049
1.00092
1.0033
1.00492
1.01878
1.03753
1.03575
1.46112
1.63178
3.89839
7.9288
10.6986
10.5202
10.0462
9.69461
9.56555
9.55316
9.54708
9.5288
9.48952
9.43125
9.37703
9.32892
9.28359
9.23881
9.19391
9.14901
9.10411
9.0592
9.01418
8.96898
8.9237
1
1
1
1
1
1
1
1
1
1
1
1
1
1
1.00001
1.00001
1.0001
1.00024
1.00031
1.00037
1.00267
1.00592
1.01129
1.01503
1.12287
1.09633
2.28698
3.37275
8.28856
10.5188
10.3001
9.8482
9.61693
9.56945
9.57049
9.56518
9.54302
9.49481
9.43787
9.38517
9.33706
9.29131
9.24623
9.2013
9.15671
9.11187
9.06695
9.0215
8.97478
8.92663
2.78507
2.8046
3.94618
3.99854
3.80762
3.74867
3.73441
3.74603
3.77856
3.80465
3.82146
3.83891
3.86671
3.9119
3.9687
4.03249
4.10154
4.17307
4.24563
4.3177
4.38788
4.45507
4.51848
4.57738
4.63136
4.68029
4.72346
4.76509
4.79948
4.82767
4.8492
4.86573
4.87644
4.88278
4.88398
4.88251
4.87746
4.86682
4.85143
4.83297
4.81149
4.78707
4.75981
4.73009
4.69785
4.66351
4.62715
4.58901
4.54921
4.50805
4.46558
4.42204
4.37754
4.33231
4.28645
4.2401
4.19342
4.14649
4.09949
4.05243
4.0055
3.9587
3.91218
3.86594
3.82012
3.77469
3.72977
3.68536
3.64154
3.59832
3.55577
3.51389
3.47276
3.43242
3.3929
3.35428
3.31658
3.27992
3.24433
3.20994
3.17683
3.14515
3.115
3.08657
3.06005
3.0357
3.01385
2.99488
2.97949
2.96824
2.96495
2.96557
2.96776
2.97309
2.98439
3.00517
3.03261
3.06564
3.09999
3.13557
3.75726
3.79211
4.08166
3.98441
3.78524
3.73577
3.73418
3.75865
3.80954
3.83034
3.8408
3.84063
3.85385
3.90544
3.96131
4.0248
4.0953
4.16769
4.24082
4.31323
4.38336
4.45054
4.51383
4.57255
4.62661
4.67546
4.71941
4.75957
4.79381
4.82192
4.84406
4.86068
4.87186
4.87812
4.8792
4.87819
4.87427
4.8648
4.84773
4.82866
4.80748
4.78337
4.75645
4.72673
4.69472
4.66038
4.62421
4.5861
4.5465
4.50538
4.4631
4.41965
4.37534
4.33021
4.28449
4.23825
4.19169
4.14487
4.09794
4.051
4.00413
3.95743
3.91097
3.86482
3.81904
3.77369
3.72881
3.68446
3.64068
3.59752
3.555
3.51319
3.4721
3.43183
3.39237
3.35382
3.31621
3.27963
3.24413
3.20983
3.17682
3.14521
3.11514
3.08679
3.06039
3.0362
3.01452
2.99568
2.98064
2.96924
2.96597
2.96667
2.96901
2.97446
2.98575
3.00652
3.03327
3.06618
3.10088
3.14051
4.937
4.52867
4.40308
4.15078
3.93435
3.82957
3.78697
3.7854
3.79214
3.80853
3.82515
3.84229
3.8708
3.91533
3.97094
4.03335
4.10136
4.17212
4.24395
4.31547
4.38532
4.45228
4.51566
4.57432
4.62816
4.67695
4.72052
4.75982
4.79368
4.82156
4.84352
4.85978
4.87069
4.87616
4.87629
4.87537
4.87194
4.86355
4.84624
4.82514
4.80281
4.77848
4.75163
4.72207
4.69005
4.65579
4.61959
4.58162
4.54209
4.50116
4.459
4.41576
4.3716
4.32668
4.28111
4.23505
4.18862
4.14195
4.09516
4.04832
4.00158
3.95498
3.90865
3.86262
3.81697
3.77176
3.72703
3.68284
3.63923
3.59622
3.5539
3.51225
3.47138
3.43131
3.39209
3.35377
3.31641
3.28008
3.24487
3.21087
3.17819
3.14694
3.11733
3.0895
3.06362
3.03997
3.0188
3.00045
2.98574
2.97504
2.97253
2.97331
2.97583
2.98156
2.99318
3.01331
3.03981
3.0726
3.10684
3.15105
5.51738
5.01358
4.72306
4.44541
4.19979
4.02494
3.92381
3.88411
3.88452
3.8889
3.89956
3.914
3.92905
3.95696
4.00112
4.05751
4.1209
4.18751
4.2557
4.32406
4.39104
4.4554
4.51627
4.57298
4.62502
4.67191
4.71394
4.75147
4.7841
4.81138
4.83312
4.84932
4.86013
4.86547
4.86544
4.86464
4.86184
4.85487
4.84008
4.81777
4.79406
4.76915
4.74229
4.71298
4.68125
4.64726
4.61131
4.57358
4.53432
4.49367
4.45183
4.40891
4.3651
4.32051
4.27528
4.22956
4.18345
4.13709
4.09059
4.04406
3.9976
3.95129
3.90521
3.85946
3.81408
3.76911
3.72466
3.68075
3.63738
3.59462
3.55254
3.51107
3.47045
3.43069
3.39179
3.35381
3.31683
3.28092
3.24617
3.21269
3.18051
3.14994
3.12104
3.094
3.06901
3.04635
3.02632
3.00922
2.9959
2.98646
2.98524
2.98611
2.98879
2.99478
3.00684
3.02633
3.05168
3.08256
3.11466
3.16034
5.90832
5.43011
5.07781
4.77209
4.49972
4.28387
4.1364
4.05067
4.0088
3.98854
3.98407
3.98588
3.99271
4.0098
4.04547
4.09735
4.15564
4.2167
4.27931
4.3422
4.40437
4.46446
4.52169
4.57545
4.62499
4.66993
4.71011
4.74579
4.77682
4.80293
4.82392
4.83962
4.84995
4.85466
4.85452
4.85359
4.85083
4.84444
4.83112
4.80949
4.78511
4.75929
4.73186
4.70246
4.6709
4.63723
4.60161
4.56427
4.52536
4.48512
4.44364
4.40115
4.3577
4.31351
4.26864
4.22328
4.1775
4.13148
4.08528
4.03906
3.9929
3.94686
3.90111
3.85565
3.81055
3.76566
3.72157
3.678
3.63499
3.59262
3.55092
3.51008
3.46995
3.43062
3.39221
3.35477
3.31837
3.2831
3.24904
3.21631
3.18513
3.15549
3.12766
3.10176
3.07809
3.05692
3.03855
3.02337
3.01189
3.00476
3.00508
3.00633
3.0093
3.01551
3.02798
3.04737
3.0706
3.09891
3.12634
3.17033
6.22083
5.80154
5.44432
5.11929
4.82809
4.58337
4.39592
4.26636
4.18488
4.13677
4.11187
4.10526
4.10669
4.1124
4.12696
4.15764
4.20367
4.25607
4.31096
4.3665
4.42179
4.47593
4.52809
4.57737
4.62338
4.66549
4.70295
4.73653
4.76568
4.79021
4.81018
4.82534
4.8351
4.83936
4.83919
4.83823
4.83555
4.8295
4.81708
4.79701
4.77301
4.74673
4.71873
4.68905
4.65756
4.6242
4.58901
4.55214
4.5137
4.47393
4.43292
4.39089
4.34792
4.30419
4.2598
4.21489
4.16958
4.12398
4.07824
4.03243
3.98675
3.94094
3.89575
3.85081
3.80623
3.76225
3.71847
3.67526
3.6327
3.59084
3.54968
3.5093
3.46972
3.43101
3.39323
3.35649
3.32084
3.2864
3.25326
3.22156
3.19144
3.1631
3.13669
3.11254
3.09078
3.07168
3.0556
3.04296
3.03386
3.03069
3.03113
3.03267
3.03616
3.04342
3.05673
3.07456
3.09505
3.11951
3.14133
3.18012
6.47753
6.11729
5.78008
5.45253
5.15381
4.89224
4.67767
4.51348
4.39601
4.31654
4.26572
4.23612
4.22178
4.22209
4.22507
4.2346
4.25632
4.29754
4.34364
4.39232
4.44128
4.48932
4.5358
4.58019
4.62182
4.66022
4.69505
4.72614
4.75326
4.77598
4.79476
4.80905
4.81822
4.82202
4.82182
4.82083
4.81817
4.81228
4.80031
4.78172
4.75868
4.73256
4.70432
4.67439
4.64287
4.60973
4.57495
4.53858
4.50071
4.46149
4.42105
4.37957
4.33716
4.29396
4.25013
4.20573
4.16094
4.11588
4.07063
4.02537
3.98022
3.93543
3.89057
3.84604
3.80193
3.7583
3.71511
3.67247
3.63048
3.58918
3.54865
3.50894
3.47009
3.43217
3.39526
3.35947
3.32484
3.29154
3.25964
3.22931
3.20071
3.17404
3.14952
3.12743
3.10802
3.09151
3.07827
3.06856
3.06272
3.06277
3.06342
3.06536
3.06971
3.07858
3.09148
3.10721
3.1242
3.14406
3.15987
3.19152
6.69295
6.3825
6.07407
5.76134
5.46179
5.19196
4.96209
4.77527
4.62989
4.5219
4.44503
4.39282
4.36099
4.34299
4.33653
4.33758
4.34268
4.35615
4.38426
4.42205
4.46341
4.50469
4.54508
4.58385
4.62038
4.65437
4.68568
4.71378
4.73853
4.75963
4.77699
4.78986
4.79849
4.80195
4.80172
4.80071
4.79804
4.79223
4.78049
4.76297
4.74104
4.71565
4.68773
4.65789
4.62645
4.59351
4.55908
4.52317
4.48585
4.44722
4.40739
4.3665
4.3247
4.28208
4.23883
4.19502
4.15068
4.10628
4.06183
4.01727
3.97275
3.92843
3.88426
3.84038
3.79689
3.75385
3.71134
3.66941
3.62814
3.5876
3.54788
3.50904
3.47108
3.43416
3.39833
3.36369
3.33035
3.29843
3.26809
3.23947
3.21278
3.18821
3.16602
3.14643
3.12977
3.11627
3.10618
3.09966
3.0979
3.09826
3.0995
3.1024
3.10833
3.1183
3.12996
3.14268
3.15543
3.16985
3.18116
3.20409
6.88014
6.61113
6.33333
6.03821
5.74805
5.47996
5.24203
5.03877
4.87241
4.74129
4.64086
4.56589
4.51219
4.47511
4.45174
4.4381
4.4344
4.43588
4.44207
4.45689
4.48667
4.51907
4.55317
4.58642
4.61806
4.64776
4.67526
4.70014
4.72244
4.7413
4.75697
4.76845
4.77635
4.77942
4.77918
4.77817
4.77555
4.76986
4.75834
4.74148
4.72056
4.69624
4.66913
4.63983
4.60871
4.57603
4.54191
4.50643
4.46962
4.43158
4.3924
4.35219
4.31108
4.26916
4.22659
4.18345
4.14014
4.09638
4.05256
4.00871
3.96489
3.92121
3.87775
3.83458
3.79181
3.7495
3.70776
3.66664
3.62622
3.58658
3.54782
3.50994
3.4731
3.43738
3.40283
3.36961
3.33781
3.30761
3.27914
3.25261
3.22822
3.20618
3.18673
3.17009
3.15654
3.14629
3.1394
3.13652
3.13669
3.13745
3.13939
3.14346
3.15104
3.16043
3.16987
3.17905
3.18747
3.19659
3.20399
3.21934
7.04828
6.81322
6.56349
6.29008
6.01302
5.74923
5.50864
5.29698
5.1166
4.96653
4.84468
4.74823
4.67395
4.61769
4.57675
4.54744
4.52806
4.51599
4.51397
4.51576
4.52238
4.53739
4.56283
4.58914
4.61572
4.64109
4.66471
4.68628
4.70555
4.72187
4.73583
4.74531
4.75226
4.75471
4.75447
4.75344
4.75078
4.74501
4.73337
4.71697
4.69708
4.67402
4.64811
4.6197
4.58921
4.55698
4.52325
4.48818
4.45188
4.41443
4.37591
4.3364
4.29602
4.25483
4.21301
4.17071
4.12812
4.08524
4.0422
3.99911
3.95607
3.91317
3.8705
3.82816
3.78622
3.7448
3.70397
3.66382
3.6244
3.58587
3.54823
3.51158
3.47603
3.44172
3.40872
3.37719
3.34723
3.31906
3.29283
3.26875
3.24704
3.22789
3.21154
3.19816
3.18793
3.18098
3.17719
3.17724
3.17769
3.17897
3.18186
3.1877
3.19504
3.20242
3.20872
3.21431
3.2188
3.22344
3.22751
3.23631
7.20404
6.99645
6.77186
6.51915
6.25647
6.00019
5.7607
5.54409
5.35333
5.18903
5.05053
4.93583
4.84237
4.76645
4.70828
4.66281
4.62795
4.60188
4.58446
4.57315
4.57261
4.57432
4.58028
4.59353
4.61415
4.63291
4.65261
4.67123
4.68769
4.70174
4.71321
4.72095
4.72653
4.72803
4.72776
4.72667
4.72387
4.71783
4.70571
4.68985
4.67105
4.64932
4.62471
4.59744
4.56785
4.53631
4.50314
4.46859
4.43283
4.39599
4.35815
4.31939
4.27977
4.23941
4.19849
4.15711
4.11537
4.07336
4.03117
3.98894
3.94676
3.90475
3.863
3.82161
3.78067
3.74027
3.7005
3.66145
3.62323
3.58596
3.54958
3.51436
3.48036
3.44769
3.41649
3.38691
3.35912
3.3333
3.30965
3.28836
3.26965
3.2537
3.24068
3.23066
3.22379
3.21982
3.21919
3.21949
3.22045
3.22269