/*--------------------------------*- C++ -*----------------------------------*\
| =========                 |                                                 |
| \\      /  F ield         | OpenFOAM: The Open Source CFD Toolbox           |
|  \\    /   O peration     | Version:  2112                                  |
|   \\  /    A nd           | Website:  www.openfoam.com                      |
|    \\/     M anipulation  |                                                 |
\*---------------------------------------------------------------------------*/
FoamFile
{
    version     2.0;
    format      ascii;
    arch        "LSB;label=32;scalar=64";
    class       surfaceScalarField;
    location    "7.0005";
    object      phi;
}
// * * * * * * * * * * * * * * * * * * * * * * * * * * * * * * * * * * * * * //

dimensions      [1 0 -1 0 0 0 0];

oriented        oriented;

internalField   nonuniform List<scalar> 
13790
(
0.00290515
5.63353e-09
0.00290514
2.91214e-09
0.00290514
1.20206e-09
0.00290514
8.02861e-10
0.00290514
4.51268e-10
0.00290514
-5.89709e-11
0.00290514
1.1587e-09
0.00290514
9.31675e-10
0.00290507
5.54054e-09
0.00290504
1.73394e-08
0.00290454
7.17653e-08
0.00290499
1.54641e-07
0.00290442
4.91951e-07
0.00289577
9.59111e-07
0.00289221
1.38204e-06
0.00298276
-1.92631e-06
0.00285544
5.55461e-06
0.00283826
1.04516e-05
0.00253995
0.000166625
0.0024879
8.8513e-05
0.00243891
7.72076e-05
0.00238208
7.34944e-05
0.00232687
6.71571e-05
0.00227639
6.05383e-05
0.00221466
6.74849e-05
0.00214395
7.42993e-05
0.0020696
7.7423e-05
0.00199235
7.958e-05
0.00191142
8.21202e-05
0.00182658
8.50519e-05
0.00173726
8.82947e-05
0.00164303
9.15606e-05
0.00154531
9.42317e-05
0.00144724
9.56611e-05
0.00135153
9.53583e-05
0.00125918
9.29599e-05
0.00117103
8.83703e-05
0.00108848
8.21186e-05
0.0010123
7.53013e-05
0.000942345
6.92166e-05
0.000877519
6.49961e-05
0.000815161
6.34052e-05
0.000751851
6.47428e-05
0.000684914
6.89693e-05
0.000611702
7.60745e-05
0.000528933
8.61353e-05
0.000433343
9.93667e-05
0.000321178
0.000116208
0.000183597
0.000141713
0.000187271
0.00301309
6.46899e-09
0.00301309
4.76039e-09
0.00301309
3.44634e-09
0.00301309
2.68218e-09
0.00301309
2.13848e-09
0.00301309
1.3944e-09
0.00301308
2.61787e-09
0.00301308
2.72275e-09
0.00301301
1.09032e-08
0.00301299
2.80788e-08
0.00301257
1.05437e-07
0.00301297
2.72149e-07
0.00301332
5.92074e-07
0.00300384
1.97905e-06
0.00300219
2.00275e-06
0.00308961
1.05639e-06
0.00296333
1.22619e-05
0.00294257
2.42484e-05
0.00270708
0.000264419
0.00264167
0.000191662
0.0025744
0.000175745
0.00250428
0.000162224
0.0024373
0.000145722
0.00237398
0.000132695
0.00230178
0.000144012
0.00222294
0.000155848
0.00214139
0.00016141
0.00205712
0.000165619
0.00196929
0.000170639
0.00187794
0.00017622
0.00178298
0.000182025
0.00168447
0.000187334
0.00158421
0.000191068
0.00148538
0.000192233
0.00139024
0.000190226
0.00129902
0.000184619
0.00121189
0.000175476
0.00112955
0.00016408
0.00105184
0.000152518
0.000977835
0.000142903
0.000906195
0.000137058
0.000834479
0.000136226
0.000759935
0.000140685
0.000680838
0.000150124
0.000595313
0.000164559
0.000501119
0.000183831
0.000396369
0.000208042
0.000278431
0.000238302
0.000146788
0.000277493
0.000337714
0.00312505
6.80259e-09
0.00312504
6.07672e-09
0.00312504
5.25051e-09
0.00312504
4.52653e-09
0.00312504
3.82556e-09
0.00312504
2.89633e-09
0.00312504
4.07086e-09
0.00312503
6.57872e-09
0.00312497
2.48035e-08
0.00312491
6.40083e-08
0.0031247
2.07454e-07
0.00312432
4.4666e-07
0.00312107
1.19225e-06
0.00314331
1.52137e-06
0.00312044
3.86583e-06
0.00314812
-5.95802e-06
0.00311359
2.67891e-05
0.00304843
4.19654e-05
0.002819
0.000357555
0.0027413
0.000306867
0.00267007
0.000278537
0.00259897
0.000253597
0.00253007
0.000227045
0.00246075
0.000210483
0.00238224
0.000226159
0.0022997
0.000240928
0.00221487
0.000248493
0.00212697
0.000254903
0.00203566
0.000262401
0.00194097
0.000270631
0.00184266
0.000278794
0.00174127
0.000285715
0.001639
0.000290076
0.00153874
0.000290776
0.00144201
0.000287085
0.00134851
0.000278534
0.00125828
0.000265407
0.00117207
0.000249647
0.00108985
0.000234185
0.00101075
0.000221907
0.000933304
0.000215299
0.00085488
0.000216028
0.000772795
0.000224318
0.00068549
0.000239619
0.000591553
0.000261583
0.000489509
0.000289482
0.000378568
0.000322987
0.000259263
0.000361844
0.000131777
0.000409282
0.000473175
0.00324116
6.68461e-09
0.00324116
6.42007e-09
0.00324116
6.18911e-09
0.00324115
5.77236e-09
0.00324115
5.2549e-09
0.00324115
4.32753e-09
0.00324115
5.69045e-09
0.00324114
9.68518e-09
0.00324111
3.10312e-08
0.00324107
7.71126e-08
0.00324092
2.22165e-07
0.00323961
5.35962e-07
0.00324221
1.30606e-06
0.00321154
3.16647e-06
0.00324789
2.94745e-06
0.00308362
1.70364e-06
0.00321773
2.467e-05
0.00318324
5.02562e-05
0.00300409
0.000395328
0.00291238
0.00042705
0.00280341
0.000417822
0.00271849
0.000359344
0.00264144
0.000316883
0.0025638
0.00029552
0.00247709
0.000315905
0.00238852
0.000331758
0.00229817
0.000340768
0.00220508
0.00034901
0.00210915
0.000358434
0.0020106
0.000368596
0.00190938
0.000378386
0.00180606
0.000386229
0.00170262
0.00039062
0.00160156
0.000390416
0.00150386
0.000384913
0.00140885
0.000373763
0.00131632
0.000357625
0.0012265
0.000338999
0.00113901
0.000321261
0.00105317
0.000307736
0.000967966
0.000301412
0.000881181
0.000304254
0.000790754
0.000316334
0.000695769
0.00033695
0.000595038
0.000365546
0.000487524
0.000400769
0.000373186
0.000441543
0.000251597
0.000487877
0.000126409
0.000538774
0.000603229
0.00336158
6.52176e-09
0.00336158
6.3863e-09
0.00336158
6.78346e-09
0.00336158
6.60309e-09
0.00336158
6.27358e-09
0.00336158
5.49043e-09
0.00336158
7.18324e-09
0.00336157
9.86363e-09
0.00336153
2.86378e-08
0.0033615
6.79108e-08
0.00336143
2.16746e-07
0.00336196
4.65789e-07
0.0033584
1.36591e-06
0.00336735
4.75179e-06
0.00334988
2.15155e-06
0.00339721
-1.20585e-06
0.00334685
2.72801e-05
0.00329656
5.02013e-05
0.00320587
0.000373683
0.00307484
0.000565118
0.00292995
0.000587242
0.00284062
0.00046761
0.00275875
0.000409918
0.00267364
0.000386694
0.00258173
0.000410295
0.0024885
0.000426778
0.00239316
0.000437507
0.00229552
0.000447349
0.00219565
0.000458264
0.00209373
0.00046983
0.00198979
0.000480591
0.00188459
0.000488661
0.00178015
0.000492542
0.00167841
0.000491113
0.00157984
0.000483781
0.00148353
0.000470437
0.00138884
0.00045215
0.0012956
0.000431813
0.00120332
0.000413229
0.00111124
0.000400119
0.00101809
0.000395622
0.000922096
0.000401486
0.000822208
0.000417693
0.000718145
0.000443518
0.000609139
0.000477982
0.000494689
0.000519188
0.000374839
0.000565735
0.000251756
0.000615357
0.00012526
0.000669569
0.000732017
0.00348648
6.27072e-09
0.00348648
6.12885e-09
0.00348648
6.90641e-09
0.00348648
6.88554e-09
0.00348648
6.68937e-09
0.00348648
6.01513e-09
0.00348648
8.05228e-09
0.00348648
9.0295e-09
0.00348646
2.13917e-08
0.00348645
4.65355e-08
0.00348645
1.64302e-07
0.0034867
3.00425e-07
0.00348866
1.08161e-06
0.00348887
1.03831e-06
0.0034875
3.15264e-06
0.00350688
-6.57132e-07
0.00347821
2.18667e-05
0.0034463
4.48003e-05
0.00344079
0.000263729
0.00323645
0.000745901
0.00305457
0.000786818
0.00297348
0.000565979
0.00288449
0.000507359
0.00279188
0.000484575
0.00269557
0.000507872
0.00259707
0.000525909
0.00249641
0.000538782
0.00239451
0.00054964
0.00229129
0.000561367
0.00218678
0.000573562
0.00208127
0.000584476
0.00197528
0.000592181
0.00187045
0.000595029
0.00176881
0.000592133
0.00167
0.000583261
0.00157238
0.000568302
0.00147548
0.000548782
0.00137888
0.000528254
0.00128135
0.000510601
0.00118224
0.000499436
0.00108081
0.000498053
0.000975584
0.000508037
0.000865943
0.000528986
0.000752143
0.000559971
0.00063394
0.000599608
0.000511587
0.000645432
0.000385945
0.000695581
0.000256817
0.000748886
0.000127997
0.000802527
0.000863476
0.00361602
5.97941e-09
0.00361602
5.81538e-09
0.00361602
6.75792e-09
0.00361602
6.86744e-09
0.00361602
6.77722e-09
0.00361602
6.16588e-09
0.00361602
8.50281e-09
0.00361603
3.78205e-09
0.00361603
-5.00268e-09
0.00361604
-2.17534e-08
0.00361616
-4.50098e-08
0.00361695
-9.17679e-08
0.0036147
-7.07056e-08
0.00361988
-8.74237e-07
0.00362068
1.01322e-06
0.0036083
-2.1763e-06
0.00361117
1.98562e-05
0.00358962
5.08228e-05
0.0035635
0.000226623
0.00335389
0.000873842
0.00320861
0.000925112
0.00312384
0.000673472
0.00302433
0.0006159
0.00292318
0.00059049
0.00282231
0.000608203
0.00271672
0.000630441
0.00261056
0.000644678
0.00250477
0.000655572
0.00239887
0.000667223
0.00229263
0.00067913
0.00218612
0.000689298
0.00208023
0.000695869
0.00197621
0.000697426
0.00187502
0.000693158
0.00177606
0.000682985
0.00167749
0.000667285
0.00157816
0.000648026
0.00147735
0.000628831
0.00137414
0.000613701
0.00126779
0.000606379
0.00115723
0.000609843
0.00104139
0.000624943
0.000920752
0.000650886
0.000796342
0.000686805
0.000668163
0.000731038
0.000536616
0.000780746
0.000402637
0.000833677
0.000268526
0.000887157
0.00013269
0.000942384
0.000999386
0.00375038
5.63848e-09
0.00375038
5.46951e-09
0.00375038
6.43618e-09
0.00375038
6.578e-09
0.00375038
6.5085e-09
0.00375038
5.83915e-09
0.00375038
9.14007e-09
0.00375038
8.38037e-10
0.00375038
-1.86163e-08
0.00375041
-6.58942e-08
0.00375038
-1.21225e-07
0.00375051
-3.8187e-07
0.00374753
-2.04642e-07
0.00375464
-1.59787e-06
0.00374587
1.39388e-06
0.00376261
-4.28922e-06
0.00374087
2.41943e-05
0.00372685
4.69896e-05
0.00365695
0.000236188
0.00345304
0.000990455
0.00339946
0.000955313
0.00328613
0.000812301
0.00317552
0.000733157
0.00306448
0.000704816
0.00295823
0.000712083
0.00284656
0.000739873
0.00273682
0.000753396
0.00262825
0.000763763
0.00252054
0.000774604
0.00241391
0.000785312
0.00230822
0.000794005
0.00220358
0.00079893
0.00210098
0.000798875
0.00200098
0.00079353
0.00190192
0.000783015
0.00180174
0.000767757
0.00169953
0.000750218
0.00159405
0.000734358
0.00148395
0.000723833
0.00136894
0.000722018
0.00124831
0.000731666
0.00112115
0.000753022
0.000988527
0.000784668
0.000852265
0.000825543
0.000712834
0.000873851
0.000571031
0.000926467
0.000427763
0.000981206
0.000283075
0.00103636
0.000141111
0.00108838
0.00114365
0.00388972
5.22488e-09
0.00388972
5.17483e-09
0.00388972
5.96364e-09
0.00388972
6.42006e-09
0.00388972
6.47485e-09
0.00388972
6.04459e-09
0.00388972
8.46598e-09
0.00388972
3.5634e-09
0.00388975
-1.0111e-08
0.00388959
-2.94767e-08
0.00389035
-1.16659e-07
0.00388829
-2.14204e-07
0.00389411
-5.70026e-07
0.00384532
-1.35639e-06
0.00390651
1.06533e-06
0.00373831
3.45437e-06
0.003871
2.09009e-05
0.00387332
5.27025e-05
0.00379594
0.000259235
0.00358401
0.00110388
0.00349616
0.00103886
0.00340558
0.000903923
0.00330517
0.000833936
0.00319097
0.000819276
0.00308107
0.000819006
0.0029754
0.000842011
0.00286873
0.000857904
0.00276324
0.000868968
0.00265914
0.000879352
0.00255534
0.000888794
0.002452
0.000895734
0.00234996
0.000899243
0.0022499
0.00089847
0.00215168
0.000893081
0.00205285
0.000883487
0.00195049
0.000870512
0.00184373
0.000856759
0.00173186
0.000846288
0.00161351
0.000842558
0.0014882
0.000848264
0.00135567
0.000865408
0.00121561
0.000893718
0.00106962
0.000931458
0.000920003
0.000977423
0.000767479
0.00102966
0.000613123
0.00108471
0.000458467
0.00114012
0.000304676
0.00119426
0.000150011
0.00124695
0.00129638
0.00403424
4.77692e-09
0.00403424
4.87543e-09
0.00403424
5.43922e-09
0.00403425
6.27085e-09
0.00403425
6.31943e-09
0.00403425
6.05916e-09
0.00403425
8.09632e-09
0.00403424
6.90197e-09
0.00403423
6.28627e-09
0.0040343
8.07768e-09
0.00403419
7.44351e-09
0.00403272
1.39461e-07
0.00403676
-1.75599e-07
0.00403336
-9.40582e-07
0.0040313
1.92019e-06
0.00404241
-5.23791e-08
0.00402946
2.67893e-05
0.00401742
5.9287e-05
0.00393397
0.000284386
0.00371379
0.00121724
0.00360346
0.00114358
0.00352007
0.000988511
0.00342933
0.000924016
0.00332701
0.000919976
0.00322125
0.000923167
0.00311976
0.000940955
0.00301979
0.000956411
0.00292096
0.000967818
0.00282225
0.000977753
0.0027233
0.000986252
0.00262541
0.000992562
0.00252926
0.000996168
0.00243352
0.00099627
0.00233628
0.000992615
0.00223535
0.000985832
0.00212877
0.000977299
0.00201554
0.000969913
0.00189474
0.000967287
0.00176531
0.000972377
0.00162707
0.000987406
0.00147992
0.00101342
0.00132457
0.00104913
0.00116363
0.00109279
0.00099948
0.00114358
0.000832845
0.0011992
0.000664684
0.00125645
0.0004959
0.00131296
0.000328084
0.00136611
0.000163854
0.00141451
0.00146274
0.00418414
4.35278e-09
0.00418414
4.49371e-09
0.00418414
4.96629e-09
0.00418414
5.76947e-09
0.00418414
6.11305e-09
0.00418414
6.18503e-09
0.00418414
7.61991e-09
0.00418414
7.61406e-09
0.00418413
1.54763e-08
0.00418412
3.18787e-08
0.00418406
1.12721e-07
0.00418382
2.94896e-07
0.00418136
6.33732e-07
0.00420437
5.81204e-07
0.00417747
3.88097e-06
0.00420218
1.67318e-06
0.00418037
3.071e-05
0.00415583
6.61985e-05
0.00407442
0.000305908
0.0038462
0.00134089
0.00373212
0.0012574
0.00365873
0.00106474
0.00358031
0.00100288
0.0034914
0.00100713
0.0033961
0.0010173
0.00330167
0.00103362
0.00321015
0.00104717
0.0031204
0.00105834
0.00303038
0.00106853
0.00293973
0.00107757
0.00284894
0.00108517
0.00275683
0.00109086
0.00266201
0.00109367
0.00256291
0.00109402
0.00245662
0.00109306
0.00234126
0.00109197
0.00221677
0.00109354
0.00208266
0.0011011
0.00193873
0.00111662
0.00178522
0.00114198
0.00162175
0.00117767
0.00144902
0.0012213
0.00127067
0.00127066
0.00108993
0.00132557
0.000907295
0.00138418
0.000723991
0.00144271
0.00054111
0.00149923
0.000358751
0.0015524
0.000176488
0.00160026
0.00164106
0.0043396
3.94085e-09
0.0043396
4.06759e-09
0.0043396
4.49688e-09
0.0043396
5.11115e-09
0.0043396
5.9112e-09
0.0043396
6.56726e-09
0.0043396
6.35631e-09
0.00433961
5.52282e-09
0.00433962
1.06898e-08
0.00433972
2.37012e-08
0.00433971
6.88931e-08
0.00433987
1.18355e-07
0.00434188
3.89067e-07
0.00433748
3.4062e-07
0.00433598
3.86598e-06
0.00437971
3.95767e-06
0.00430029
3.22456e-05
0.00432032
6.98763e-05
0.00424702
0.00033255
0.00399896
0.00145919
0.00389612
0.00136879
0.00384123
0.00112908
0.00377962
0.00106703
0.00370557
0.0010803
0.00362608
0.0010969
0.00354646
0.00111439
0.00346873
0.00112791
0.00339006
0.00114013
0.00330787
0.00115256
0.003222
0.00116471
0.00313332
0.0011761
0.00304019
0.00118676
0.00293978
0.00119572
0.0028315
0.00120326
0.00271364
0.00121092
0.00258432
0.00121975
0.00244406
0.00123224
0.00229282
0.00125151
0.00213025
0.00127866
0.00195816
0.0013144
0.00177666
0.00135935
0.00158611
0.00141061
0.00139009
0.0014655
0.00119219
0.00152413
0.000992804
0.00158546
0.000792275
0.00164593
0.00059198
0.00170257
0.000392618
0.00175413
0.000196139
0.00179901
0.00183873
0.00450084
3.51406e-09
0.00450084
3.64824e-09
0.00450084
3.96113e-09
0.00450084
4.53883e-09
0.00450084
5.65872e-09
0.00450084
6.74209e-09
0.00450084
4.48736e-09
0.00450085
9.7035e-11
0.00450087
-3.59873e-09
0.00450092
-9.79776e-09
0.00450093
-9.44942e-10
0.00450007
-2.12313e-08
0.00450288
1.04397e-07
0.00447491
-4.2744e-07
0.00451206
2.86071e-06
0.00438185
2.70835e-06
0.00449595
3.26829e-05
0.00448458
8.13088e-05
0.00441234
0.00034371
0.00420298
0.00153403
0.00413323
0.00146141
0.00410622
0.00117467
0.00406367
0.00111735
0.00400826
0.0011392
0.0039479
0.00116083
0.00388342
0.00118141
0.00381355
0.00119975
0.00373794
0.00121786
0.00365515
0.00123659
0.00356433
0.00125544
0.00346692
0.00127402
0.00336246
0.00129244
0.00324886
0.00131006
0.00312433
0.00132724
0.0029875
0.00134528
0.00283813
0.0013652
0.00267821
0.00138898
0.0025087
0.0014197
0.0023291
0.00145825
0.00213967
0.00150451
0.00194116
0.00155801
0.00173355
0.00161646
0.00152022
0.00167666
0.00130511
0.00173922
0.00108845
0.00180364
0.000870497
0.00186606
0.00065122
0.00192481
0.000433233
0.00197577
0.000214052
0.00201982
0.00205288
0.00466807
3.0836e-09
0.00466807
3.20688e-09
0.00466807
3.4137e-09
0.00466807
4.18025e-09
0.00466807
5.03327e-09
0.00466807
4.96639e-09
0.00466807
6.48841e-10
0.00466808
-7.65697e-09
0.00466809
-1.75174e-08
0.00466815
-5.30822e-08
0.00466822
-8.74623e-08
0.00466792
-3.07454e-07
0.00466951
-3.13659e-07
0.00465473
-1.00098e-06
0.00467777
7.0606e-07
0.00456748
3.42616e-06
0.0046596
3.4548e-05
0.00467851
6.37948e-05
0.0045926
0.000368116
0.00451685
0.00148068
0.00453126
0.00149234
0.00452333
0.00121761
0.00447574
0.00117563
0.00441645
0.00120018
0.0043549
0.0012225
0.00428321
0.00125257
0.00420091
0.00128278
0.00410891
0.00131072
0.00400843
0.00133692
0.00390096
0.00136279
0.00378701
0.00138883
0.00366548
0.00141506
0.00353397
0.00144095
0.00339265
0.0014671
0.00324028
0.00149553
0.00307546
0.00152665
0.00290019
0.00156186
0.00271625
0.00160336
0.00252313
0.00165209
0.00232105
0.00170775
0.00210934
0.00176964
0.00188837
0.0018343
0.00166111
0.00190028
0.00143083
0.00196859
0.00119745
0.00203804
0.00096127
0.00210434
0.00072297
0.00216489
0.000479994
0.00222022
0.000240535
0.00226116
0.0022936
0.00484151
2.71259e-09
0.00484151
2.58849e-09
0.00484151
3.04489e-09
0.00484151
3.44087e-09
0.00484151
3.89154e-09
0.00484151
1.32456e-09
0.00484152
-1.91157e-09
0.00484154
-1.8988e-08
0.00484155
-2.63993e-08
0.00484159
-1.14742e-07
0.00484157
-1.41992e-07
0.00484271
-5.91592e-07
0.00483903
-7.17175e-07
0.00485935
-3.27466e-06
0.00483572
3.12948e-06
0.00485643
-7.94239e-07
0.00484464
3.75704e-05
0.00482967
5.32539e-05
0.00488128
0.000274159
0.00506627
0.0011235
0.0051774
0.00141797
0.00506355
0.00135547
0.00493039
0.00131674
0.00482581
0.00130738
0.00472849
0.00132037
0.00462613
0.00135433
0.00451667
0.00139235
0.00440253
0.00142556
0.00428404
0.00145571
0.00416144
0.00148553
0.00403457
0.00151683
0.00390069
0.00154921
0.00375847
0.00158193
0.00360741
0.00161648
0.00344708
0.00165382
0.00327656
0.00169492
0.00309576
0.0017412
0.00290543
0.00179379
0.00270642
0.00185234
0.00249813
0.00191768
0.002279
0.00198855
0.00204926
0.00206072
0.00181263
0.00213283
0.00157095
0.00220803
0.00132285
0.00228557
0.00106684
0.00236088
0.000805547
0.00242793
0.000542913
0.00248411
0.000268882
0.00253557
0.00256186
0.00502139
2.20742e-09
0.00502139
2.14696e-09
0.00502139
2.50737e-09
0.0050214
2.64385e-09
0.0050214
2.69667e-09
0.0050214
2.23548e-09
0.00502139
3.61544e-09
0.00502136
1.11581e-08
0.00502129
3.42808e-08
0.00502114
9.27666e-08
0.00502054
2.39962e-07
0.00502188
5.51226e-07
0.00501705
1.23364e-06
0.00504977
1.82435e-06
0.00502159
1.03132e-05
0.00503465
-1.42771e-05
0.00498652
7.6902e-05
0.0050534
-7.35287e-05
0.00508502
0.000219793
0.00555835
0.000436477
0.00563194
0.00135286
0.00536839
0.00162557
0.00519244
0.00149427
0.00506683
0.00143264
0.0049493
0.0014358
0.00482878
0.00147178
0.00470469
0.00151447
0.00457986
0.00154979
0.00445457
0.00158071
0.00432767
0.00161263
0.00419771
0.00164731
0.00406157
0.00168474
0.00391798
0.00172381
0.00376719
0.00176578
0.00360716
0.00181167
0.00343876
0.00186094
0.00326342
0.00191638
0.00307829
0.0019797
0.00288241
0.00204899
0.00267703
0.00212412
0.00245889
0.00220575
0.00222576
0.00228936
0.00198194
0.00237122
0.00173204
0.00245491
0.00147282
0.00254312
0.00120268
0.0026301
0.000917293
0.00271423
0.000616388
0.00278748
0.000313874
0.00283781
0.00287395
0.00520796
1.68063e-09
0.00520796
1.66575e-09
0.00520796
1.95717e-09
0.00520797
1.88689e-09
0.00520797
1.67623e-09
0.00520797
1.24159e-09
0.00520797
2.53158e-09
0.00520797
7.89431e-09
0.00520798
2.20622e-08
0.00520802
6.43271e-08
0.00520798
1.53124e-07
0.00520924
3.59036e-07
0.00520453
7.80984e-07
0.00522142
1.79096e-06
0.00515385
3.65244e-06
0.00522192
-9.58914e-08
0.00504551
1.38785e-05
0.00518309
5.67784e-06
0.00530826
8.02774e-05
0.00522541
0.000418871
0.00510919
0.00143016
0.00502179
0.00171654
0.00501255
0.00151422
0.00495538
0.00149524
0.00489005
0.00150549
0.00480529
0.0015541
0.00471133
0.00160597
0.004614
0.00164714
0.00451109
0.00168445
0.00440167
0.00172261
0.00428655
0.00176375
0.00416399
0.00180807
0.00403234
0.00185512
0.00389218
0.00190549
0.00374197
0.00196032
0.0035813
0.00201898
0.00341402
0.00208296
0.00324025
0.0021551
0.00305553
0.00223479
0.00285913
0.00232019
0.0026507
0.00241232
0.00242545
0.00250866
0.00218322
0.00260576
0.00192908
0.00270541
0.00166011
0.00281178
0.00137237
0.0029174
0.00106718
0.00301869
0.000735757
0.00311891
0.000370681
0.00320293
0.00324253
0.00540147
1.11486e-09
0.00540147
1.17523e-09
0.00540147
1.26489e-09
0.00540147
1.46221e-09
0.00540147
1.03624e-09
0.00540147
8.43135e-10
0.00540147
2.23855e-09
0.00540147
7.94078e-09
0.00540146
2.08108e-08
0.00540148
5.29293e-08
0.00540133
1.3087e-07
0.00540261
1.39237e-07
0.00539851
2.98031e-07
0.00541549
-2.71571e-07
0.00534774
-1.45347e-06
0.00542615
3.73782e-07
0.00521395
3.63441e-06
0.00538296
3.54783e-05
0.0053701
8.7563e-05
0.00528695
0.000420089
0.00503502
0.00160831
0.00503512
0.00169103
0.00496792
0.00160534
0.00490848
0.00156723
0.00483391
0.00158653
0.00476589
0.001621
0.00469051
0.00167779
0.00461207
0.00172534
0.00452855
0.00176925
0.00443833
0.00181458
0.00434049
0.0018627
0.00423534
0.0019138
0.00412231
0.00196869
0.00400062
0.00202754
0.00386927
0.00209093
0.00372751
0.00215927
0.00357631
0.00223344
0.0034165
0.0023149
0.00324687
0.00240399
0.00306548
0.00250127
0.00286998
0.00260446
0.00265873
0.00271194
0.00243084
0.00282524
0.00218441
0.00294711
0.00191564
0.00307775
0.00161918
0.0032137
0.00128467
0.00335493
0.000910918
0.003493
0.00048695
0.00362533
0.00372668
0.00560216
5.69992e-10
0.00560216
6.80226e-10
0.00560216
7.22187e-10
0.00560216
9.02131e-10
0.00560216
9.28054e-10
0.00560216
1.8689e-09
0.00560216
4.23301e-09
0.00560215
1.25907e-08
0.00560214
2.98018e-08
0.00560212
6.0252e-08
0.0056021
1.41793e-07
0.00560219
2.34549e-09
0.00560406
1.77739e-08
0.00560411
-1.82832e-06
0.00564539
-9.48725e-06
0.00560853
4.05052e-06
0.00564949
9.229e-08
0.00560361
5.61898e-05
0.00556855
9.05244e-05
0.00550928
0.000421662
0.00531668
0.00171063
0.00522707
0.00177727
0.00514525
0.00169704
0.00505447
0.00166336
0.00496162
0.00167984
0.00486918
0.00171313
0.00478296
0.00176222
0.00469446
0.00181192
0.004605
0.00185834
0.00451501
0.00190576
0.00442255
0.00195657
0.00432619
0.00201113
0.00422533
0.0020705
0.00411835
0.0021353
0.0040039
0.00220494
0.00388212
0.00228014
0.00375272
0.00236264
0.0036151
0.00245289
0.00346898
0.00254951
0.00331323
0.00265578
0.00314096
0.00277414
0.0029472
0.00289983
0.00273512
0.00302807
0.00250808
0.00316899
0.00225653
0.00332464
0.00197213
0.00349483
0.00164128
0.00368562
0.00123099
0.00390379
0.000707984
0.00414734
0.00443154
0.00581031
9.3898e-11
0.00581031
2.06552e-10
0.00581031
2.90801e-10
0.00581031
5.05508e-10
0.00581031
7.44236e-10
0.00581031
1.94589e-09
0.00581031
2.92594e-09
0.00581031
1.00274e-08
0.00581033
1.30647e-08
0.00581033
6.35217e-08
0.00581067
2.31289e-08
0.00580989
4.91146e-07
0.00580997
3.63412e-07
0.00580574
2.27246e-06
0.00576811
5.17774e-06
0.00576939
1.70405e-05
0.00585822
-6.77219e-06
0.00571497
0.000126164
0.00576007
2.12937e-05
0.00563614
0.000502447
0.00557646
0.00165732
0.00548523
0.0018679
0.00538922
0.00179809
0.00529375
0.00175699
0.00519093
0.00177912
0.00508829
0.00181215
0.00498901
0.00185819
0.0048914
0.00190725
0.00479364
0.00195443
0.00469575
0.00200265
0.00459717
0.00205431
0.00449803
0.00210985
0.00439888
0.00217013
0.00429818
0.00223621
0.00419371
0.00230885
0.00408659
0.00238678
0.00397761
0.00247166
0.00386403
0.00256631
0.0037397
0.00267256
0.00360624
0.00278728
0.00346544
0.00291203
0.00331162
0.00304824
0.00313789
0.0031933
0.00294846
0.00335292
0.00273719
0.00353171
0.00249485
0.00373462
0.00220525
0.00397607
0.00183047
0.00427952
0.00131001
0.00466671
0.00573741
0.00840003
7.48274e-12
0.00840003
3.27359e-11
0.00840003
7.70956e-11
0.00840003
1.42155e-10
0.00840003
3.09614e-10
0.00840003
5.94583e-10
0.00840004
1.53649e-09
0.00840005
2.7045e-09
0.00840005
8.63091e-09
0.00840018
1.77459e-08
0.00839999
5.1857e-08
0.00839981
1.96803e-07
0.00840131
3.49803e-07
0.0083959
1.29254e-06
0.00841558
2.84562e-06
0.00843088
5.76881e-06
0.0084127
9.92675e-06
0.00851785
3.07972e-05
0.00842604
9.85323e-05
0.0085726
0.000293536
0.00839683
0.00166124
0.00813743
0.00212125
0.00789079
0.00204669
0.00768706
0.00196409
0.00751346
0.00194863
0.00735654
0.00196392
0.00720872
0.00200053
0.00706688
0.00204536
0.00692842
0.00208931
0.00679227
0.002134
0.00665856
0.00218314
0.00652644
0.0022374
0.00639692
0.00229661
0.00627218
0.00236086
0.00615198
0.00242888
0.00603355
0.00250527
0.00591266
0.00259295
0.00579119
0.00268851
0.00567069
0.00279135
0.00555093
0.00290377
0.00543154
0.00302712
0.00531184
0.00316069
0.00519196
0.00330312
0.0050779
0.00345728
0.00498033
0.00362042
0.00491458
0.00379548
0.00492068
0.00396775
0.00508469
0.0041188
0.0055732
0.00418043
0.0038365
0.00747229
0.00840003
1.51261e-12
0.00840003
7.03151e-12
0.00840003
1.98767e-11
0.00840003
4.94717e-11
0.00840003
9.67977e-11
0.00840003
2.10363e-10
0.00840003
4.74477e-10
0.00840004
9.50573e-10
0.00840003
2.6896e-09
0.0084001
4.87369e-09
0.00840007
1.88492e-08
0.00840021
3.90503e-08
0.00840036
1.08743e-07
0.00840125
2.97297e-07
0.00840055
6.32568e-07
0.00846314
7.11233e-07
0.00839736
7.49586e-06
0.0086039
1.11288e-05
0.00843618
0.000111407
0.00831177
0.000279439
0.00829614
0.00155349
0.0080586
0.00236479
0.0078144
0.00229805
0.00767333
0.00211565
0.00753897
0.00208939
0.00742283
0.00208628
0.00730417
0.00212374
0.00718908
0.00216298
0.0070778
0.00220226
0.0069713
0.00224353
0.00686837
0.00228952
0.00676776
0.00234151
0.00667125
0.00239621
0.00657566
0.00245523
0.00647992
0.00252314
0.0063871
0.00259745
0.00630533
0.00267542
0.00623426
0.00276128
0.00617127
0.00285485
0.00611854
0.00295749
0.00607737
0.00306756
0.00604818
0.00318532
0.00604079
0.00330379
0.00606585
0.00342368
0.00614
0.00353785
0.00629423
0.00363422
0.00655075
0.00370772
0.00696089
0.00370721
0.00748802
0.00365613
0.00326022
0.00806667
0.00840003
4.67849e-13
0.00840003
2.60963e-12
0.00840003
8.81502e-12
0.00840003
2.01864e-11
0.00840003
5.79443e-11
0.00840003
1.04783e-10
0.00840003
2.99338e-10
0.00840002
6.71726e-10
0.00840005
1.4871e-09
0.00839997
3.12404e-09
0.00840002
1.38058e-08
0.00840012
2.25034e-08
0.00840027
1.39185e-07
0.00840256
2.74235e-07
0.00840261
8.85869e-07
0.00840311
1.3626e-06
0.00839382
6.89346e-06
0.00857688
1.06535e-05
0.00836444
8.0776e-05
0.00846644
0.00018712
0.00886296
0.000947794
0.00841475
0.00281754
0.00811863
0.00260575
0.00789652
0.00235161
0.00773524
0.0022613
0.00758927
0.00224196
0.00747306
0.00224958
0.00736653
0.00228104
0.00726886
0.0023116
0.00717801
0.00234292
0.00709662
0.00237894
0.00702565
0.00241927
0.00695948
0.00246759
0.00689442
0.00252473
0.00683446
0.00258517
0.00678377
0.00264845
0.00674238
0.00271632
0.00671343
0.00278912
0.00670138
0.00286597
0.00670987
0.00294892
0.00674326
0.00303686
0.00680169
0.00312645
0.00688487
0.00321783
0.00700657
0.0032963
0.00716883
0.00336888
0.00739104
0.00340567
0.00766924
0.00342538
0.00799878
0.00337535
0.00837559
0.00327931
0.00303126
0.00860704
0.00840003
2.95064e-13
0.00840003
1.20481e-12
0.00840003
5.65959e-12
0.00840003
1.03666e-11
0.00840003
4.45633e-11
0.00840003
7.36678e-11
0.00840003
2.8696e-10
0.00840003
4.43358e-10
0.00840003
1.76125e-09
0.00840009
1.32303e-09
0.00840004
1.81627e-08
0.00839983
2.39331e-08
0.00840067
1.8298e-07
0.00839687
4.50235e-07
0.00841291
1.13272e-06
0.00832623
1.98403e-06
0.00841674
8.04865e-06
0.0081339
1.22205e-05
0.00839761
7.64715e-05
0.00841235
0.000157162
0.00849977
0.000767169
0.00844152
0.00276157
0.00829214
0.00275385
0.00806694
0.00258595
0.00793678
0.00239696
0.00779901
0.00238525
0.0076898
0.00236438
0.00759582
0.00238095
0.00751403
0.00239987
0.00744154
0.00242078
0.00737906
0.00244469
0.00732459
0.00247684
0.00727628
0.00251875
0.00723981
0.00256476
0.00721288
0.00261545
0.00719392
0.00266912
0.00718604
0.00272526
0.00719168
0.0027834
0.0072143
0.00284259
0.00726123
0.00290153
0.00733619
0.00296338
0.0074454
0.00301991
0.00758516
0.00307978
0.00775922
0.00312139
0.00796171
0.00316193
0.00819682
0.00316501
0.00845523
0.00316016
0.00872497
0.00309952
0.00901173
0.00298787
0.00286045
0.00917948
0.00840003
6.56426e-13
0.00840003
6.2262e-13
0.00840003
9.72875e-12
0.00840003
8.37633e-12
0.00840003
7.45894e-11
0.00840003
3.0747e-11
0.00840003
3.91343e-10
0.00840003
1.37776e-10
0.00840003
1.12725e-09
0.00840003
-1.10179e-09
0.00840001
2.0234e-08
0.00840002
-6.2773e-09
0.00840003
2.3278e-07
0.00839989
2.1989e-07
0.00840126
8.66679e-07
0.00837006
4.94805e-07
0.00841078
1.23508e-05
0.00819131
2.96969e-06
0.00837494
0.000106882
0.00844482
6.91885e-05
0.00851245
0.000600712
0.00885957
0.00220346
0.00874025
0.00287955
0.00852962
0.00280776
0.00833878
0.00259777
0.00820842
0.0025209
0.00808318
0.00249492
0.00798565
0.00248259
0.00790309
0.00248861
0.00783379
0.00249746
0.00777742
0.00251009
0.00773394
0.0025296
0.00770245
0.00255869
0.00768082
0.00259314
0.00766935
0.00263145
0.00766875
0.00267309
0.00768089
0.00271604
0.00770817
0.00275908
0.00774991
0.00280263
0.00781103
0.00284162
0.00789595
0.00287976
0.0080088
0.0029089
0.0081533
0.00293818
0.00832695
0.00294968
0.00852744
0.00296099
0.00874855
0.00294204
0.00898685
0.0029189
0.00924585
0.00283537
0.00945223
0.00277684
0.00265491
0.00965327
0.00840003
2.32207e-13
0.00840003
2.65144e-13
0.00840003
2.71229e-12
0.00840003
2.47874e-12
0.00840003
1.81182e-11
0.00840003
4.43107e-11
0.00840003
1.1977e-10
0.00840003
5.92589e-10
0.00840002
1.21907e-09
0.00840006
3.4173e-09
0.0084
1.02729e-08
0.00840005
1.66649e-08
0.00840033
6.12032e-08
0.00840041
1.66454e-07
0.00840038
3.46826e-07
0.00839636
8.48426e-07
0.00845655
3.03728e-06
0.00839123
8.51456e-06
0.0086773
2.35842e-05
0.00844998
0.000125211
0.008592
0.000290473
0.00900511
0.00155869
0.00877511
0.00313256
0.00870426
0.00291982
0.00860451
0.00273877
0.0085167
0.00262708
0.0084467
0.00257514
0.00837381
0.00256054
0.00830611
0.0025616
0.00824694
0.00256252
0.00819633
0.00256811
0.00815643
0.00257784
0.00813241
0.00259197
0.00812145
0.00261183
0.00812306
0.00263674
0.00813857
0.00266328
0.00816592
0.00269285
0.00820981
0.0027194
0.00826845
0.0027484
0.00834364
0.00276997
0.0084344
0.00279185
0.0085442
0.00280181
0.00867511
0.00281008
0.00882528
0.00280256
0.00899899
0.00279066
0.00918508
0.00275852
0.00939588
0.00270973
0.00958413
0.00264571
0.00978253
0.00257618