/*--------------------------------*- C++ -*----------------------------------*\
| =========                 |                                                 |
| \\      /  F ield         | OpenFOAM: The Open Source CFD Toolbox           |
|  \\    /   O peration     | Version:  2112                                  |
|   \\  /    A nd           | Website:  www.openfoam.com                      |
|    \\/     M anipulation  |                                                 |
\*---------------------------------------------------------------------------*/
FoamFile
{
    version     2.0;
    format      ascii;
    arch        "LSB;label=32;scalar=64";
    class       volScalarField;
    location    "7.0005";
    object      T;
}
// * * * * * * * * * * * * * * * * * * * * * * * * * * * * * * * * * * * * * //

dimensions      [0 0 0 1 0 0 0];

internalField   nonuniform List<scalar> 
7000
(
1
1
1
1
1
1.00001
1.00001
1.00004
1.00005
1.00053
1.0009
1.00356
1.00646
1.0141
1.06291
1.12708
1.51123
2.18229
2.6576
2.73394
2.71434
2.6885
2.68467
2.68743
2.69315
2.69995
2.70541
2.71036
2.7159
2.72205
2.72847
2.73659
2.74683
2.7569
2.76309
2.76559
2.76853
2.77382
2.78154
2.79121
2.80039
2.80677
2.81225
2.8177
2.82019
2.81974
2.81705
2.81206
2.80343
2.79545
1
1
1
1
1
1.00001
1.00001
1.00004
1.00005
1.00051
1.00086
1.00336
1.00617
1.0124
1.06107
1.12341
1.49294
2.15296
2.64026
2.73151
2.71193
2.68385
2.68192
2.68627
2.69417
2.70237
2.70876
2.71454
2.72062
2.72725
2.7338
2.74178
2.75165
2.76116
2.76681
2.76926
2.77275
2.77821
2.78493
2.79305
2.80109
2.80714
2.81298
2.8189
2.82144
2.82076
2.81756
2.81152
2.80239
2.79304
1
1
1
1
1
1
1.00001
1.00004
1.00005
1.00049
1.0008
1.00319
1.00592
1.01286
1.05576
1.12149
1.47312
2.1365
2.62375
2.72854
2.7104
2.68217
2.68002
2.68501
2.69396
2.70247
2.70903
2.71525
2.72183
2.72837
2.73511
2.7436
2.75348
2.76213
2.76685
2.76924
2.77343
2.77972
2.78693
2.79476
2.80171
2.80673
2.81218
2.81781
2.82018
2.81962
2.81678
2.81185
2.80196
2.79367
1
1
1
1
1
1
1.00001
1.00004
1.00004
1.00044
1.00071
1.00287
1.00524
1.01247
1.05331
1.1234
1.44821
2.10271
2.59683
2.72444
2.70791
2.6793
2.67853
2.68475
2.6943
2.70308
2.71003
2.71656
2.72332
2.73002
2.7367
2.74474
2.75388
2.76187
2.76645
2.76942
2.77404
2.7801
2.78699
2.79483
2.80177
2.80684
2.81241
2.81778
2.81944
2.8182
2.8145
2.80755
2.79901
2.79104
1
1
1
1
1
1
1
1.00003
1.00004
1.00038
1.00062
1.0024
1.0052
1.01056
1.05094
1.11563
1.4242
2.07303
2.55765
2.72064
2.70528
2.67802
2.67786
2.68538
2.69434
2.7033
2.71076
2.71756
2.72424
2.73076
2.73731
2.74522
2.75389
2.76106
2.76538
2.76864
2.77317
2.77916
2.78623
2.79367
2.7998
2.8053
2.81195
2.81735
2.8186
2.81708
2.81291
2.80737
2.79705
2.79132
1
1
1
1
1
1
1
1.00003
1.00003
1.00032
1.00056
1.00197
1.00414
1.00629
1.04784
1.11449
1.39497
2.04137
2.50582
2.71737
2.70189
2.67939
2.67897
2.68625
2.69385
2.7035
2.71154
2.71842
2.72491
2.73124
2.73774
2.74496
2.75315
2.76015
2.76374
2.76706
2.77249
2.77836
2.78467
2.7922
2.79884
2.80454
2.81088
2.81544
2.8161
2.81442
2.81027
2.80314
2.79556
2.78863
1
1
1
1
1
1
1
1.00002
1.00003
1.00027
1.00049
1.00153
1.00432
1.00622
1.04383
1.11429
1.37096
2.0056
2.45643
2.71437
2.69682
2.68438
2.68024
2.6868
2.6935
2.70422
2.71263
2.71924
2.72536
2.73117
2.73749
2.74471
2.75196
2.75793
2.76176
2.76544
2.7705
2.77657
2.78346
2.79048
2.79615
2.80223
2.80995
2.81527
2.81597
2.81403
2.80981
2.804
2.79282
2.78924
1
1
1
1
1
1
1
1.00003
1.00003
1.00028
1.00052
1.00159
1.0044
1.00582
1.04445
1.10736
1.34954
1.95676
2.41849
2.70922
2.69515
2.68848
2.68076
2.68682
2.69376
2.70481
2.71312
2.71951
2.72557
2.73142
2.7371
2.74327
2.74996
2.75519
2.75853
2.76291
2.76865
2.77434
2.78086
2.78809
2.79392
2.80011
2.80813
2.81379
2.8146
2.81236
2.80721
2.79947
2.79279
2.78565
1
1
1
1
1
1
1
1.00003
1.00005
1.00032
1.00057
1.0016
1.00448
1.00536
1.04037
1.10671
1.32611
1.88916
2.38624
2.70268
2.69906
2.69133
2.68473
2.68895
2.6966
2.70576
2.71397
2.72003
2.72449
2.72909
2.73511
2.74157
2.74774
2.75232
2.75505
2.75912
2.76549
2.7719
2.77825
2.78486
2.79074
2.79734
2.8055
2.81118
2.81207
2.81014
2.80574
2.79802
2.78704
2.78643
1
1
1
1
1
1
1
1.00003
1.00006
1.00034
1.00062
1.00185
1.00412
1.00416
1.03828
1.09638
1.30769
1.82311
2.34403
2.69654
2.70506
2.69803
2.69042
2.69286
2.70047
2.70734
2.71436
2.71889
2.72298
2.72855
2.73501
2.74007
2.7435
2.74657
2.75016
2.7554
2.76178
2.76811
2.77444
2.78076
2.78668
2.7945
2.80368
2.80906
2.8094
2.80654
2.80112
2.79466
2.78781
2.78083
1
1
1
1
1
1
1
1.00003
1.00006
1.00035
1.00055
1.00191
1.00432
1.00503
1.03721
1.08733
1.28491
1.74244
2.31132
2.68712
2.71195
2.70508
2.69432
2.69493
2.70123
2.70732
2.71382
2.71769
2.72107
2.72569
2.73002
2.73325
2.7368
2.74003
2.74371
2.74996
2.75755
2.76449
2.77147
2.77725
2.78205
2.78949
2.79967
2.80632
2.80721
2.80489
2.79915
2.79016
2.78037
2.78236
1
1
1
1
1
1
1
1.00003
1.00006
1.0003
1.00046
1.0016
1.00403
1.00316
1.03561
1.07842
1.2644
1.65879
2.26136
2.6757
2.72005
2.7109
2.69511
2.69477
2.7
2.70501
2.70952
2.71159
2.71431
2.71862
2.72298
2.72577
2.72925
2.73424
2.739
2.74557
2.75332
2.75987
2.76646
2.77336
2.77833
2.7855
2.79562
2.80262
2.80358
2.80073
2.79532
2.78637
2.77835
2.77296
1
1
1
1
1
1
1
1.00002
1.00005
1.00028
1.00042
1.0015
1.00349
1.00435
1.03035
1.07156
1.23604
1.57527
2.1986
2.65795
2.72674
2.714
2.6924
2.68956
2.69336
2.69719
2.7019
2.70509
2.70743
2.71146
2.71629
2.71984
2.72354
2.72789
2.73389
2.74202
2.75117
2.75815
2.76358
2.76838
2.77322
2.77972
2.78985
2.79772
2.79934
2.79693
2.79068
2.78383
2.7717
2.77353
1
1
1
1
1
1
1
1.00003
1.00006
1.00027
1.00045
1.00142
1.00346
1.00494
1.02652
1.06176
1.20868
1.49642
2.10303
2.63414
2.72938
2.70934
2.68123
2.68024
2.68603
2.69246
2.69895
2.70236
2.70634
2.71054
2.71468
2.71805
2.72186
2.72735
2.73227
2.73909
2.74733
2.75398
2.75865
2.76281
2.76643
2.77331
2.78307
2.79038
2.792
2.79004
2.78333
2.77125
2.76819
2.76225
1
1
1
1
1
1
1
1.00004
1.00007
1.00027
1.00049
1.00125
1.00345
1.00314
1.02284
1.05701
1.17644
1.42322
1.98907
2.57793
2.72523
2.70796
2.68047
2.67616
2.68382
2.69026
2.69633
2.69991
2.70254
2.70655
2.70999
2.71328
2.71806
2.72312
2.72882
2.73442
2.74031
2.74601
2.7511
2.75449
2.75834
2.76629
2.77692
2.78318
2.78401
2.78105
2.77839
2.77166
2.75234
2.75788
1
1
1
1
1
1
1.00002
1.00004
1.00017
1.00027
1.00104
1.00149
1.00509
1.0061
1.0172
1.04385
1.14896
1.38015
1.83882
2.55953
2.74254
2.71508
2.68511
2.6771
2.68504
2.69071
2.69668
2.69974
2.70204
2.70448
2.70684
2.70933
2.71382
2.71867
2.72353
2.73019
2.73477
2.73674
2.74022
2.74342
2.74523
2.75219
2.76509
2.77492
2.77597
2.77226
2.76137
2.7527
2.75043
2.7399
1
1
1
1
1
1
1.00001
1.00002
1.0001
1.00017
1.00055
1.00107
1.00212
1.00811
1.00528
1.05047
1.11959
1.39976
2.02736
2.492
2.72718
2.7089
2.68547
2.68302
2.68758
2.69294
2.69942
2.70249
2.7037
2.70511
2.70625
2.7068
2.70881
2.712
2.71547
2.72149
2.72812
2.73094
2.73188
2.73465
2.73701
2.74026
2.74987
2.76
2.76298
2.7622
2.7581
2.73911
2.7227
2.73045
1
1
1
1
1
1
1.00001
1.00002
1.00009
1.00014
1.00049
1.00095
1.00167
1.00746
1.00555
1.04446
1.11535
1.34205
1.94373
2.42606
2.69456
2.67577
2.67088
2.66856
2.67177
2.68059
2.69162
2.69824
2.70131
2.70311
2.70454
2.70577
2.70624
2.70704
2.70824
2.71075
2.71437
2.71753
2.71992
2.72197
2.72417
2.73055
2.73779
2.74274
2.7422
2.73884
2.73093
2.72485
2.70812
2.69533
1
1
1
1
1
1
1.00001
1.00002
1.00007
1.00011
1.00033
1.0008
1.00115
1.00749
1.00223
1.04028
1.09805
1.30583
1.82118
2.34832
2.67428
2.67583
2.66765
2.65899
2.66059
2.66749
2.67418
2.6832
2.69089
2.69611
2.69948
2.70208
2.7035
2.70407
2.70525
2.70653
2.70775
2.70828
2.70903
2.70913
2.70983
2.71291
2.7222
2.72748
2.72661
2.72098
2.70864
2.68478
2.66634
2.66074
1
1
1
1
1
1
1.00001
1.00001
1.00003
1.00013
1.00012
1.00124
1.00201
1.011
1.00874
1.0347
1.07564
1.26719
1.69725
2.26675
2.64679
2.68035
2.66964
2.65724
2.65733
2.66196
2.66656
2.67096
2.67487
2.67872
2.68272
2.68721
2.69073
2.69283
2.69445
2.69663
2.69691
2.69669
2.69678
2.69635
2.69469
2.69391
2.69709
2.6996
2.69781
2.69263
2.67505
2.65064
2.60479
2.51392
1
1
1
1
1
1
1
1
1.00002
1.00002
1.00019
1.00034
1.00171
1.0017
1.01327
1.00123
1.07322
1.1734
1.60925
2.34694
2.6182
2.68818
2.67599
2.66029
2.65806
2.66258
2.66676
2.67031
2.67201
2.67406
2.67641
2.67906
2.68206
2.68389
2.68414
2.68391
2.68315
2.68114
2.6792
2.6778
2.67575
2.67279
2.66998
2.66586
2.65774
2.63984
2.61657
2.5615
2.50162
2.37789
1
1
1
1
1
1
1
1
1.00001
1.00001
1.00013
1.0002
1.00128
1.00146
1.0112
1.00367
1.06492
1.1425
1.53074
2.23556
2.57051
2.69055
2.67661
2.66061
2.65565
2.65919
2.66169
2.66553
2.66721
2.6679
2.66801
2.66795
2.66792
2.66848
2.66952
2.66913
2.66748
2.66386
2.65865
2.65304
2.64635
2.64046
2.63612
2.6281
2.61818
2.59831
2.5643
2.51775
2.42529
2.3467
1
1
1
1
1
1
1
1
1.00001
1.00001
1.00013
1.00018
1.00115
1.0014
1.00916
1.00353
1.05314
1.11624
1.39924
2.00632
2.47745
2.66409
2.64325
2.63861
2.63634
2.64252
2.64557
2.6497
2.65181
2.65341
2.65505
2.65548
2.65582
2.65537
2.6549
2.65399
2.65233
2.64856
2.64378
2.63436
2.62386
2.60862
2.59597
2.58241
2.56536
2.54851
2.51406
2.48119
2.41121
2.36015
1
1
1
1
1
1
1
1
1.00001
1.00001
1.0001
1.00015
1.00094
1.00123
1.0076
1.00426
1.0404
1.10248
1.30397
1.81893
2.33679
2.64245
2.64092
2.63281
2.62377
2.62392
2.62582
2.62732
2.62738
2.62747
2.62852
2.62968
2.6311
2.63278
2.63318
2.63381
2.63337
2.6319
2.62882
2.62292
2.6107
2.59869
2.5759
2.55936
2.53078
2.51247
2.47588
2.45081
2.39927
2.36952
1
1
1
1
1
1
1
1
1.00001
1
1.00007
1.0001
1.00068
1.00075
1.00578
1.0022
1.03145
1.07735
1.23203
1.61113
2.14512
2.56863
2.64016
2.63006
2.62647
2.6213
2.62428
2.6242
2.62348
2.62164
2.61822
2.61468
2.60994
2.6068
2.60492
2.60349
2.60251
2.60069
2.59789
2.59527
2.58848
2.58111
2.56368
2.55008
2.52162
2.50381
2.46741
2.44313
2.40137
2.37199
1
1
1
1
1
1
1
1
1
1.00002
1.00001
1.00014
1.0002
1.00123
1.00137
1.01058
1.00395
1.0603
1.12969
1.49758
2.15179
2.5228
2.65331
2.62899
2.61848
2.60888
2.60926
2.61304
2.61555
2.61509
2.61363
2.61038
2.60453
2.59787
2.59226
2.58624
2.58061
2.57598
2.56896
2.56408
2.55573
2.54988
2.53706
2.52813
2.50723
2.49324
2.46513
2.44179
2.41128
2.38424
1
1
1
1
1
1
1
1
1
1.00001
1.00001
1.00012
1.00019
1.0011
1.00128
1.00851
1.00432
1.04434
1.11433
1.33343
1.91301
2.36886
2.63389
2.63014
2.61663
2.60316
2.60208
2.60312
2.60493
2.60773
2.60731
2.60552
2.60122
2.59622
2.58786
2.58147
2.57109
2.56478
2.55309
2.54642
2.53322
2.52565
2.512
2.50124
2.48616
2.47121
2.45318
2.4344
2.41137
2.3899
1
1
1
1
1
1
1
1
1
1.00001
1.00001
1.00008
1.00013
1.00077
1.00079
1.00631
1.00106
1.03362
1.07814
1.25723
1.65679
2.21867
2.58912
2.62649
2.61521
2.60288
2.59608
2.596
2.59642
2.59738
2.59743
2.59675
2.59464
2.59172
2.5845
2.57883
2.56748
2.56094
2.54798
2.54022
2.52666
2.51596
2.50201
2.48875
2.4735
2.45833
2.44137
2.42418
2.4057
2.38903
1
1
1
1
1
1
1
1
1
1.00001
1.00001
1.00007
1.00006
1.00068
1.00108
1.00658
1.00486
1.02044
1.04737
1.1657
1.41411
1.88162
2.47588
2.64221
2.63329
2.6129
2.59217
2.58225
2.58019
2.57971
2.5778
2.57665
2.57594
2.57522
2.57237
2.56908
2.56065
2.55485
2.5433
2.53529
2.52381
2.5131
2.50067
2.4877
2.47325
2.45863
2.4426
2.42642
2.40861
2.39297
1
1
1
1
1
1
1
1
1
1
1.00001
1.00001
1.00013
1.00019
1.00112
1.0012
1.0083
1.00267
1.04607
1.10766
1.32812
1.90357
2.31949
2.62197
2.6373
2.6291
2.60916
2.59444
2.58394
2.57932
2.57392
2.57045
2.56576
2.56191
2.55714
2.55286
2.54631
2.53997
2.53239
2.52343
2.51553
2.50556
2.49616
2.48574
2.4738
2.4612
2.44753
2.43348
2.41801
2.40379
1
1
1
1
1
1
1
1
1
1
1.00001
1.00001
1.00009
1.00014
1.00083
1.00088
1.00616
1.00146
1.03414
1.07822
1.24923
1.65024
2.1779
2.55478
2.62665
2.61829
2.61087
2.5998
2.59325
2.58811
2.58188
2.576
2.56951
2.56249
2.55621
2.54915
2.54215
2.53419
2.52659
2.51797
2.50947
2.50037
2.49093
2.48101
2.47123
2.46085
2.44979
2.43809
2.42554
2.41376
1
1
1
1
1
1
1
1
1
1
1
1.00002
1.00002
1.00015
1.00013
1.00112
1.00141
1.01119
1.00664
1.067
1.14234
1.52303
2.21378
2.50351
2.62398
2.60289
2.59518
2.5812
2.57863
2.57847
2.57744
2.57466
2.57105
2.5647
2.55836
2.55094
2.54386
2.53567
2.5279
2.51945
2.51083
2.5018
2.49231
2.48254
2.47287
2.46315
2.45323
2.44295
2.43215
2.42208
1
1
1
1
1
1
1
1
1
1
1.00001
1.00001
1.00005
1.00004
1.00034
1.00051
1.00295
1.0017
1.01473
1.00995
1.10688
1.27507
1.77764
2.52375
2.63878
2.62892
2.60475
2.58137
2.56994
2.56595
2.5644
2.56215
2.56027
2.55689
2.554
2.54942
2.54363
2.53724
2.53017
2.52292
2.51466
2.50605
2.49697
2.48737
2.47819
2.46872
2.45913
2.44931
2.43931
2.42998
1
1
1
1
1
1
1
1
1
1
1
1.00001
1.00001
1.00008
1.00009
1.0006
1.00077
1.00657
1.0009
1.03639
1.07858
1.25906
1.65252
2.23681
2.61226
2.65322
2.6361
2.60827
2.58706
2.57605
2.56988
2.56411
2.55959
2.55391
2.54794
2.54271
2.53803
2.53338
2.52822
2.52232
2.51634
2.50966
2.50327
2.49599
2.4882
2.47965
2.47091
2.46169
2.45232
2.44364
1
1
1
1
1
1
1
1
1
1
1
1
1.00001
1.00004
1.00004
1.00036
1.00048
1.00403
1.00096
1.0239
1.04441
1.16772
1.42313
1.89438
2.47645
2.64712
2.63342
2.62162
2.59638
2.58028
2.57196
2.56562
2.55929
2.55273
2.54496
2.53751
2.53043
2.52401
2.51863
2.51395
2.50984
2.50513
2.50023
2.49447
2.48831
2.48135
2.47424
2.46663
2.45874
2.45149
1
1
1
1
1
1
1
1
1
1
1
1
1.00002
1.00002
1.00014
1.00016
1.00111
1.00123
1.00938
1.00265
1.04612
1.11606
1.34037
1.93736
2.33513
2.61994
2.62318
2.61879
2.60528
2.59397
2.58663
2.58082
2.57328
2.56509
2.55582
2.54593
2.5369
2.52872
2.52144
2.51502
2.50959
2.50442
2.49929
2.49391
2.4884
2.48223
2.47583
2.46904
2.46209
2.45569
1
1
1
1
1
1
1
1
1
1
1
1
1.00001
1.00001
1.0001
1.00011
1.00085
1.00089
1.00702
1.00267
1.03756
1.0856
1.26502
1.69578
2.23693
2.56904
2.6129
2.6004
2.5913
2.58329
2.58123
2.58036
2.57842
2.57498
2.56985
2.56348
2.55601
2.5468
2.53753
2.52872
2.51963
2.51165
2.50447
2.49766
2.49126
2.48479
2.4785
2.47189
2.46529
2.45918
1
1
1
1
1
1
1
1
1
1
1
1
1
1.00002
1.00002
1.00019
1.00021
1.00147
1.00163
1.01323
1.00127
1.07833
1.15121
1.57539
2.27093
2.53668
2.63552
2.61417
2.60089
2.58686
2.58135
2.57965
2.57826
2.57559
2.57247
2.56861
2.56363
2.55852
2.55237
2.54582
2.53944
2.53214
2.52495
2.51679
2.50894
2.50046
2.49238
2.48405
2.47598
2.46886
1
1
1
1
1
1
1
1
1
1
1
1
1
1.00002
1.00002
1.00017
1.00021
1.00137
1.00148
1.01059
1.00001
1.0588
1.1171
1.42736
2.05688
2.4596
2.62664
2.59881
2.59017
2.57381
2.56891
2.56853
2.56786
2.56608
2.56349
2.56014
2.5567
2.55301
2.54923
2.54486
2.54021
2.53567
2.53088
2.52658
2.52163
2.5168
2.51095
2.50462
2.49746
2.49034
1
1
1
1
1
1
1
1
1
1
1
1
1
1.00001
1.00005
1.00002
1.00046
1.00048
1.00379
1.00156
1.0227
1.00641
1.10406
1.26
1.74099
2.50595
2.63841
2.63192
2.60916
2.58515
2.575
2.5714
2.56893
2.56548
2.56159
2.55738
2.55259
2.54812
2.54288
2.5386
2.53484
2.53133
2.52816
2.52506
2.52221
2.51897
2.51567
2.51203
2.50719
2.50296
1
1
1
1
1
1
1
1
1
1
1
1
1
1.00001
1.00004
1.00004
1.00028
1.00037
1.00231
1.00171
1.01632
1.00054
1.08718
1.19179
1.64396
2.41675
2.60703
2.65891
2.64395
2.62311
2.60675
2.59752
2.59115
2.58457
2.5777
2.571
2.56317
2.55617
2.54868
2.54194
2.53624
2.53135
2.52769
2.52393
2.52137
2.51839
2.51563
2.51251
2.50866
2.50547
1
1
1
1
1
1
1
1
1
1
1
1
1
1.00001
1.00001
1.00005
1.00003
1.00034
1.00043
1.00319
1.00247
1.02255
1.03254
1.16569
1.40914
1.9537
2.49956
2.66438
2.63916
2.6259
2.60314
2.5943
2.58891
2.58493
2.57959
2.57367
2.56724
2.56069
2.55431
2.5488
2.5435
2.53813
2.53413
2.52936
2.52565
2.52164
2.51813
2.51452
2.51059
2.50708
1
1
1
1
1
1
1
1
1
1
1
1
1
1.00001
1.00001
1.00007
1.00007
1.00056
1.00068
1.00437
1.0022
1.02593
1.00646
1.12169
1.29267
1.80458
2.53714
2.67188
2.64807
2.63564
2.60962
2.59786
2.59277
2.58907
2.5848
2.57911
2.57295
2.56686
2.56041
2.55462
2.54966
2.54459
2.54128
2.53683
2.53343
2.52913
2.52485
2.52042
2.51529
2.51093
1
1
1
1
1
1
1
1
1
1
1
1
1
1.00001
1.00001
1.00006
1.00005
1.00048
1.00053
1.00379
1.00154
1.02271
1.00052
1.10934
1.23728
1.74987
2.52182
2.67869
2.67584
2.65619
2.63017
2.61584
2.60995
2.60521
2.60204
2.59728
2.59251
2.58739
2.58226
2.57622
2.57159
2.56531
2.56111
2.5557
2.55187
2.54714
2.54226
2.53714
2.53061
2.52523
1
1
1
1
1
1
1
1
1
1
1
1
1
1
1.00001
1.00001
1.00007
1.00007
1.00052
1.00066
1.00468
1.00323
1.0314
1.06233
1.25143
1.63774
2.21794
2.61725
2.68322
2.66234
2.64058
2.62284
2.61675
2.6122
2.60889
2.60323
2.59843
2.59321
2.5885
2.58457
2.58038
2.57705
2.57348
2.57042
2.5672
2.56384
2.55986
2.5556
2.55031
2.54544
1
1
1
1
1
1
1
1
1
1
1
1
1
1
1.00001
1.00001
1.00005
1.00004
1.00041
1.00052
1.00393
1.00285
1.02763
1.04511
1.19502
1.48498
2.04376
2.54703
2.67918
2.65011
2.63041
2.60794
2.59987
2.59749
2.59621
2.5934
2.59043
2.58675
2.58285
2.58009
2.57633
2.57408
2.57075
2.56824
2.56538
2.56193
2.55928
2.55446
2.55154
2.54671
1
1
1
1
1
1
1
1
1
1
1
1
1
1
1.00001
1.00001
1.00005
1.00005
1.00042
1.00049
1.00301
1.00184
1.01605
1.01432
1.13843
1.36529
1.87312
2.53663
2.72273
2.68473
2.64265
2.61151
2.59935
2.59627
2.59498
2.59287
2.5906
2.58752
2.58388
2.5811
2.57754
2.57492
2.57164
2.56841
2.5653
2.56098
2.5581
2.55289
2.55023
2.5459
1
1
1
1
1
1
1
1
1
1
1
1
1
1
1
1.00002
1.00007
1.0001
1.00036
1.00087
1.00251
1.00599
1.01734
1.05677
1.11277
1.45364
2.10363
2.5332
2.69328
2.66719
2.63041
2.61027
2.60481
2.60436
2.60434
2.60385
2.60272
2.60096
2.59859
2.59584
2.59335
2.59036
2.58752
2.58366
2.57937
2.57413
2.56961
2.5638
2.56005
2.55525
1
1
1
1
1
1
1
1
1
1
1
1
1
1
1
1.00002
1.00002
1.00011
1.00039
1.00074
1.00264
1.00518
1.01823
1.04791
1.11447
1.36847
1.99469
2.43774
2.66971
2.64326
2.62742
2.61057
2.60306
2.59975
2.59741
2.59512
2.59313
2.59129
2.58896
2.58615
2.58415
2.58199
2.58048
2.57802
2.57479
2.57047
2.56651
2.56119
2.55774
2.55326
1
1
1
1
1
1
1
1
1
1
1
1
1
1
1
1.00001
1.00001
1.00013
1.00011
1.00099
1.00106
1.00864
1.00032
1.04692
1.09761
1.33932
1.89278
2.37189
2.65945
2.65152
2.63271
2.61227
2.60293
2.59893
2.59545
2.59146
2.58755
2.58412
2.58177
2.57867
2.57625
2.57255
2.56912
2.56488
2.56104
2.55687
2.55303
2.54898
2.54587
2.54269
1
1
1
1
1
1
1
1
1
1
1
1
1
1
1
1.00001
1.00001
1.00009
1.00011
1.0008
1.00081
1.00717
1.00219
1.03944
1.08553
1.30229
1.79631
2.31063
2.64528
2.65723
2.6429
2.6193
2.60644
2.60097
2.59728
2.59274
2.58822
2.58276
2.5788
2.57418
2.57119
2.56716
2.56424
2.56046
2.5572
2.55389
2.55066
2.54783
2.54509
2.5429
1
1
1
1
1
1
1
1
1
1
1
1
1
1
1
1.00001
1.00001
1.00008
1.00009
1.00065
1.00076
1.00555
1.00356
1.03492
1.07591
1.26949
1.71947
2.23796
2.63335
2.67222
2.65181
2.62646
2.61139
2.60506
2.60091
2.59654
2.592
2.58702
2.58384
2.58042
2.57845
2.57597
2.57464
2.57277
2.57119
2.56981
2.56752
2.5653
2.56224
2.5594
1
1
1
1
1
1
1
1
1
1
1
1
1
1
1
1.00001
1.00001
1.00009
1.00012
1.00067
1.00085
1.00561
1.00013
1.03482
1.06824
1.24651
1.65141
2.17047
2.62185
2.68474
2.66164
2.63414
2.61373
2.60787
2.60743
2.60675
2.60533
2.60405
2.60223
2.60015
2.59852
2.59601
2.59406
2.59111
2.58844
2.58513
2.58167
2.57842
2.57447
2.5716
1
1
1
1
1
1
1
1
1
1
1
1
1
1
1
1.00001
1.00001
1.0001
1.00011
1.00076
1.00089
1.0056
1.00021
1.03222
1.05973
1.22936
1.60126
2.11548
2.61942
2.69339
2.66621
2.6371
2.62479
2.62594
2.62964
2.6305
2.62976
2.6268
2.62026
2.61427
2.60758
2.60248
2.59756
2.59313
2.58962
2.58583
2.58322
2.58013
2.57781
2.57559
1
1
1
1
1
1
1
1
1
1
1
1
1
1
1
1.00001
1.00001
1.0001
1.00013
1.00081
1.00091
1.00565
1.00688
1.02633
1.05655
1.21482
1.56989
2.09256
2.60952
2.69452
2.6676
2.64111
2.63711
2.64092
2.64557
2.64561
2.64359
2.63644
2.62633
2.6173
2.60921
2.60331
2.59768
2.59407
2.59087
2.58852
2.58703
2.58497
2.58381
2.58164
1
1
1
1
1
1
1
1
1
1
1
1
1
1
1
1.00001
1.00002
1.00011
1.00008
1.00042
1.00048
1.00449
1.00299
1.03046
1.04772
1.21976
1.55685
2.10895
2.59264
2.69049
2.66249
2.6429
2.64106
2.64627
2.65089
2.65041
2.646
2.63523
2.62541
2.61675
2.61102
2.60641
2.60334
2.60131
2.59908
2.59796
2.59581
2.59437
2.59246
2.59107
1
1
1
1
1
1
1
1
1
1
1
1
1
1
1
1
1.00004
1.00003
1.00032
1.00031
1.00236
1.00267
1.01197
1.0238
1.07499
1.16489
1.62986
2.39606
2.64276
2.70974
2.69706
2.67618
2.66484
2.65686
2.64786
2.63599
2.62368
2.61265
2.60473
2.59826
2.59431
2.59078
2.58831
2.58627
2.58392
2.58228
2.57988
2.57787
2.57606
2.57401
1
1
1
1
1
1
1
1
1
1
1
1
1
1
1.00001
1.00001
1.00005
1.00004
1.00028
1.00037
1.00235
1.00264
1.01696
1.0162
1.0727
1.17095
1.63397
2.40042
2.62487
2.70228
2.69137
2.6767
2.66838
2.65441
2.6446
2.63154
2.61591
2.60334
2.59394
2.58592
2.5808
2.57542
2.57287
2.56879
2.56668
2.563
2.56028
2.55693
2.55317
2.55031
1
1
1
1
1
1
1
1
1
1
1
1
1
1
1
1.00002
1.00002
1.00013
1.00018
1.0009
1.00113
1.00593
1.0064
1.02959
1.04704
1.22311
1.56497
2.13405
2.56915
2.66745
2.6419
2.62804
2.63006
2.6402
2.64928
2.64975
2.64584
2.63445
2.62335
2.61548
2.61075
2.60845
2.60606
2.60308
2.59937
2.59436
2.59014
2.58455
2.58136
2.5767
1
1
1
1
1
1
1
1
1
1
1
1
1
1
1.00001
1.00001
1.00006
1.00005
1.00023
1.00025
1.00188
1.00154
1.01412
1.00342
1.08211
1.16506
1.64437
2.37321
2.61622
2.69991
2.69119
2.67796
2.66624
2.65338
2.64352
2.6321
2.61863
2.60686
2.59737
2.59068
2.58602
2.58203
2.57963
2.57698
2.57564
2.57271
2.5708
2.56634
2.56302
2.55855
2.14176
2.62962
2.9116
3.27699
3.22474
3.20264
3.19381
3.19789
3.20854
3.21398
3.22106
3.22402
3.22913
3.23186
3.2379
3.24202
3.24699
3.24983
3.25361
3.25542
3.25618
3.25494
3.2521
3.24929
3.24428
3.23935
3.23219
3.22585
3.21645
3.2094
3.1969
3.19048
3.1771
3.16752
3.15526
3.14399
3.13071
3.11855
3.10523
3.09235
3.07889
3.06578
3.05083
3.03877
3.02466
3.01231
2.99921
2.98678
2.97232
2.96003
2.9472
2.93549
2.92243
2.91048
2.89856
2.88608
2.87445
2.86162
2.85096
2.83837
2.82787
2.81568
2.80617
2.79363
2.78505
2.77212
2.76389
2.75132
2.74293
2.73084
2.72256
2.71062
2.70275
2.69071
2.6832
2.67142
2.66391
2.65286
2.64503
2.63485
2.62688
2.61754
2.6097
2.60119
2.5939
2.58615
2.58001
2.57338
2.56858
2.56418
2.56201
2.56024
2.5589
2.55839
2.55923
2.56197
2.56745
2.57077
2.5784
2.57382
2.17973
2.41405
2.64711
2.84438
3.04399
3.16454
3.22717
3.27261
3.28301
3.32819
3.53805
3.55506
3.46581
3.38484
3.35115
3.31725
3.29271
3.27395
3.25292
3.23835
3.22176
3.20785
3.19503
3.17941
3.16702
3.15494
3.14524
3.13447
3.12606
3.11494
3.10466
3.09287
3.07967
3.06679
3.05034
3.03603
3.02037
3.00215
2.98324
2.96345
2.94395
2.92216
2.90432
2.88216
2.86473
2.84183
2.82513
2.80333
2.78804
2.76778
2.7529
2.73342
2.71949
2.70193
2.68948
2.67314
2.66063
2.64443
2.6318
2.61605
2.60386
2.58908
2.57803
2.56469
2.5551
2.54344
2.53546
2.52551
2.51899
2.51053
2.50529
2.49815
2.49401
2.48812
2.48476
2.48009
2.47706
2.47349
2.47059
2.46782
2.46508
2.46282
2.46039
2.45836
2.4564
2.45467
2.45321
2.45221
2.45181
2.45236
2.45427
2.45635
2.45904
2.46188
2.4652
2.47031
2.47867
2.48315
2.49322
2.49021
2.25749
2.32856
2.41224
2.48755
2.54663
2.62703
2.69934
2.75888
2.79792
2.82857
2.85175
2.86626
2.86405
2.85736
2.84874
2.83146
2.81168
2.78538
2.75761
2.73018
2.706
2.68248
2.66228
2.64314
2.62741
2.61388
2.60364
2.59539
2.58975
2.58465
2.58219
2.57905
2.5775
2.57432
2.57252
2.56873
2.56637
2.56135
2.55777
2.55257
2.54957
2.54452
2.54032
2.53407
2.52789
2.51948
2.51021
2.49936
2.4882
2.47575
2.46357
2.45059
2.43893
2.42646
2.41499
2.4027
2.39122
2.37956
2.36794
2.35661
2.34483
2.33351
2.32192
2.31047
2.29925
2.28798
2.27711
2.26654
2.256
2.24631
2.23648
2.22769
2.21871
2.21094
2.20306
2.19626
2.18972
2.18395
2.1789
2.17437
2.1706
2.16747
2.16499
2.16316
2.16192
2.16127
2.16139
2.16189
2.16313
2.16482
2.16864
2.17095
2.17496
2.17759
2.18291
2.18708
2.19561
2.20026
2.21116
2.21053
2.29478
2.29706
2.32499
2.35399
2.37633
2.40247
2.42742
2.45326
2.47321
2.48581
2.493
2.49175
2.48767
2.48112
2.47545
2.46693
2.46119
2.45371
2.44684
2.4398
2.43311
2.4262
2.41949
2.41258
2.40628
2.39998
2.39442
2.38905
2.38454
2.37974
2.37587
2.37127
2.36758
2.36287
2.35949
2.35521
2.35261
2.34829
2.34497
2.34001
2.33669
2.3323
2.32892
2.32472
2.32075
2.31665
2.31206
2.30786
2.30276
2.29818
2.29277
2.28774
2.28213
2.27663
2.27087
2.26494
2.25901
2.25267
2.24631
2.23968
2.23286
2.22582
2.21867
2.21118
2.2038
2.19586
2.18824
2.17982
2.17191
2.16318
2.15494
2.14622
2.13777
2.12914
2.12061
2.11219
2.10387
2.0958
2.08798
2.08041
2.07337
2.06669
2.06076
2.05528
2.05061
2.0466
2.04326
2.04103
2.03935
2.03949
2.04087
2.0422
2.04509
2.04759
2.05325
2.05766
2.06635
2.07215
2.08269
2.08611
2.31388
2.29658
2.28953
2.29231
2.29428
2.29788
2.30357
2.31127
2.31773
2.32166
2.32118
2.31877
2.31373
2.30857
2.30416
2.30166
2.29976
2.29855
2.29791
2.29734
2.2972
2.29695
2.29629
2.29566
2.29495
2.29443
2.29378
2.29332
2.2926
2.29186
2.2907
2.28908
2.28725
2.28455
2.2825
2.27972
2.27807
2.27486
2.27263
2.26833
2.2659
2.26188
2.25971
2.25565
2.25327
2.24886
2.24619
2.24124
2.23804
2.23247
2.22869
2.22266
2.21839
2.21221
2.20765
2.20145
2.19674
2.19066
2.18563
2.17969
2.17413
2.16817
2.16203
2.15594
2.14936
2.14303
2.13627
2.12964
2.12267
2.11582
2.10861
2.10145
2.09414
2.0869
2.07959
2.07233
2.06514
2.05794
2.05084
2.04392
2.03691
2.03042
2.02401
2.01797
2.01275
2.00752
2.00374
2
1.99786
1.9964
1.99638
1.99665
1.99739
1.99879
2.00141
2.00472
2.0108
2.01465
2.0227
2.02458
2.32921
2.31634
2.29128
2.27915
2.26394
2.25574
2.24636
2.24163
2.23887
2.23651
2.23205
2.22897
2.22316
2.21867
2.21407
2.21292
2.2133
2.21443
2.21616
2.21888
2.22137
2.22283
2.22552
2.22668
2.22842
2.2305
2.23149
2.23261
2.23328
2.23319
2.23279
2.23169
2.23057
2.22831
2.22673
2.22437
2.22266
2.21993
2.21687
2.21288
2.20889
2.20463
2.20056
2.19627
2.19238
2.18801
2.18421
2.17962
2.17569
2.17091
2.16664
2.16171
2.15696
2.15193
2.14662
2.14146
2.13557
2.13018
2.12391
2.11833
2.11193
2.10635
2.10022
2.09468
2.08891
2.0834
2.07796
2.07254
2.06727
2.06194
2.05663
2.05125
2.04574
2.04018
2.03444
2.02859
2.02272
2.01672
2.01089
2.00491
1.99936
1.99367
1.9885
1.98366
1.97903
1.97535
1.97178
1.96948
1.96748
1.96721
1.96728
1.96764
1.96859
1.9702
1.97367
1.97642
1.98179
1.98516
1.99204
1.9938
2.34515
2.32576
2.31057
2.2872
2.26446
2.24608
2.23004
2.21656
2.20542
2.19622
2.18873
2.18096
2.17652
2.17168
2.16833
2.16586
2.16659
2.16842
2.17143
2.1746
2.17791
2.18059
2.18401
2.18739
2.19063
2.1943
2.19615
2.19872
2.2002
2.20041
2.20023
2.19954
2.19828
2.19619
2.19402
2.19178
2.18921
2.18654
2.18304
2.17947
2.17529
2.17132
2.16704
2.16277
2.15846
2.15382
2.14934
2.14431
2.13961
2.13439
2.12938
2.12412
2.11864
2.11339
2.10744
2.10214
2.0959
2.09047
2.08416
2.07849
2.07224
2.06626
2.06005
2.05389
2.04782
2.04173
2.03574
2.02982
2.02394
2.01825
2.01258
2.00709
2.00181
1.9965
1.9917
1.98657
1.98216
1.97733
1.97309
1.96873
1.96452
1.96066
1.95665
1.95328
1.94976
1.94711
1.94438
1.94278
1.94149
1.94119
1.94118
1.94137
1.94225
1.94335
1.94636
1.94834
1.95218
1.95434
1.95958
1.9595
2.35051
2.33278
2.31536
2.29872
2.28017
2.25578
2.23305
2.21417
2.19806
2.18449
2.17318
2.16394
2.15649
2.15178
2.14807
2.14666
2.14549
2.14635
2.1481
2.15147
2.15427
2.15792
2.16141
2.16494
2.16861
2.17126
2.17353
2.17501
2.1751
2.17497
2.17402
2.17259
2.1704
2.16819
2.16527
2.16311
2.16039
2.15813
2.15471
2.15151
2.14746
2.14351
2.1391
2.13466
2.13018
2.12549
2.12088
2.11596
2.11107
2.10603
2.10087
2.09585
2.09042
2.0854
2.07973
2.0746
2.06884
2.06346
2.05772
2.05205
2.04632
2.04051
2.0347
2.02888
2.02303
2.01724
2.01146
2.00575
2.00011
1.99456
1.98912
1.98377
1.97861
1.97353
1.96863
1.96397
1.95926
1.95514
1.95077
1.94713
1.94341
1.9402
1.93728
1.93465
1.93258
1.93072
1.92963
1.92877
1.92882
1.92895
1.92922
1.92979
1.93112
1.93241
1.93502
1.9366
1.93927
1.9406
1.94425
1.94334
2.35791
2.33894
2.32002
2.30321
2.28436
2.26794
2.24866
2.22947
2.20983
2.19235
2.17836
2.1666
2.15758
2.15085
2.14615
2.14289
2.14195
2.14056
2.14092
2.14239
2.14541
2.14907
2.15208
2.15439
2.15643
2.15708
2.15689
2.15632
2.15484
2.15258
2.15118
2.14792
2.14547
2.14235
2.14
2.13754
2.13572
2.13345
2.1308
2.12772
2.12414
2.12018
2.1158
2.11105
2.10632
2.10129
2.09648
2.09139
2.08644
2.08141
2.07629
2.07132
2.06604
2.06099
2.05562
2.05044
2.04508
2.03975
2.03441
2.02897
2.0236
2.01809
2.01263
2.00715
2.00166
1.99629
1.99085
1.9856
1.9803
1.97515
1.97006
1.96501
1.96023
1.95531
1.95092
1.94629
1.94223
1.93812
1.9345
1.93091
1.92794
1.92496
1.92264
1.92051
1.91889
1.91779
1.91705
1.91712
1.9173
1.91752
1.91805
1.91884
1.92007
1.9214
1.92289
1.92365
1.92479
1.9251
1.92678
1.92456
2.37329
2.35235
2.33124
2.31188
2.29286
2.27518
2.25829
2.24148
2.22635
2.21237
2.19945
2.18795
2.17892
2.17141
2.16564
2.1614
2.15676
2.15418
2.15169
2.15025
2.14956
2.14927
2.14934
2.14906
2.14829
2.14659
2.14385
2.14126
2.13779
2.13518
2.13382
2.13124
2.12941
2.12778
2.12627
2.12535
2.12404
2.12276
2.12031
2.11776
2.11413
2.11033
2.1057
2.10095
2.09583
2.09065
2.08543
2.08004
2.07471
2.0692
2.06369
2.05818
2.05251
2.04694
2.04109
2.0353
2.02941
2.02352
2.01768
2.0118
2.00603
2.00021
1.99454
1.98888
1.98339
1.97792
1.97275
1.9674
1.96263
1.95741
1.95288
1.94792
1.94355
1.93892
1.93487
1.9306
1.92697
1.92332
1.92005
1.91725
1.91453
1.91252
1.91069
1.90942
1.90857
1.90813
1.90821
1.90848
1.90876
1.90904
1.90974
1.91035
1.91113
1.91185
1.91203
1.91193
1.91168
1.91102
1.91141
1.90878
2.38811
2.36883
2.34806
2.32652
2.30602
2.28642
2.26884
2.25231
2.23728
2.22409
2.21237
2.20261
2.19398
2.18668
2.18038
2.17505
2.17038
2.16562
2.16099
2.15671
2.1526
2.14925
2.14609
2.14274
2.13977
2.13642
2.13333
2.13071
2.12798
2.12668
2.12541
2.12378
2.12289
2.12231
2.12189
2.12155
2.12079
2.11978
2.1176
2.11539
2.11191
2.10832
2.10381
2.09911
2.094
2.08876
2.08341
2.07793
2.0724
2.06672
2.06102
2.0552
2.04934
2.04337
2.03724
2.03107
2.02471
2.01839
2.01193
2.00557
1.99917
1.99285
1.98664
1.98043
1.97446
1.96849
1.96274
1.95718
1.95165
1.94654
1.94129
1.93655
1.9317
1.92728
1.92293
1.91898
1.91521
1.91184
1.9088
1.9061
1.90387
1.90204
1.90064
1.8998
1.89934
1.89944
1.89976
1.90027
1.90069
1.90151
1.90254
1.90344
1.90414
1.90469
1.90478
1.90471
1.90451
1.90415
1.90414
1.90258
2.4004
2.38355
2.36494
2.34436
2.32366
2.30336
2.28435
2.26706
2.25127
2.23722
2.22487
2.21403
2.20463
2.19663
2.18945
2.18262
2.17642
2.16971
2.16363
2.15756
2.15166
2.14613
2.14061
2.13541
2.13072
2.12665
2.12327
2.12121
2.12025
2.12011
2.1198
2.11986
2.12014
2.1206
2.12078
2.12067
2.1202
2.11929
2.11734
2.11519
2.11205
2.1085
2.1042
2.09946
2.09436
2.08905
2.08364
2.07811
2.0725