/*--------------------------------*- C++ -*----------------------------------*\
| =========                 |                                                 |
| \\      /  F ield         | OpenFOAM: The Open Source CFD Toolbox           |
|  \\    /   O peration     | Version:  2112                                  |
|   \\  /    A nd           | Website:  www.openfoam.com                      |
|    \\/     M anipulation  |                                                 |
\*---------------------------------------------------------------------------*/
FoamFile
{
    version     2.0;
    format      ascii;
    arch        "LSB;label=32;scalar=64";
    class       volVectorField;
    location    "7.0005";
    object      U;
}
// * * * * * * * * * * * * * * * * * * * * * * * * * * * * * * * * * * * * * //

dimensions      [0 1 -1 0 0 0 0];

internalField   nonuniform List<vector> 
7000
(
(3 -5.90192e-07 0.000805021)
(3 -1.35608e-06 0.000764327)
(3 -1.86852e-06 0.000723859)
(3 -1.90228e-06 0.000683619)
(3 -1.84984e-06 0.000643615)
(3 -1.86175e-06 0.000603928)
(2.99999 -1.37985e-06 0.000564457)
(2.99997 -1.4849e-06 0.00052568)
(2.99991 -7.67183e-07 0.000487755)
(2.9997 -2.32598e-07 0.000453569)
(2.99932 1.10084e-05 0.000421523)
(2.99812 1.85304e-05 0.000411394)
(2.99617 0.00010158 0.000405739)
(2.98532 4.85403e-05 0.000690154)
(2.97542 0.000314437 0.00066634)
(2.86705 -0.00285657 0.0043848)
(2.6389 -0.00323387 0.00728852)
(2.08603 -0.00991989 0.0204115)
(0.916481 -0.00650405 0.0195228)
(0.403596 -0.0159324 0.00586035)
(0.55705 -0.0105202 -0.00154026)
(0.645712 -0.00753378 -0.000887043)
(0.648956 -0.00675801 -1.6077e-05)
(0.621067 -0.00655468 0.000206554)
(0.584297 -0.00546136 0.000177854)
(0.556402 -0.00421157 -7.17795e-05)
(0.534274 -0.00321461 -0.000289764)
(0.513057 -0.00233563 -0.00044604)
(0.491124 -0.00144964 -0.000580606)
(0.468263 -0.000527804 -0.000714908)
(0.444602 0.000439986 -0.000853921)
(0.420276 0.00143185 -0.000997739)
(0.395352 0.00237331 -0.0011451)
(0.370031 0.0031603 -0.00129411)
(0.344806 0.00368993 -0.00144263)
(0.320335 0.00389205 -0.00159017)
(0.297156 0.00376054 -0.00173807)
(0.275641 0.00337411 -0.00188715)
(0.256 0.00288209 -0.00203801)
(0.238142 0.00245873 -0.00219075)
(0.221703 0.00225616 -0.00234372)
(0.206167 0.00238574 -0.00249527)
(0.190833 0.00291567 -0.00264708)
(0.174884 0.00387449 -0.00279996)
(0.157627 0.00528839 -0.00295133)
(0.13843 0.00720234 -0.00310124)
(0.11658 0.00970277 -0.00325037)
(0.0917375 0.0129519 -0.00339887)
(0.0595581 0.0176807 -0.00354438)
(0.0322303 0.0269186 -0.00369377)
(3 -6.10956e-07 0.00077721)
(3 -1.39141e-06 0.000737871)
(3 -1.84805e-06 0.000698754)
(3 -1.82231e-06 0.000659865)
(3 -1.72009e-06 0.000621211)
(3 -1.71593e-06 0.000582863)
(2.99999 -7.79469e-07 0.000544733)
(2.99997 -5.67292e-07 0.00050726)
(2.99991 2.14759e-06 0.00047058)
(2.99972 9.17092e-06 0.000437326)
(2.99935 4.32775e-05 0.000406044)
(2.99821 0.000102264 0.000394542)
(2.99642 0.000291372 0.000385103)
(2.98582 0.000655613 0.000655417)
(2.9763 0.00118967 0.000623575)
(2.87153 -0.00016867 0.00410473)
(2.65392 0.00555425 0.00676057)
(2.11882 0.0122507 0.0192472)
(0.943856 0.0563925 0.0191539)
(0.424202 0.0335371 0.00594291)
(0.566905 0.0303422 -0.00139513)
(0.652145 0.0282137 -0.000857229)
(0.653327 0.02558 -2.81943e-05)
(0.624197 0.0234204 0.000187402)
(0.586338 0.0242764 0.000166332)
(0.556832 0.0253193 -6.506e-05)
(0.533416 0.0256293 -0.000275281)
(0.511272 0.0257561 -0.000428037)
(0.488486 0.0260034 -0.000558407)
(0.464781 0.0263662 -0.000687752)
(0.440409 0.0268228 -0.000821514)
(0.415648 0.0273236 -0.000959759)
(0.390687 0.0277509 -0.00110122)
(0.365788 0.027956 -0.00124412)
(0.341404 0.0278063 -0.00138652)
(0.318037 0.0272161 -0.00152818)
(0.295996 0.0261837 -0.0016705)
(0.275406 0.0248299 -0.00181382)
(0.256264 0.0233781 -0.00195818)
(0.238322 0.0220892 -0.002104)
(0.221146 0.0212018 -0.00225037)
(0.204249 0.0209044 -0.00239607)
(0.187047 0.0213089 -0.00254265)
(0.168898 0.0224473 -0.00269034)
(0.149342 0.024333 -0.00283602)
(0.128005 0.0270265 -0.00297966)
(0.104458 0.0306768 -0.00312156)
(0.0788834 0.0355428 -0.00326124)
(0.0471436 0.0424152 -0.00339644)
(0.0236245 0.053764 -0.00352852)
(3 -4.31662e-08 0.000748286)
(3 -7.86176e-08 0.00071036)
(3 -1.30744e-07 0.000672654)
(3 -1.81789e-07 0.000635174)
(3 -2.42692e-07 0.000597925)
(3 -4.34499e-07 0.000560971)
(2.99999 1.79561e-07 0.000524242)
(2.99997 5.86719e-07 0.000488134)
(2.99991 5.75297e-06 0.000452761)
(2.99973 1.81457e-05 0.000420404)
(2.99939 7.17469e-05 0.00038986)
(2.99829 0.000165154 0.000379037)
(2.99668 0.000449023 0.000358735)
(2.98616 0.000735661 0.000622792)
(2.97732 0.00171124 0.000566285)
(2.87552 -0.00124365 0.00389366)
(2.66671 0.0081217 0.00628187)
(2.14831 0.0127345 0.0180778)
(0.958452 0.0635782 0.0189282)
(0.41989 0.0262247 0.00598984)
(0.565286 0.0235885 -0.00135652)
(0.650839 0.0232442 -0.000850385)
(0.65144 0.0214822 -4.61674e-05)
(0.622964 0.0199557 0.000160618)
(0.585906 0.0224875 0.000145936)
(0.555885 0.0251909 -6.30951e-05)
(0.531989 0.0269646 -0.00026358)
(0.509765 0.0285782 -0.000412595)
(0.486978 0.0303944 -0.000538212)
(0.463248 0.0323516 -0.000661689)
(0.43889 0.0343473 -0.000789475)
(0.414237 0.0362362 -0.000921612)
(0.389509 0.0377956 -0.00105653)
(0.364972 0.0387761 -0.00119246)
(0.341024 0.0389799 -0.00132787)
(0.318048 0.0383222 -0.001463)
(0.296235 0.0368857 -0.0015993)
(0.275644 0.0349646 -0.00173692)
(0.256239 0.0330179 -0.0018756)
(0.237787 0.0315448 -0.00201531)
(0.219896 0.0309768 -0.00215499)
(0.202118 0.0316113 -0.00229397)
(0.183877 0.0335481 -0.00243409)
(0.164567 0.0367223 -0.00257514)
(0.143816 0.0410372 -0.00271415)
(0.121415 0.0464402 -0.00285121)
(0.0971479 0.0529928 -0.00298642)
(0.0716523 0.0608205 -0.00311955)
(0.0413334 0.0704841 -0.0032453)
(0.0194386 0.0842576 -0.00336865)
(3 -4.38458e-09 0.000718202)
(3 6.03816e-08 0.000681751)
(3 5.39388e-08 0.000645516)
(3 3.46255e-08 0.000609503)
(3 -4.29795e-09 0.000573718)
(3 -1.63706e-07 0.000538218)
(2.99999 3.70396e-07 0.000502938)
(2.99997 1.79459e-06 0.000468215)
(2.99992 1.10532e-05 0.000434149)
(2.99976 3.20683e-05 0.000402709)
(2.99945 0.000106808 0.000373206)
(2.99846 0.000250733 0.000359244)
(2.99696 0.000672313 0.000354999)
(2.98688 0.00116805 0.000576552)
(2.97759 0.00210135 0.000602568)
(2.88037 -0.00126748 0.00354719)
(2.6822 0.0121018 0.00568099)
(2.18606 0.0197637 0.0168234)
(0.990831 0.0834374 0.018741)
(0.435283 0.0519162 0.00607645)
(0.572976 0.0509356 -0.0012807)
(0.654198 0.0477096 -0.000835424)
(0.652799 0.0437137 -6.27111e-05)
(0.624849 0.0411836 0.000133311)
(0.588366 0.0438069 0.000127449)
(0.557217 0.046213 -5.71229e-05)
(0.532289 0.047669 -0.000248498)
(0.509566 0.0490634 -0.000394155)
(0.486501 0.0507144 -0.000515151)
(0.462606 0.0525437 -0.0006329)
(0.438255 0.0544155 -0.000754619)
(0.413819 0.0561486 -0.000880297)
(0.389514 0.0575002 -0.00100837)
(0.365562 0.0582078 -0.00113737)
(0.342264 0.0580627 -0.00126612)
(0.319865 0.0569943 -0.00139498)
(0.298428 0.0551176 -0.00152497)
(0.277911 0.0527672 -0.00165602)
(0.25821 0.0504509 -0.00178816)
(0.239082 0.0487261 -0.00192162)
(0.220216 0.0480937 -0.0020552)
(0.201286 0.0489352 -0.00218825)
(0.181843 0.0514297 -0.00232238)
(0.161428 0.0555599 -0.0024569)
(0.139804 0.0612356 -0.00258882)
(0.116847 0.0683209 -0.00271847)
(0.0924058 0.0767253 -0.00284556)
(0.0672994 0.0864256 -0.00296886)
(0.0383601 0.0976369 -0.00308821)
(0.0172793 0.112281 -0.00320388)
(3 4.23258e-08 0.000686907)
(3 1.86341e-07 0.000651994)
(3 4.11956e-07 0.000617294)
(3 5.37788e-07 0.000582811)
(3 6.17272e-07 0.000548553)
(3 5.57975e-07 0.000514569)
(2.99999 1.20854e-06 0.000480793)
(2.99998 2.76401e-06 0.000447523)
(2.99993 1.21055e-05 0.000414851)
(2.99979 3.30826e-05 0.000384436)
(2.99953 0.0001081 0.000354911)
(2.99864 0.00024445 0.000341584)
(2.99743 0.000692241 0.00033275)
(2.98736 0.00190741 0.000548106)
(2.9783 0.00158497 0.000503697)
(2.88671 -0.000224825 0.00323006)
(2.69931 0.0119954 0.00521525)
(2.22869 0.0215647 0.0153234)
(1.02818 0.0876104 0.0185965)
(0.450608 0.065943 0.00621755)
(0.577431 0.068811 -0.00116912)
(0.654083 0.060131 -0.000818838)
(0.652809 0.0538357 -9.44399e-05)
(0.627288 0.0508251 9.3331e-05)
(0.592389 0.0543958 0.000101023)
(0.560307 0.0573764 -5.26391e-05)
(0.53454 0.0595289 -0.000235373)
(0.511473 0.0617193 -0.000377587)
(0.488268 0.0641811 -0.000493472)
(0.46434 0.0668041 -0.000604981)
(0.440092 0.0693884 -0.000720122)
(0.415928 0.0716836 -0.000838942)
(0.392067 0.0734103 -0.000959809)
(0.36869 0.0742908 -0.00108135)
(0.346011 0.074126 -0.00120287)
(0.324164 0.0728887 -0.00132479)
(0.303106 0.0707734 -0.00144773)
(0.282719 0.0682226 -0.00157186)
(0.262833 0.0658558 -0.00169739)
(0.243173 0.0643273 -0.001824)
(0.223445 0.0642091 -0.00195061)
(0.203383 0.0659113 -0.00207769)
(0.182653 0.0695844 -0.00220631)
(0.160974 0.075138 -0.00233442)
(0.138273 0.0823845 -0.00245945)
(0.114541 0.0910822 -0.00258206)
(0.089732 0.101034 -0.00270165)
(0.0647844 0.112051 -0.00281901)
(0.036826 0.124173 -0.00292924)
(0.0160369 0.139009 -0.00304034)
(3 5.6591e-08 0.00065435)
(3 1.85969e-07 0.000621041)
(3 5.18072e-07 0.000587943)
(3 6.5772e-07 0.000555056)
(3 7.41272e-07 0.000522388)
(3 6.65721e-07 0.000489983)
(2.99999 1.49485e-06 0.000457781)
(2.99998 2.50284e-06 0.000426027)
(2.99994 1.02237e-05 0.000394809)
(2.99982 2.68188e-05 0.000365449)
(2.99959 9.82755e-05 0.00033697)
(2.99883 0.000199187 0.000319986)
(2.99815 0.000699273 0.000287534)
(2.98779 0.00148609 0.000536349)
(2.97862 0.0017325 0.000508228)
(2.89372 -8.20735e-05 0.00286952)
(2.71689 0.0113829 0.00468363)
(2.27412 0.020244 0.0138041)
(1.07259 0.0738591 0.0183711)
(0.473207 0.0853226 0.00635076)
(0.580879 0.0944267 -0.000982014)
(0.650845 0.0762762 -0.000780001)
(0.652573 0.0683901 -0.000142538)
(0.630886 0.0657413 4.54694e-05)
(0.597784 0.0698779 7.20455e-05)
(0.564494 0.0731291 -4.57017e-05)
(0.537802 0.0756454 -0.000220725)
(0.514388 0.078137 -0.000359401)
(0.491155 0.0808617 -0.000470092)
(0.467386 0.0837267 -0.000575305)
(0.443454 0.0864977 -0.000683764)
(0.419771 0.088895 -0.000795516)
(0.396538 0.0906304 -0.000909158)
(0.37388 0.0914296 -0.00102342)
(0.351922 0.0911234 -0.00113742)
(0.33068 0.08974 -0.00125213)
(0.310013 0.0875426 -0.0013683)
(0.28974 0.0850372 -0.00148531)
(0.269632 0.0828978 -0.00160343)
(0.249393 0.0818159 -0.00172319)
(0.228787 0.082376 -0.00184348)
(0.207624 0.0849773 -0.0019642)
(0.185642 0.0897412 -0.00208602)
(0.162693 0.0965339 -0.00220683)
(0.138857 0.105103 -0.00232471)
(0.114254 0.115117 -0.00244036)
(0.0888984 0.126275 -0.00255293)
(0.0637644 0.138289 -0.00266165)
(0.03625 0.150988 -0.00276763)
(0.0154104 0.165746 -0.00287089)
(3 6.53183e-08 0.000620474)
(3 1.88807e-07 0.000588841)
(3 5.97674e-07 0.000557413)
(3 8.0542e-07 0.000526191)
(3 9.62104e-07 0.000495182)
(3 9.62107e-07 0.000464423)
(2.99999 1.88084e-06 0.00043386)
(2.99998 1.64562e-06 0.000403693)
(2.99995 2.95493e-06 0.000374008)
(2.99984 6.25062e-06 0.000345863)
(2.99964 3.24781e-05 0.000318585)
(2.99902 5.9933e-05 0.000301332)
(2.99842 0.000255704 0.000272845)
(2.98839 -8.08219e-05 0.000491985)
(2.97965 0.00128904 0.000477548)
(2.8989 -0.000835988 0.00257601)
(2.73232 0.00935886 0.00418451)
(2.31195 0.0206199 0.0124892)
(1.12245 0.0580084 0.017743)
(0.50584 0.106994 0.00638269)
(0.581374 0.11813 -0.000663449)
(0.643606 0.0912143 -0.000698531)
(0.653784 0.0836928 -0.000201376)
(0.636637 0.0813009 -3.69582e-06)
(0.605069 0.0850916 4.26674e-05)
(0.570391 0.088774 -3.97349e-05)
(0.542605 0.0917486 -0.000206454)
(0.518779 0.0945204 -0.000340978)
(0.495616 0.0974946 -0.000446394)
(0.472164 0.100588 -0.000544932)
(0.448716 0.103525 -0.000646334)
(0.42567 0.106008 -0.000750981)
(0.403203 0.107747 -0.000857094)
(0.381365 0.108492 -0.000963579)
(0.360174 0.108121 -0.0010702)
(0.339537 0.10673 -0.00117759)
(0.319223 0.104655 -0.00128614)
(0.298988 0.10246 -0.00139591)
(0.278576 0.10085 -0.00150716)
(0.257697 0.10053 -0.00161956)
(0.236154 0.102067 -0.00173232)
(0.213821 0.105807 -0.00184644)
(0.19053 0.111805 -0.00196233)
(0.166271 0.119864 -0.00207689)
(0.14124 0.129662 -0.00218807)
(0.11564 0.140805 -0.00229668)
(0.0895472 0.152914 -0.00240236)
(0.0639566 0.165591 -0.00250536)
(0.036445 0.178645 -0.00260143)
(0.0151265 0.193225 -0.00270156)
(3 6.78027e-08 0.000585223)
(3 1.71781e-07 0.000555339)
(3 5.94005e-07 0.000525654)
(3 7.93823e-07 0.00049617)
(3 9.31703e-07 0.00046689)
(3 8.71524e-07 0.000437848)
(2.99999 2.10827e-06 0.000409009)
(2.99998 -5.67418e-07 0.000380555)
(2.99995 -9.20992e-06 0.000352535)
(2.99984 -2.86071e-05 0.00032598)
(2.99964 -5.76843e-05 0.000300356)
(2.99899 -0.000160307 0.000284822)
(2.99829 -0.000184486 0.000258833)
(2.98886 -0.000720017 0.000453681)
(2.98038 0.000481408 0.000433173)
(2.90359 -0.00228797 0.00230505)
(2.75004 0.0101253 0.00370043)
(2.34614 0.0214914 0.0113114)
(1.17658 0.0568482 0.0167876)
(0.548805 0.127227 0.00629074)
(0.580366 0.130123 -0.000223365)
(0.636091 0.10721 -0.000541986)
(0.656443 0.100726 -0.00028504)
(0.642684 0.0982062 -5.07891e-05)
(0.612953 0.100975 9.77653e-06)
(0.577533 0.105435 -3.84105e-05)
(0.548755 0.108684 -0.000191792)
(0.524717 0.111554 -0.000321786)
(0.501924 0.114617 -0.00042212)
(0.479062 0.117759 -0.000513728)
(0.456326 0.120685 -0.000607653)
(0.434107 0.123108 -0.000704752)
(0.412541 0.124764 -0.000803308)
(0.391599 0.125451 -0.000902016)
(0.37119 0.125104 -0.00100082)
(0.351109 0.123882 -0.0011008)
(0.331053 0.12218 -0.00120204)
(0.310731 0.120605 -0.00130416)
(0.289865 0.119868 -0.00140783)
(0.268192 0.120639 -0.00151304)
(0.245586 0.12344 -0.00161878)
(0.221993 0.128554 -0.00172591)
(0.197321 0.135947 -0.00183481)
(0.171665 0.145332 -0.00194246)
(0.145328 0.156303 -0.00204671)
(0.118586 0.168413 -0.00214813)
(0.0915305 0.181253 -0.00224609)
(0.0651412 0.194422 -0.00234065)
(0.03723 0.207632 -0.00243406)
(0.0152164 0.221957 -0.00252472)
(3 5.82759e-08 0.000548536)
(3 1.66812e-07 0.000520478)
(3 5.61955e-07 0.000492613)
(3 7.95017e-07 0.000464941)
(3 9.57811e-07 0.000437467)
(3 9.36534e-07 0.000410212)
(2.99999 2.21419e-06 0.000383178)
(2.99998 -3.27499e-07 0.000356521)
(2.99994 -9.51232e-06 0.000330309)
(2.99982 -2.78459e-05 0.000305175)
(2.99958 -6.81991e-05 0.000281878)
(2.99897 -0.000173534 0.000263132)
(2.9983 -0.000235591 0.000247112)
(2.98925 -0.000729314 0.000404011)
(2.98083 0.000577591 0.000433987)
(2.90919 -9.3911e-05 0.00201917)
(2.76658 0.0108113 0.00320667)
(2.38162 0.0217517 0.0101658)
(1.24097 0.0628107 0.0156565)
(0.590961 0.14696 0.00623953)
(0.574269 0.138217 0.000183713)
(0.628663 0.12291 -0.000470836)
(0.654317 0.116938 -0.000307147)
(0.644311 0.115428 -7.96375e-05)
(0.618008 0.117536 -2.18584e-05)
(0.583557 0.122222 -4.42632e-05)
(0.554609 0.125624 -0.000175387)
(0.531398 0.128639 -0.000301697)
(0.509864 0.131754 -0.000396748)
(0.488277 0.134853 -0.000480922)
(0.466758 0.137685 -0.000567265)
(0.445717 0.140004 -0.000656925)
(0.425273 0.141591 -0.000747869)
(0.40532 0.142295 -0.000838799)
(0.385665 0.142127 -0.000929699)
(0.366015 0.141321 -0.00102176)
(0.346012 0.14032 -0.00111546)
(0.325351 0.139734 -0.00121027)
(0.303771 0.140243 -0.00130634)
(0.281057 0.142454 -0.00140381)
(0.257162 0.146799 -0.00150225)
(0.232115 0.15347 -0.00160224)
(0.205904 0.162354 -0.00170373)
(0.178714 0.173084 -0.00180393)
(0.150914 0.185193 -0.00190095)
(0.122837 0.19818 -0.00199543)
(0.0946182 0.211601 -0.00208696)
(0.0672178 0.225057 -0.00217477)
(0.0385264 0.238359 -0.00225823)
(0.0154503 0.252413 -0.00234796)
(3 3.50193e-08 0.000510349)
(3 1.77039e-07 0.000484198)
(3 4.94161e-07 0.000458233)
(3 8.54572e-07 0.000432454)
(3 1.03504e-06 0.000406862)
(3 1.08699e-06 0.000381475)
(2.99999 2.01814e-06 0.000356313)
(2.99997 1.29749e-06 0.000331533)
(2.99993 -1.35998e-06 0.000307112)
(2.99981 -3.82547e-06 0.00028399)
(2.99956 -2.24193e-05 0.00026243)
(2.9989 -1.1144e-05 0.000245084)
(2.99816 -0.000181899 0.000224233)
(2.98985 -0.000767782 0.00036645)
(2.98297 0.000901806 0.000339263)
(2.91545 0.000510132 0.00178446)
(2.78386 0.0112098 0.00283487)
(2.42038 0.024575 0.0088956)
(1.31714 0.0718641 0.0143915)
(0.64039 0.168309 0.0062234)
(0.56644 0.151471 0.000584717)
(0.621109 0.135934 -0.000434879)
(0.652543 0.131196 -0.000321727)
(0.646392 0.131888 -9.8164e-05)
(0.62318 0.134179 -4.10657e-05)
(0.59071 0.138262 -5.12558e-05)
(0.562673 0.141746 -0.000161422)
(0.540944 0.144959 -0.000280755)
(0.521191 0.148156 -0.000369909)
(0.501357 0.151264 -0.000447134)
(0.48146 0.154078 -0.000526012)
(0.461874 0.15639 -0.00060779)
(0.442659 0.158045 -0.000690404)
(0.423623 0.158978 -0.000773126)
(0.404501 0.159284 -0.000856438)
(0.384958 0.159255 -0.000941051)
(0.364625 0.159356 -0.00102696)
(0.343205 0.160173 -0.00111402)
(0.320483 0.162328 -0.00120241)
(0.296335 0.166335 -0.00129211)
(0.270822 0.172508 -0.00138299)
(0.244069 0.180925 -0.00147598)
(0.216137 0.191388 -0.00157027)
(0.187282 0.203465 -0.0016626)
(0.1579 0.216648 -0.00175177)
(0.128326 0.230433 -0.00183824)
(0.098707 0.244378 -0.00192189)
(0.0699967 0.258077 -0.00200372)
(0.0402904 0.271323 -0.00208372)
(0.0160166 0.28508 -0.0021621)
(3 1.79267e-08 0.000470595)
(3 1.75048e-07 0.000446438)
(3 4.38246e-07 0.000422457)
(3 8.48171e-07 0.000398652)
(3 1.04948e-06 0.000375026)
(3 1.14316e-06 0.000351589)
(2.99999 2.01832e-06 0.00032837)
(2.99998 2.05555e-06 0.000305504)
(2.99994 4.33572e-06 0.000282967)
(2.99981 9.24683e-06 0.000261667)
(2.9996 3.25028e-05 0.000241043)
(2.9989 0.000115745 0.00022827)
(2.99801 0.000155919 0.000206965)
(2.9904 -1.92474e-05 0.000327234)
(2.98375 0.00176487 0.000306696)
(2.92118 9.86502e-05 0.00151962)
(2.80283 0.0136721 0.00240844)
(2.46181 0.0277443 0.00765416)
(1.40533 0.0816551 0.0131123)
(0.695425 0.193536 0.00621722)
(0.556368 0.166683 0.000981813)
(0.615212 0.147515 -0.000421921)
(0.655184 0.143926 -0.000346668)
(0.653376 0.146707 -0.000111784)
(0.632765 0.149821 -4.7538e-05)
(0.602691 0.153563 -5.33853e-05)
(0.57643 0.156934 -0.000148843)
(0.55662 0.160189 -0.000259113)
(0.538908 0.163467 -0.000341585)
(0.520998 0.166664 -0.000411672)
(0.50276 0.169595 -0.000482497)
(0.484496 0.172104 -0.000556037)
(0.466201 0.174115 -0.000630852)
(0.447628 0.17565 -0.000705816)
(0.42847 0.176877 -0.000781307)
(0.40838 0.17812 -0.000858315)
(0.387028 0.179829 -0.000936756)
(0.364205 0.182521 -0.0010163)
(0.339794 0.186715 -0.00109726)
(0.313776 0.192812 -0.00117901)
(0.286321 0.201016 -0.00126157)
(0.257631 0.211305 -0.00134635)
(0.227812 0.22341 -0.00143292)
(0.197151 0.236849 -0.00151783)
(0.16607 0.251082 -0.00159955)
(0.134902 0.265602 -0.00167884)
(0.103765 0.279979 -0.00175505)
(0.0735563 0.293842 -0.00182822)
(0.0424115 0.307074 -0.00189955)
(0.0166093 0.320517 -0.00197757)
(3 1.10089e-08 0.000429205)
(3 1.57425e-07 0.000407131)
(3 3.98938e-07 0.000385222)
(3 7.40929e-07 0.00036348)
(3 1.06772e-06 0.000341904)
(3 1.33883e-06 0.000320503)
(2.99999 1.77922e-06 0.000299306)
(2.99998 1.99677e-06 0.000278414)
(2.99994 5.77554e-06 0.000257795)
(2.99984 1.40604e-05 0.000238144)
(2.99966 5.00246e-05 0.000218832)
(2.99903 0.00011562 0.00020582)
(2.9983 0.000311357 0.000189652)
(2.9914 0.000345599 0.000283776)
(2.98508 0.00239826 0.000278975)
(2.92795 0.00167398 0.00126397)
(2.82218 0.0155272 0.00199603)
(2.50675 0.0301294 0.00645485)
(1.51039 0.0923084 0.0116653)
(0.759373 0.223159 0.00623173)
(0.544279 0.182238 0.00136649)
(0.612436 0.157445 -0.000434176)
(0.664805 0.154805 -0.000385079)
(0.668598 0.159466 -0.000124845)
(0.65077 0.163669 -4.59307e-05)
(0.623384 0.167479 -4.91512e-05)
(0.59944 0.170673 -0.000134354)
(0.581846 0.173923 -0.000235927)
(0.566111 0.177387 -0.000311282)
(0.549763 0.180908 -0.000374103)
(0.532581 0.184303 -0.000437289)
(0.514835 0.187459 -0.00050294)
(0.496507 0.190356 -0.000569912)
(0.477349 0.193064 -0.000637488)
(0.4571 0.195775 -0.000705537)
(0.435486 0.198819 -0.000774904)
(0.412258 0.202609 -0.000845583)
(0.387322 0.207576 -0.000917135)
(0.360698 0.214113 -0.000990034)
(0.332477 0.222493 -0.0010642)
(0.302913 0.232814 -0.00113878)
(0.272254 0.244991 -0.00121515)
(0.240592 0.258721 -0.00129316)
(0.208173 0.273508 -0.00136982)
(0.175383 0.288795 -0.00144342)
(0.142524 0.304077 -0.00151458)
(0.109686 0.318898 -0.00158351)
(0.0777685 0.332899 -0.00164968)
(0.0450788 0.346018 -0.00171528)
(0.0175812 0.359197 -0.00178164)
(3 9.64057e-09 0.000386103)
(3 1.38168e-07 0.000366207)
(3 3.53399e-07 0.000346464)
(3 6.25109e-07 0.000326875)
(3 1.09305e-06 0.000307441)
(3 1.59238e-06 0.000288168)
(2.99999 1.26062e-06 0.000269081)
(2.99998 5.22144e-07 0.000250258)
(2.99995 8.77719e-07 0.000231676)
(2.99985 3.05032e-06 0.000213941)
(2.99969 1.51348e-05 0.000196731)
(2.99912 1.98542e-05 0.000184041)
(2.99839 0.000129908 0.00017215)
(2.99233 -0.000133133 0.000238808)
(2.98666 0.0018497 0.000244987)
(2.93495 0.00135121 0.00103411)
(2.84212 0.01585 0.00160758)
(2.55538 0.0337608 0.00530286)
(1.6331 0.102927 0.0100864)
(0.834611 0.256243 0.00627401)
(0.533068 0.19653 0.00173235)
(0.61747 0.164606 -0.000471428)
(0.6866 0.162788 -0.000434284)
(0.697194 0.169125 -0.000136199)
(0.682172 0.174384 -3.97832e-05)
(0.657084 0.178588 -4.01123e-05)
(0.634821 0.182092 -0.000117437)
(0.618403 0.185906 -0.000211336)
(0.603231 0.190162 -0.000279576)
(0.586808 0.194658 -0.000335215)
(0.56897 0.199193 -0.000390993)
(0.550075 0.203666 -0.000449162)
(0.530188 0.208082 -0.000508551)
(0.509134 0.212546 -0.000568339)
(0.486725 0.217265 -0.000628957)
(0.462799 0.222537 -0.000690983)
(0.437219 0.228707 -0.000754285)
(0.409985 0.236119 -0.000818137)
(0.381194 0.245064 -0.000882659)
(0.350983 0.255717 -0.000947882)
(0.319598 0.26811 -0.00101394)
(0.287267 0.282128 -0.00108132)
(0.254038 0.297465 -0.00115037)
(0.220089 0.313622 -0.00121857)
(0.185745 0.330035 -0.00128405)
(0.151236 0.346187 -0.00134733)
(0.116634 0.36162 -0.00140813)
(0.0827959 0.375913 -0.00146807)
(0.0480904 0.389053 -0.0015246)
(0.0185768 0.401909 -0.00158798)
(3 4.78603e-10 0.000341213)
(3 1.3704e-07 0.000323595)
(3 2.84038e-07 0.000306115)
(3 6.01971e-07 0.000288776)
(3 1.08528e-06 0.000271577)
(3 1.63734e-06 0.00025453)
(2.99999 7.26002e-07 0.000237649)
(2.99998 -1.54584e-06 0.000221004)
(2.99995 -4.84561e-06 0.000204577)
(2.99985 -1.12557e-05 0.000188865)
(2.99969 -1.43808e-05 0.000173567)
(2.99915 -5.61314e-05 0.000162539)
(2.99837 4.5287e-05 0.000154755)
(2.99308 -7.46316e-05 0.000198282)
(2.98799 0.00133835 0.000200365)
(2.94254 0.00145186 0.000816025)
(2.86501 0.0168053 0.00122302)
(2.60643 0.0329881 0.0042532)
(1.7768 0.114793 0.00832676)
(0.92856 0.286298 0.00635419)
(0.531958 0.207714 0.00205438)
(0.639147 0.169871 -0.000528655)
(0.727102 0.169168 -0.000489957)
(0.742784 0.177004 -0.000145147)
(0.727336 0.183316 -3.00713e-05)
(0.700872 0.188799 -2.81536e-05)
(0.676691 0.193829 -9.93203e-05)
(0.658154 0.199184 -0.000186005)
(0.640738 0.204907 -0.000247454)
(0.622027 0.210847 -0.000296317)
(0.601911 0.216872 -0.000344887)
(0.58077 0.222934 -0.000395647)
(0.558689 0.229082 -0.000447596)
(0.535518 0.235459 -0.00050013)
(0.511094 0.242288 -0.000553007)
(0.485279 0.249838 -0.000606966)
(0.457978 0.258377 -0.000662053)
(0.429218 0.268161 -0.000717688)
(0.399102 0.279397 -0.000773669)
(0.367757 0.292198 -0.000830162)
(0.33539 0.306567 -0.000887139)
(0.302137 0.322398 -0.000945641)
(0.267959 0.339414 -0.00100527)
(0.23295 0.357118 -0.00106407)
(0.197355 0.374918 -0.00112077)
(0.161349 0.39223 -0.00117583)
(0.124911 0.408548 -0.00122842)
(0.0889403 0.423455 -0.00127839)
(0.0519259 0.43685 -0.00133187)
(0.0200114 0.449611 -0.00138399)
(3 1.78923e-08 0.000294452)
(3 9.22508e-08 0.000279216)
(3 2.64888e-07 0.000264104)
(3 5.52827e-07 0.000249116)
(3 8.78833e-07 0.000234253)
(3 2.94189e-07 0.000219527)
(2.99999 -1.71767e-06 0.00020495)
(2.99998 -9.48607e-06 0.000190572)
(2.99994 -1.71251e-05 0.00017639)
(2.99985 -5.9364e-05 0.000162803)
(2.99967 -9.65025e-05 0.000149694)
(2.99921 -0.000336675 0.000139478)
(2.99855 -0.000482195 0.000127927)
(2.99369 -0.00175653 0.000168091)
(2.98952 0.000101364 0.000153256)
(2.95125 0.00136394 0.000611094)
(2.88364 0.0153491 0.000953644)
(2.66321 0.0329534 0.00315252)
(1.94978 0.110353 0.00652254)
(1.04478 0.283629 0.00643682)
(0.562052 0.210227 0.00226568)
(0.680259 0.183379 -0.000571511)
(0.776641 0.183603 -0.000535207)
(0.788492 0.189587 -0.000153006)
(0.766259 0.19513 -2.60516e-05)
(0.73427 0.201784 -2.27445e-05)
(0.705331 0.20875 -8.40167e-05)
(0.68304 0.215824 -0.000160429)
(0.662815 0.222945 -0.000214124)
(0.642014 0.230173 -0.000256286)
(0.6203 0.23754 -0.000297789)
(0.597907 0.245073 -0.000341194)
(0.574837 0.252865 -0.00038578)
(0.550902 0.261069 -0.000430707)
(0.525919 0.2699 -0.000476087)
(0.499729 0.279601 -0.000521939)
(0.472229 0.290394 -0.000568359)
(0.443441 0.302466 -0.00061539)
(0.413418 0.315961 -0.000662882)
(0.382224 0.330948 -0.000710389)
(0.35001 0.34741 -0.000758471)
(0.316837 0.365248 -0.000808082)
(0.282553 0.384213 -0.00085857)
(0.247138 0.403827 -0.0009077)
(0.210702 0.423509 -0.000955028)
(0.173361 0.442634 -0.00100098)
(0.135132 0.460519 -0.00104685)
(0.0967931 0.476578 -0.00109116)
(0.056863 0.490687 -0.00113052)
(0.0218056 0.503538 -0.00117981)
(3 2.6524e-08 0.000245734)
(3 5.65993e-08 0.000232991)
(3 2.49248e-07 0.000220355)
(3 3.9988e-07 0.000207825)
(3 5.46832e-07 0.000195407)
(3 -9.64819e-09 0.000183106)
(2.99999 -4.77409e-07 0.000170951)
(2.99997 -2.35062e-06 0.000158942)
(2.99991 1.36662e-06 0.000147281)
(2.9998 -5.95663e-06 0.00013595)
(2.99948 2.10648e-05 0.000125913)
(2.99886 -1.28431e-05 0.000117211)
(2.99733 9.85117e-05 0.000110692)
(2.99386 -0.000452569 0.000126386)
(2.99209 0.00378268 0.000111001)
(2.95882 -0.00424175 0.000446837)
(2.90607 0.0309201 0.000659712)
(2.71245 -0.00620301 0.00232709)
(2.10217 0.0972646 0.0047247)
(1.1746 0.181241 0.00639033)
(0.588033 0.176866 0.00231694)
(0.696696 0.198115 -0.000518011)
(0.791299 0.207639 -0.000490946)
(0.800541 0.212127 -0.000143133)
(0.776418 0.216064 -2.92428e-05)
(0.743277 0.222605 -2.48809e-05)
(0.71245 0.230034 -7.08766e-05)
(0.688446 0.237309 -0.000133582)
(0.667222 0.244552 -0.000179361)
(0.646047 0.252134 -0.000215238)
(0.624328 0.260197 -0.000249878)
(0.602173 0.268768 -0.000285822)
(0.579563 0.277908 -0.00032279)
(0.556313 0.287737 -0.000360044)
(0.53224 0.298423 -0.000397564)
(0.50716 0.310151 -0.000435649)
(0.480937 0.323099 -0.000473695)
(0.453549 0.33741 -0.000511629)
(0.424986 0.353199 -0.000550111)
(0.395215 0.370522 -0.000588709)
(0.364284 0.389369 -0.000627234)
(0.332181 0.409666 -0.000667124)
(0.298669 0.431199 -0.000708499)
(0.263619 0.453468 -0.000749158)
(0.227018 0.475864 -0.000787518)
(0.188722 0.497748 -0.000824303)
(0.148613 0.518327 -0.0008588)
(0.107459 0.536759 -0.000894071)
(0.0637442 0.552528 -0.000931535)
(0.0245573 0.5661 -0.000967119)
(3 1.26606e-08 0.000194969)
(3 6.07721e-08 0.000184835)
(3 2.06427e-07 0.000174789)
(3 2.50376e-07 0.00016483)
(3 2.8157e-07 0.000154961)
(3 4.1097e-07 0.000145185)
(2.99999 1.48319e-06 0.000135516)
(2.99998 6.70029e-06 0.000125953)
(2.99994 1.85901e-05 0.000116591)
(2.99988 5.62179e-05 0.000107396)
(2.9997 0.000134268 9.88832e-05)
(2.99935 0.00034266 9.12442e-05)
(2.99837 0.000753432 8.63848e-05)
(2.99716 0.00166308 8.30051e-05)
(2.98713 0.0044448 0.000145854)
(2.97759 -0.00364345 0.000158526)
(2.88987 0.0221156 0.000862818)
(2.71565 -0.0246415 0.00136165)
(2.27165 0.0468672 0.00400768)
(1.08599 0.0721925 0.00548254)
(0.499563 0.157249 0.00188282)
(0.629212 0.219356 -0.000349963)
(0.730107 0.225058 -0.000326342)
(0.750632 0.227236 -0.000106241)
(0.738731 0.231311 -3.15492e-05)
(0.715537 0.239778 -2.67978e-05)
(0.690779 0.248988 -5.63858e-05)
(0.670959 0.257262 -0.000104371)
(0.653433 0.265203 -0.000142467)
(0.635571 0.273525 -0.000172328)
(0.616664 0.282489 -0.000200146)
(0.59691 0.292158 -0.000228549)
(0.576476 0.30261 -0.000257623)
(0.555337 0.313984 -0.000286933)
(0.533403 0.32644 -0.000316368)
(0.510554 0.340137 -0.000346239)
(0.486675 0.355217 -0.000376332)
(0.461724 0.371794 -0.000406094)
(0.435644 0.389975 -0.000435689)
(0.40833 0.409839 -0.000465549)
(0.379721 0.431401 -0.000495368)
(0.349704 0.454695 -0.000525413)
(0.317918 0.479571 -0.000556457)
(0.284066 0.505488 -0.000587433)
(0.247999 0.531947 -0.000616933)
(0.209353 0.558194 -0.000645486)
(0.167619 0.583252 -0.000673024)
(0.123342 0.606029 -0.00069721)
(0.0745634 0.62566 -0.000722357)
(0.0288505 0.641429 -0.000754766)
(3 5.52585e-09 0.000142059)
(3 4.76173e-08 0.000134658)
(3 1.44197e-07 0.000127322)
(3 2.03511e-07 0.000120053)
(3 1.12518e-07 0.000112851)
(3 -1.06504e-07 0.000105718)
(2.99999 1.05009e-07 9.86627e-05)
(2.99998 2.01805e-06 9.16838e-05)
(2.99995 6.86037e-06 8.48427e-05)
(2.9999 2.09017e-05 7.81139e-05)
(2.99974 5.16731e-05 7.18623e-05)
(2.99944 9.71874e-05 6.61098e-05)
(2.99856 0.000203984 6.22584e-05)
(2.99754 0.000403706 5.98859e-05)
(2.98797 0.000660754 0.000103212)
(2.9788 0.00193891 0.000110956)
(2.9028 0.00163843 0.00054901)
(2.75289 0.0194944 0.000869034)
(2.35057 0.0418761 0.00273174)
(1.17849 0.111768 0.0040251)
(0.550184 0.219201 0.00147247)
(0.599306 0.248971 -9.66777e-05)
(0.672023 0.237394 -0.000164778)
(0.704653 0.236556 -9.15276e-05)
(0.702974 0.241561 -3.83097e-05)
(0.686987 0.250965 -2.93711e-05)
(0.665242 0.261821 -4.08486e-05)
(0.647839 0.27161 -7.46679e-05)
(0.633635 0.281163 -0.000104425)
(0.619459 0.291145 -0.000127429)
(0.604061 0.301747 -0.000147982)
(0.587517 0.313041 -0.000168644)
(0.570107 0.325146 -0.000189703)
(0.551929 0.338239 -0.00021092)
(0.532953 0.352528 -0.00023215)
(0.513102 0.3682 -0.00025347)
(0.492301 0.385432 -0.000274878)
(0.470505 0.404356 -0.000296261)
(0.447634 0.425112 -0.000317564)
(0.423545 0.447866 -0.000338722)
(0.398174 0.47253 -0.000359974)
(0.371309 0.499286 -0.00038176)
(0.342302 0.528322 -0.000403153)
(0.310912 0.559123 -0.000424056)
(0.276751 0.59127 -0.000444056)
(0.238842 0.62412 -0.000463029)
(0.196295 0.65681 -0.000480914)
(0.148739 0.687889 -0.000499053)
(0.0933449 0.71568 -0.000515721)
(0.0374666 0.738154 -0.000534757)
(3 -5.13276e-09 8.6904e-05)
(3 4.21876e-08 8.23652e-05)
(3 7.0918e-08 7.78681e-05)