/*--------------------------------*- C++ -*----------------------------------*\
| =========                 |                                                 |
| \\      /  F ield         | OpenFOAM: The Open Source CFD Toolbox           |
|  \\    /   O peration     | Version:  2112                                  |
|   \\  /    A nd           | Website:  www.openfoam.com                      |
|    \\/     M anipulation  |                                                 |
\*---------------------------------------------------------------------------*/
FoamFile
{
    version     2.0;
    format      ascii;
    arch        "LSB;label=32;scalar=64";
    class       volScalarField;
    location    "41";
    object      p;
}
// * * * * * * * * * * * * * * * * * * * * * * * * * * * * * * * * * * * * * //

dimensions      [0 2 -2 0 0 0 0];

internalField   nonuniform List<scalar> 
400
(
3.8027093e-09
-0.0006728718
-0.0013853495
-0.0019427077
-0.002220001
-0.0021564976
-0.0017277925
-0.00092620156
0.0002354187
0.0017074031
0.0033872839
0.0051121942
0.0066734754
0.0078490981
0.0084583833
0.0084236768
0.0078133901
0.0068445125
0.0058612962
0.0052989418
0.00065784283
-4.0524458e-05
-0.00056965808
-0.00094062372
-0.0011108616
-0.0010399197
-0.00070578883
-9.5543237e-05
0.00078910002
0.0019161847
0.0032095818
0.0045547005
0.0057819601
0.0067162554
0.0072144227
0.0072145267
0.0067699526
0.0060527671
0.0053105252
0.0047384837
0.0014237002
0.00044065058
-0.00011659923
-0.00045324214
-0.00061480729
-0.00058481044
-0.00034658032
0.00011974189
0.00082845658
0.0017699011
0.002894284
0.0040981574
0.0052282371
0.0061109763
0.0065938742
0.006597668
0.0061557381
0.0054215081
0.0045937408
0.0037482269
0.0020141949
0.00068168502
1.6768745e-05
-0.0003588536
-0.00057154948
-0.00062656016
-0.00051008433
-0.00019063409
0.00036849708
0.0011843795
0.0022299048
0.0034174182
0.0045913605
0.0055569411
0.0061235577
0.006166564
0.0056836207
0.0048170467
0.0037472851
0.0024735897
0.0021672653
0.00049611456
-0.00029626174
-0.00074870764
-0.0010582552
-0.0012452722
-0.0012927506
-0.0011513051
-0.00075505541
-5.3108106e-05
0.00095701369
0.0022102692
0.0035446953
0.0047326523
0.0055218366
0.0057098797
0.0052292823
0.0042015983
0.0028061751
0.0009839515
0.001653956
-0.00031448412
-0.0012387917
-0.0017993046
-0.0022526658
-0.0026279131
-0.0028986241
-0.0029910851
-0.0028025418
-0.0022376865
-0.0012511096
0.00013087429
0.0017446263
0.0033270914
0.0045416289
0.0050657681
0.0047174875
0.0035661904
0.0017895829
-0.00072593296
0.0002870184
-0.0019195767
-0.0029730039
-0.003671387
-0.0043203014
-0.0049532063
-0.0055301259
-0.0059479574
-0.0060590069
-0.0057073876
-0.0047757264
-0.0032587108
-0.0012665269
0.00090715961
0.0028231108
0.003986824
0.0040250849
0.0028876982
0.00071536736
-0.0026805127
-0.0020764359
-0.0044511986
-0.0056268107
-0.0064923287
-0.0073929262
-0.0083657701
-0.0093569298
-0.010231789
-0.010790973
-0.010804844
-0.010063366
-0.0084617701
-0.0060407793
-0.0030832324
-0.00012632298
0.0021126083
0.0029638139
0.0021355686
-0.00036604757
-0.0048726241
-0.0055241738
-0.0079921206
-0.0092779278
-0.010333797
-0.011538006
-0.012935425
-0.01446272
-0.015956334
-0.017162475
-0.017766039
-0.017438088
-0.015919484
-0.013122973
-0.0092517759
-0.0048990254
-0.0010300325
0.0012693942
0.0012777486
-0.0013339728
-0.0072016921
-0.01007692
-0.012565102
-0.013936671
-0.015184012
-0.016718391
-0.018602635
-0.020774215
-0.023048788
-0.025121711
-0.026586371
-0.026969367
-0.025812961
-0.022845698
-0.01807447
-0.012051111
-0.0059519714
-0.0013707558
0.00030057803
-0.0019472183
-0.00938224
-0.015684998
-0.018132422
-0.019537562
-0.020926815
-0.022757751
-0.025129893
-0.027997027
-0.031166432
-0.034291504
-0.036876882
-0.038294202
-0.037844306
-0.035065881
-0.029601493
-0.02182252
-0.012985596
-0.0051849932
-0.00071576698
-0.001764215
-0.010792271
-0.022243613
-0.024613051
-0.025945603
-0.027334964
-0.029324169
-0.032079244
-0.035588964
-0.039664679
-0.043927306
-0.047801337
-0.05053022
-0.05123651
-0.048956905
-0.043143572
-0.033769039
-0.021926364
-0.010036902
-0.0014154609
-9.8826622e-06
-0.010225635
-0.029641234
-0.031923914
-0.032978765
-0.034079881
-0.035939514
-0.038831526
-0.042795635
-0.047651611
-0.052990563
-0.058163618
-0.062284279
-0.064265562
-0.062875186
-0.057112212
-0.046476766
-0.031649109
-0.015037881
-0.0008644063
0.0046467484
-0.0055215517
-0.037866026
-0.040048532
-0.040440165
-0.040752542
-0.042015056
-0.044653073
-0.048758212
-0.054144086
-0.060356061
-0.066665376
-0.072060717
-0.075268311
-0.074811389
-0.069269292
-0.05762833
-0.039961529
-0.018247989
0.0027890233
0.014445144
0.0069075352
-0.047230611
-0.049134374
-0.048140605
-0.046882335
-0.046905524
-0.048798707
-0.052668311
-0.058276042
-0.065076132
-0.072232027
-0.078595798
-0.082712349
-0.082880235
-0.077309415
-0.06452396
-0.043934974
-0.016748004
0.012502935
0.032938773
0.032408943
-0.058896818
-0.059639901
-0.055883921
-0.051941086
-0.049972354
-0.050629903
-0.05392867
-0.059495367
-0.066611889
-0.074285327
-0.081191198
-0.085679433
-0.085831823
-0.079522218
-0.064876121
-0.040689285
-0.0072409343
0.032139361
0.064981441
0.077749173
-0.076226543
-0.072613774
-0.063516175
-0.055435382
-0.050725047
-0.04978163
-0.05231237
-0.057664392
-0.064891847
-0.072775
-0.079779396
-0.084036776
-0.083391682
-0.075348986
-0.057602695
-0.028375158
0.012933316
0.065396467
0.1155515
0.15150622
-0.10809225
-0.089556423
-0.07123386
-0.057233
-0.049072137
-0.046330236
-0.048077291
-0.053202633
-0.06043465
-0.068295893
-0.075027423
-0.078526944
-0.076389035
-0.065809701
-0.043865502
-0.0078184656
0.044393657
0.11299814
0.18838042
0.27186076
-0.17684552
-0.10828977
-0.076202557
-0.054651277
-0.042992401
-0.038998051
-0.040570536
-0.045928071
-0.053441566
-0.061438387
-0.068027615
-0.070962588
-0.067551162
-0.054739861
-0.029148837
0.013563583
0.078146945
0.17006435
0.28949546
0.47421821
-0.37208352
-0.12470851
-0.054973103
-0.031962547
-0.022063582
-0.020300545
-0.024359482
-0.031958027
-0.041261589
-0.050640916
-0.058316931
-0.062187494
-0.059782583
-0.048056837
-0.022658552
0.021474189
0.092818707
0.21015276
0.40288841
0.77640928
)
;

boundaryField
{
    movingWall
    {
        type            zeroGradient;
    }
    fixedWalls
    {
        type            zeroGradient;
    }
    frontAndBack
    {
        type            empty;
    }
}


// ************************************************************************* //
