/*--------------------------------*- C++ -*----------------------------------*\
| =========                 |                                                 |
| \\      /  F ield         | OpenFOAM: The Open Source CFD Toolbox           |
|  \\    /   O peration     | Version:  2112                                  |
|   \\  /    A nd           | Website:  www.openfoam.com                      |
|    \\/     M anipulation  |                                                 |
\*---------------------------------------------------------------------------*/
FoamFile
{
    version     2.0;
    format      ascii;
    arch        "LSB;label=32;scalar=64";
    class       surfaceScalarField;
    location    "105";
    object      phi;
}
// * * * * * * * * * * * * * * * * * * * * * * * * * * * * * * * * * * * * * //

dimensions      [0 3 -1 0 0 0 0];

oriented        oriented;

internalField   nonuniform List<scalar> 
27900
(
5.54926e-05
0.000899164
5.54217e-05
1.56121e-05
0.000965301
5.53054e-05
1.13297e-05
0.000960235
5.6784e-05
4.88297e-06
0.000954031
5.68596e-05
2.11725e-07
0.000951879
5.73155e-05
-4.61235e-06
0.000952448
5.75854e-05
-1.12012e-05
0.000954138
5.67848e-05
-1.5533e-05
0.000960354
5.66959e-05
-5.5156e-05
0.000965359
5.51842e-05
0.000899577
5.52094e-05
3.8671e-05
0.000849326
3.83148e-05
2.44416e-05
0.000951815
3.7406e-05
2.00502e-05
0.000951235
3.82069e-05
9.50057e-06
0.000942991
3.84267e-05
4.3537e-07
0.000939139
3.92108e-05
-8.8782e-06
0.000939796
3.9751e-05
-1.96513e-05
0.000943308
3.83729e-05
-2.41884e-05
0.000951724
3.80322e-05
-3.75999e-05
0.000952228
3.72005e-05
0.00085076
3.77124e-05
2.37546e-05
0.000809307
2.34915e-05
2.43355e-05
0.000931225
2.05018e-05
2.1542e-05
0.000944801
1.9774e-05
1.08534e-05
0.000940219
2.00281e-05
3.3129e-07
0.000936378
2.0306e-05
-1.02221e-05
0.000936497
2.03749e-05
-2.09551e-05
0.000940703
1.98883e-05
-2.39494e-05
0.000945634
1.94623e-05
-2.32798e-05
0.000932208
2.03053e-05
0.000811175
2.34152e-05
1.46016e-05
0.00078198
1.45035e-05
2.07371e-05
0.000910249
1.20771e-05
1.97229e-05
0.00093938
9.77885e-06
1.05724e-05
0.000941459
9.47478e-06
1.6915e-07
0.000939404
9.31047e-06
-1.01722e-05
0.000939547
8.75801e-06
-1.93104e-05
0.000941968
9.35925e-06
-2.04021e-05
0.000940303
9.53623e-06
-1.49964e-05
0.000911682
1.16205e-05
0.000783337
1.50524e-05
9.46676e-06
0.000765711
9.48879e-06
1.60657e-05
0.000894396
8.23022e-06
1.64002e-05
0.000935889
5.07941e-06
9.34701e-06
0.000945097
4.14629e-06
9.801e-08
0.000945724
3.79781e-06
-9.10796e-06
0.000945939
3.5229e-06
-1.6216e-05
0.000945584
4.16472e-06
-1.58987e-05
0.000936917
5.03145e-06
-9.73647e-06
0.000896354
7.40951e-06
0.000766782
9.66112e-06
6.23484e-06
0.000755463
6.34291e-06
1.17127e-05
0.000883559
5.25485e-06
1.27151e-05
0.000933616
2.94916e-06
7.62195e-06
0.000949195
1.83877e-06
7.931e-08
0.000952725
1.39505e-06
-7.45335e-06
0.000952901
1.32778e-06
-1.2657e-05
0.000949624
1.95051e-06
-1.17456e-05
0.000934632
3.09712e-06
-6.43049e-06
0.000885535
5.14631e-06
0.000756593
6.24378e-06
4.18114e-06
0.00074822
4.2826e-06
8.30068e-06
0.000876112
3.02604e-06
9.41946e-06
0.000931728
1.79512e-06
5.86462e-06
0.000952426
7.68026e-07
9.5145e-08
0.000958613
3.16524e-07
-5.69285e-06
0.000958737
3.39362e-07
-9.38134e-06
0.000952815
9.23906e-07
-8.43058e-06
0.000932649
2.05194e-06
-4.38615e-06
0.000877605
3.66188e-06
0.000749476
4.1497e-06
2.91597e-06
0.000743026
2.94341e-06
5.84672e-06
0.000870754
2.16508e-06
6.78161e-06
0.000930172
1.13064e-06
4.35786e-06
0.000954732
2.56111e-07
1.45855e-07
0.00096308
-1.56008e-07
-4.11076e-06
0.000963196
-1.04498e-07
-6.69208e-06
0.000955125
4.09736e-07
-5.93386e-06
0.000931046
1.38262e-06
-3.05815e-06
0.000871907
2.60223e-06
0.000744341
2.82859e-06
2.06285e-06
0.000739369
2.04549e-06
4.08739e-06
0.000866985
1.61511e-06
4.80367e-06
0.000929056
7.39149e-07
3.19034e-06
0.000956386
3.1603e-08
2.2358e-07
0.000966396
-3.16755e-07
-2.81064e-06
0.000966538
-2.66532e-07
-4.6089e-06
0.000956841
1.57569e-07
-4.08445e-06
0.000929958
9.26743e-07
-2.13209e-06
0.000868015
1.82793e-06
0.000740792
1.93655e-06
1.46119e-06
0.000736797
1.43489e-06
2.84657e-06
0.000864367
1.17953e-06
3.39673e-06
0.00092824
4.77262e-07
2.36021e-06
0.000957538
-6.3779e-08
3.26628e-07
0.000968792
-3.46106e-07
-1.79361e-06
0.000968991
-2.97298e-07
-3.04734e-06
0.000958123
3.17955e-08
-2.71412e-06
0.000929284
5.93218e-07
-1.4352e-06
0.00086545
1.24222e-06
0.00073843
1.28312e-06
1.05834e-06
0.000734944
1.02339e-06
2.03181e-06
0.000862509
8.89288e-07
2.46993e-06
0.000927396
6.61833e-07
1.82832e-06
0.000958197
2.46629e-08
4.60213e-07
0.000970253
4.0673e-08
-1.00663e-06
0.000970688
-1.8848e-07
-1.91351e-06
0.000959042
2.01489e-08
-1.74254e-06
0.00092873
7.10245e-07
-1.12574e-06
0.00086379
9.15629e-07
0.000736725
1.00291e-06
8.08878e-07
0.000733536
7.64512e-07
1.53926e-06
0.000861072
7.37451e-07
1.91508e-06
0.000926327
1.04071e-06
1.55062e-06
0.000958407
1.73268e-07
6.56027e-07
0.000970825
5.81997e-07
-3.57905e-07
0.000971798
-6.31183e-08
-1.06231e-06
0.000959664
8.89616e-08
-1.03882e-06
0.000928134
1.01714e-06
-9.76564e-07
0.000862774
7.11072e-07
0.000735458
8.75823e-07
6.68748e-07
0.000732364
6.33755e-07
1.26172e-06
0.000859829
6.39904e-07
1.63906e-06
0.000925408
7.21438e-07
1.50775e-06
0.000958336
2.23159e-07
9.57439e-07
0.000971131
3.68075e-07
2.54314e-07
0.000972532
7.37497e-09
-3.09642e-07
0.000960158
1.03778e-07
-4.30462e-07
0.000927918
6.0746e-07
-4.77871e-07
0.000862262
4.65137e-07
0.000734872
4.09365e-07
6.35108e-07
0.000731211
6.04042e-07
1.21245e-06
0.000858658
6.00195e-07
1.65704e-06
0.000924608
5.03231e-07
1.71302e-06
0.000958086
2.27343e-07
1.40801e-06
0.000971314
2.04762e-07
9.11662e-07
0.000973018
2.33003e-08
4.09688e-07
0.000960606
6.2008e-08
1.13118e-07
0.000928108
2.79958e-07
-6.89342e-08
0.000862228
2.10881e-07
0.000734936
2.80846e-08
9.02923e-07
0.000729619
8.68057e-07
1.37424e-06
0.000857403
6.31055e-07
1.97133e-06
0.000923922
8.4164e-08
2.21479e-06
0.000957746
1.20929e-07
2.10081e-06
0.0009715
-1.63906e-07
1.70189e-06
0.000973185
3.094e-07
1.16812e-06
0.000960894
3.70936e-07
6.83434e-07
0.000928778
-2.02582e-07
2.86833e-07
0.000862741
-1.08808e-07
0.000735554
-2.97565e-07
1.39918e-06
0.00072736
1.32643e-06
1.80444e-06
0.000855965
7.03055e-07
2.64018e-06
0.000923121
-3.14185e-08
3.08822e-06
0.000957231
9.87937e-08
3.14087e-06
0.000971781
-5.60805e-07
2.76014e-06
0.000973044
7.69281e-07
2.07767e-06
0.000961083
7.79087e-07
1.3116e-06
0.000929949
-4.29417e-07
4.36227e-07
0.000863847
-3.10861e-07
0.000736624
-4.4384e-07
1.44887e-06
0.000724836
1.25912e-06
2.51791e-06
0.000854058
7.79538e-07
3.69683e-06
0.000921431
7.37287e-07
4.41979e-06
0.000956318
1.71851e-07
4.65004e-06
0.00097175
-2.89751e-07
4.2836e-06
0.000973326
1.0558e-07
3.36336e-06
0.000961922
6.18053e-08
2.14329e-06
0.000931271
6.36995e-08
8.14948e-07
0.000865729
-5.62378e-07
0.000738471
-8.27683e-07
1.56576e-06
0.000721748
1.18794e-06
3.47471e-06
0.000851287
1.00019e-06
5.16694e-06
0.000919016
7.81152e-07
6.39204e-06
0.000954805
2.57339e-07
6.87479e-06
0.00097115
1.78875e-07
6.50557e-06
0.000974135
-6.33406e-07
5.29528e-06
0.000963703
-7.98349e-07
3.44738e-06
0.000933425
-3.13966e-07
1.83971e-06
0.000868703
-1.05852e-06
0.000741801
-1.82347e-06
2.60749e-06
0.00071705
2.05205e-06
4.91053e-06
0.000847215
1.86416e-06
7.36034e-06
0.00091562
9.68166e-07
9.31401e-06
0.000952264
7.03076e-07
1.01849e-05
0.000969729
7.78319e-07
9.76494e-06
0.000974697
-1.35118e-07
8.06743e-06
0.000965849
-4.00184e-07
5.30961e-06
0.000936766
-6.66733e-07
2.65113e-06
0.000873099
-1.33302e-06
0.000746896
-2.56932e-06
4.03198e-06
0.000710177
3.33554e-06
6.94527e-06
0.000841375
2.87778e-06
1.05476e-05
0.000911009
9.23677e-07
1.35422e-05
0.000948463
1.08348e-06
1.50438e-05
0.000967934
2.54014e-07
1.4623e-05
0.000974905
3.90678e-07
1.22399e-05
0.000968414
5.41785e-08
8.17482e-06
0.00094189
-1.38826e-06
4.23288e-06
0.000879628
-1.817e-06
0.00075477
-3.90904e-06
5.04047e-06
0.00070104
4.15137e-06
9.6527e-06
0.000833875
2.77404e-06
1.5038e-05
0.00090488
5.54189e-07
1.96161e-05
0.000943613
2.93354e-07
2.21471e-05
0.000965777
-6.41133e-07
2.18836e-05
0.000975513
-4.34323e-07
1.8618e-05
0.000972552
-9.728e-07
1.27028e-05
0.000949918
-2.63612e-06
6.87684e-06
0.000890074
-3.81326e-06
0.000766946
-6.02588e-06
6.51237e-06
0.000689028
5.20673e-06
1.34957e-05
0.000823958
2.79234e-06
2.14575e-05
0.000896029
8.05472e-07
2.84139e-05
0.000936982
-5.67989e-07
3.25854e-05
0.000962326
-9.16481e-07
3.27239e-05
0.000976582
-1.56737e-06
2.82656e-05
0.000978905
-2.26888e-06
1.96181e-05
0.000961616
-3.49413e-06
1.03594e-05
0.000906397
-6.33732e-06
0.000785324
-8.60526e-06
9.13885e-06
0.000672863
7.16972e-06
1.88286e-05
0.000810021
3.89488e-06
3.04692e-05
0.000883332
1.04809e-06
4.09907e-05
0.000927003
-7.14099e-07
4.77949e-05
0.00095661
-1.30511e-06
4.88646e-05
0.000977214
-2.01687e-06
4.29929e-05
0.000987308
-2.88582e-06
3.03892e-05
0.000978292
-4.64439e-06
1.5988e-05
0.000930754
-8.64e-06
0.000813227
-1.23761e-05
1.23419e-05
0.000651433
9.58743e-06
2.58081e-05
0.00079087
5.17694e-06
4.27195e-05
0.000865494
1.0575e-06
5.85744e-05
0.000912197
-1.17702e-06
6.96661e-05
0.00094734
-2.09122e-06
7.27955e-05
0.000976496
-2.77787e-06
6.56133e-05
0.000997811
-3.78325e-06
4.75583e-05
0.0010017
-6.24518e-06
2.54062e-05
0.000966858
-1.17302e-05
0.000855912
-1.7667e-05
1.60374e-05
0.00062387
1.24332e-05
3.46338e-05
0.000765182
6.38075e-06
5.89338e-05
0.000840818
6.33636e-07
8.26706e-05
0.000890664
-2.33496e-06
0.000100668
0.000932567
-3.55979e-06
0.000108011
0.0009729
-4.22138e-06
0.000100373
0.00101004
-5.24619e-06
7.52005e-05
0.00103373
-8.32924e-06
4.12928e-05
0.00102019
-1.57664e-05
0.000921993
-2.46438e-05
2.00596e-05
0.00058958
1.56801e-05
4.53431e-05
0.000731557
7.3346e-06
7.97578e-05
0.000807265
-5.23119e-07
0.000114902
0.000859935
-4.55707e-06
0.000143782
0.000909439
-6.16149e-06
0.000159172
0.000963657
-6.7704e-06
0.000153581
0.00102224
-7.56789e-06
0.000120094
0.00107538
-1.09282e-05
6.85673e-05
0.00109742
-2.04976e-05
0.00102481
-3.31184e-05
2.40281e-05
0.000548489
1.92385e-05
5.76501e-05
0.000688813
7.78539e-06
0.000105493
0.000762692
-2.88403e-06
0.000156697
0.000817004
-8.42221e-06
0.000202242
0.000874038
-1.06172e-05
0.000232184
0.000944227
-1.1193e-05
0.000234576
0.00103031
-1.14314e-05
0.00019391
0.0011257
-1.41997e-05
0.000116596
0.00120811
-2.51563e-05
0.00119164
-4.16118e-05
2.72993e-05
0.000501307
2.29245e-05
7.08589e-05
0.000636148
7.29078e-06
0.000135863
0.00070511
-7.07779e-06
0.000208821
0.000758565
-1.47401e-05
0.00027882
0.00082142
-1.7962e-05
0.000333389
0.000907614
-1.87986e-05
0.000355531
0.0010253
-1.83781e-05
0.000315122
0.0011758
-1.91548e-05
0.000202502
0.00134891
-2.86051e-05
0.00145719
-4.74955e-05
2.91055e-05
0.000449754
2.64954e-05
8.39956e-05
0.000573602
5.30813e-06
0.00017001
0.000633107
-1.38619e-05
0.000271065
0.00068163
-2.44379e-05
0.000375184
0.00074624
-2.94154e-05
0.00046912
0.0008448
-3.1347e-05
0.000534444
0.000993404
-3.12226e-05
0.000521658
0.00121244
-2.96163e-05
0.000371454
0.00152975
-2.77051e-05
0.00194097
-4.08253e-05
2.89582e-05
2.95407e-05
0.00039634
9.6388e-05
1.09437e-06
0.00050175
0.000206908
-2.40066e-05
0.000546135
0.000341917
-3.82072e-05
0.000583992
0.0004897
-4.56482e-05
0.00064299
0.000639459
-4.97415e-05
0.000743028
0.000776765
-5.16769e-05
0.000905458
0.000854735
-5.10644e-05
0.0011676
0.000656859
-3.97122e-05
0.00157757
-2.32914e-05
0.00231292
5.73359e-05
0.000963547
1.56477e-05
1.32496e-05
0.00103441
1.3081e-05
1.06682e-05
0.00102833
1.30882e-05
4.23509e-06
0.00102234
1.33032e-05
-1.033e-08
0.00102033
1.36041e-05
-4.18928e-06
0.00102021
1.39254e-05
-1.04875e-05
0.00102216
1.32893e-05
-1.28522e-05
0.00102782
1.30396e-05
-5.52813e-05
0.00103349
1.28664e-05
0.000965257
1.56403e-05
3.95929e-05
0.000948866
2.44061e-05
2.27435e-05
0.00104781
2.23586e-05
1.95929e-05
0.00104571
2.22033e-05
8.71774e-06
0.0010383
2.30085e-05
-2.0264e-07
0.00103453
2.38435e-05
-8.79293e-06
0.00103364
2.44222e-05
-1.92161e-05
0.00103763
2.31632e-05
-2.21762e-05
0.00104412
2.22777e-05
-3.72547e-05
0.00104539
2.2187e-05
0.000952048
2.44594e-05
1.90113e-05
0.000929273
2.41265e-05
2.10796e-05
0.00102997
2.10325e-05
1.93488e-05
0.00104073
2.01428e-05
9.94372e-06
0.00103829
2.07915e-05
-1.29035e-07
0.00103534
2.13437e-05
-1.00625e-05
0.00103472
2.13424e-05
-1.91568e-05
0.00103739
2.07826e-05
-2.08707e-05
0.00103884
2.00648e-05
-1.98745e-05
0.00102747
2.0954e-05
0.000932215
2.42261e-05
1.01955e-05
0.000909689
2.06174e-05
1.65321e-05
0.00100905
1.67695e-05
1.64451e-05
0.00103143
1.46339e-05
9.38582e-06
0.00103553
1.44128e-05
7.0605e-08
0.00103497
1.44698e-05
-9.24566e-06
0.00103459
1.43487e-05
-1.62268e-05
0.0010347
1.43156e-05
-1.63704e-05
0.00103008
1.4488e-05
-1.10339e-05
0.00100789
1.65772e-05
0.000911969
2.05374e-05
6.41423e-06
0.000895031
1.60921e-05
1.22858e-05
0.000994074
1.26493e-05
1.30482e-05
0.00102471
9.7857e-06
7.90986e-06
0.00103457
8.68895e-06
1.95525e-07
0.00103672
8.30964e-06
-7.53949e-06
0.00103642
8.23846e-06
-1.27127e-05
0.00103389
8.63755e-06
-1.21271e-05
0.00102383
9.69007e-06
-6.98281e-06
0.000993846
1.23659e-05
0.000896842
1.5865e-05
4.59837e-06
0.000884513
1.18805e-05
8.96385e-06
0.000983398
9.2382e-06
9.78893e-06
0.00101977
6.48067e-06
6.15261e-06
0.00103443
4.99429e-06
2.47535e-07
0.00103916
4.37131e-06
-5.69415e-06
0.00103895
4.34526e-06
-9.45195e-06
0.00103397
5.00974e-06
-8.84918e-06
0.00101936
6.46953e-06
-4.95459e-06
0.000983734
9.04284e-06
0.00088609
1.15915e-05
3.46626e-06
0.000876699
8.48327e-06
6.43705e-06
0.000975737
6.51993e-06
7.06714e-06
0.0010162
4.24021e-06
4.56559e-06
0.0010346
2.76751e-06
2.70685e-07
0.00104146
2.0888e-06
-4.08097e-06
0.00104135
2.09815e-06
-6.76645e-06
0.0010344
2.83272e-06
-6.33468e-06
0.00101627
4.3091e-06
-3.60439e-06
0.000976551
6.48187e-06
0.000878138
8.23397e-06
2.56313e-06
0.000870991
5.92803e-06
4.54628e-06
0.000970491
4.50698e-06
5.00796e-06
0.00101382
2.73949e-06
3.31288e-06
0.0010349
1.47832e-06
2.9418e-07
0.00104338
8.57911e-07
-2.79081e-06
0.00104337
8.88658e-07
-4.6862e-06
0.00103497
1.563e-06
-4.43055e-06
0.00101428
2.84667e-06
-2.59126e-06
0.00097163
4.56003e-06
0.00087238
5.75868e-06
1.85443e-06
0.000867021
4.08891e-06
3.1877e-06
0.000967018
3.08932e-06
3.53147e-06
0.00101226
1.76439e-06
2.40372e-06
0.00103522
7.69997e-07
3.36982e-07
0.00104485
2.62306e-07
-1.80189e-06
0.00104493
2.97595e-07
-3.13113e-06
0.00103552
8.52031e-07
-3.01237e-06
0.00101303
1.86628e-06
-1.81385e-06
0.000968341
3.15246e-06
0.000868416
3.96007e-06
1.32096e-06
0.000864306
2.81459e-06
2.23271e-06
0.000964692
2.12523e-06
2.50882e-06
0.00101122
1.14662e-06
1.7931e-06
0.00103546
4.01432e-07
4.16377e-07
0.00104588
1.7139e-08
-1.04605e-06
0.00104607
4.5952e-08
-1.98e-06
0.00103599
4.64995e-07
-1.94811e-06
0.00101228
1.21479e-06
-1.19861e-06
0.000966193
2.13834e-06
0.00086579
2.65607e-06
9.18122e-07
0.000862434
1.96574e-06
1.57366e-06
0.000963091
1.51165e-06
1.84186e-06
0.00101052
8.36953e-07
1.43803e-06
0.00103562
2.65793e-07
5.61362e-07
0.00104661
3.053e-09
-4.44489e-07
0.00104689
-1.41235e-08
-1.1282e-06
0.0010364
2.83672e-07
-1.141e-06
0.0010119
8.44185e-07
-7.44377e-07
0.000964885
1.45278e-06
0.000864121
1.73981e-06
6.30549e-07
0.000861073
1.43884e-06
1.14048e-06
0.000961926
1.14516e-06
1.4535e-06
0.00101
7.04284e-07
1.30094e-06
0.00103572
2.62076e-07
7.82021e-07
0.00104715
8.56731e-08
8.0014e-08
0.00104751
2.16848e-08
-4.41903e-07
0.0010368
2.195e-07
-4.975e-07
0.00101182
6.29917e-07
-3.63552e-07
0.000964162
9.99397e-07
0.000863165
1.10077e-06
5.43011e-07
0.000859962
1.1483e-06
1.01794e-06
0.000960986
9.46514e-07
1.37335e-06
0.0010095
6.22639e-07
1.38528e-06
0.00103568
2.85596e-07
1.09299e-06
0.00104746
1.45428e-07
6.00685e-07
0.00104793
7.01834e-08
1.65207e-07
0.00103713
1.83809e-07
1.06357e-08
0.0010119
4.42667e-07
-3.946e-08
0.000963876
6.35939e-07
0.000862742
6.02135e-07
6.32871e-07
0.000858907
1.02712e-06
1.15539e-06
0.000960077
8.5817e-07
1.57067e-06
0.00100886
5.6826e-07
1.70332e-06
0.00103545
3.01165e-07
1.55482e-06
0.00104754
1.68822e-07
1.20573e-06
0.00104822
9.51563e-08
8.00721e-07
0.00103745
1.39587e-07
4.8832e-07
0.0010121
2.5756e-07
2.47582e-07
0.000963941
3.0401e-07
0.000862731
1.71844e-07
9.24918e-07
0.000857672
1.06436e-06
1.53721e-06
0.000959089
8.51993e-07
2.05745e-06
0.00100806
5.04503e-07
2.28721e-06
0.00103501
2.91076e-07
2.2219e-06
0.00104747
1.41132e-07
1.99147e-06
0.0010485
1.33689e-07
1.59901e-06
0.00103791
1.20655e-07
1.05426e-06
0.00101256
3.65385e-08
5.44813e-07
0.000964394
-3.28059e-08
0.000863175
-2.54202e-07
1.69138e-06
0.000855903
1.27974e-06
2.22432e-06
0.000957935
9.6489e-07
2.92261e-06
0.00100708
5.4099e-07
3.26963e-06
0.00103436
2.95141e-07
3.26856e-06
0.00104726
1.12258e-07
3.0886e-06
0.00104882
1.5772e-07
2.61449e-06
0.00103858
8.89297e-08
1.77694e-06
0.00101339
-1.5706e-07
8.9055e-07
0.000965397
-3.82882e-07
0.000864168
-7.20069e-07
2.52365e-06
0.000853361
1.61658e-06
3.04645e-06
0.000956349
1.14994e-06
4.13236e-06
0.00100581
6.77436e-07
4.81304e-06
0.00103347
3.37679e-07
4.9766e-06
0.00104689
1.06314e-07
4.69077e-06
0.00104908
5.9488e-08
3.95094e-06
0.00103946
-7.88712e-08
2.7882e-06
0.00101477
-3.78619e-07
1.49973e-06
0.000967067
-8.13448e-07
0.000865909
-1.31529e-06
2.46989e-06
0.0008504
2.03546e-06
4.12813e-06
0.000954072
1.45473e-06
5.79338e-06
0.00100393
8.63911e-07
7.02111e-06
0.00103215
4.12083e-07
7.51381e-06
0.00104635
1.34787e-07
7.11399e-06
0.00104934
-1.08632e-07
5.93213e-06
0.00104065
-3.58607e-07
4.22947e-06
0.00101688
-7.33344e-07
2.37463e-06
0.000969694
-1.43837e-06
0.000868708
-2.18003e-06
2.81338e-06
0.000846835
2.75612e-06
5.77086e-06
0.000950874
2.02784e-06
8.21068e-06
0.00100114
1.12964e-06
1.01623e-05
0.0010302
5.44273e-07
1.11047e-05
0.00104557
1.64745e-07
1.07203e-05
0.00104982
-2.15746e-07
9.05327e-06
0.00104252
-6.16436e-07
6.46521e-06
0.00102005
-1.22475e-06
3.64367e-06
0.000973745
-2.24124e-06
0.000873072
-3.38761e-06
4.48356e-06
0.000841607
3.88546e-06
8.28057e-06
0.000946424
2.74921e-06
1.18744e-05
0.000997058
1.39515e-06
1.48076e-05
0.00102722
6.20427e-07
1.6328e-05
0.00104422
6.45925e-08
1.60261e-05
0.00105052
-3.66856e-07
1.37789e-05
0.00104536
-9.4766e-07
9.90746e-06
0.00102481
-1.96133e-06
5.62994e-06
0.00097994
-3.41906e-06
0.000879787
-5.11899e-06
6.80368e-06
0.000834001
5.29746e-06
1.20296e-05
0.00094
3.46938e-06
1.72935e-05
0.000991017
1.60077e-06
2.16773e-05
0.00102255
4.94399e-07
2.40979e-05
0.00104181
-2.32931e-07
2.38936e-05
0.0010511
-7.82637e-07
2.07678e-05
0.0010492
-1.59042e-06
1.5054e-05
0.00103166
-3.06518e-06
8.5237e-06
0.00098922
-5.26745e-06
0.000889997
-7.66615e-06
9.82296e-06
0.000823282
7.05671e-06
1.7201e-05
0.000930707
4.31765e-06
2.49294e-05
0.000982265
1.78008e-06
3.15465e-05
0.00101554
2.0028e-07
3.5475e-05
0.00103787
-7.27564e-07
3.55905e-05
0.00105134
-1.47813e-06
3.13193e-05
0.00105427
-2.56069e-06
2.30182e-05
0.00104154
-4.57939e-06
1.30378e-05
0.00100302
-7.86555e-06
0.000905543
-1.13347e-05
1.3665e-05
0.000808484
9.33103e-06
2.41294e-05
0.000917668
5.47287e-06
3.54654e-05
0.000969817
1.94663e-06
4.54617e-05
0.00100528
-2.47896e-07
5.18819e-05
0.00103169
-1.46195e-06
5.29126e-05
0.00105095
-2.42341e-06
4.74159e-05
0.00106099
-3.81988e-06
3.55467e-05
0.00105576
-6.55433e-06
2.03908e-05
0.00102376
-1.12946e-05
0.000929416
-1.64612e-05
1.86487e-05
0.000788583
1.22146e-05
3.33881e-05
0.00089957
6.89132e-06
4.98362e-05
0.000952177
1.95393e-06
6.4865e-05
0.000990257
-1.04055e-06
7.53297e-05
0.00102186
-2.62948e-06
7.83987e-05
0.00104904
-3.78048e-06
7.18837e-05
0.00106939
-5.47942e-06
5.52102e-05
0.00107575
-9.08468e-06
3.22951e-05
0.00105476
-1.57187e-05
0.000966451
-2.33764e-05
2.4942e-05
0.000762323
1.56946e-05
4.5426e-05
0.000874706
8.34486e-06
6.89943e-05
0.000927371
1.52287e-06
9.14085e-05
0.000968237
-2.54124e-06
0.000108353
0.0010061
-4.59398e-06
0.000115516
0.00104368
-5.88548e-06
0.000108925
0.00107861
-7.76568e-06
8.62495e-05
0.00110272
-1.22434e-05
5.17817e-05
0.00110061
-2.1222e-05
0.00102483
-3.22821e-05
3.25618e-05
0.000728472
1.96676e-05
6.0549e-05
0.000841121
9.57095e-06
9.38012e-05
0.000893008
2.47109e-07
0.000126811
0.000936253
-5.26528e-06
0.000153887
0.000981073
-7.92142e-06
0.000168747
0.0010315
-9.28561e-06
0.000164609
0.00108618
-1.105e-05
0.000135475
0.00113678
-1.60575e-05
8.41787e-05
0.00116685
-2.75364e-05
0.00111784
-4.28999e-05
4.1422e-05
0.00068618
2.39206e-05
7.88089e-05
0.00079678
1.01816e-05
0.000124801
0.000846301
-2.45829e-06
0.000172541
0.00089062
-9.94262e-06
0.000214946
0.000942062
-1.34747e-05
0.000243511
0.00100702
-1.49012e-05
0.000247473
0.00108677
-1.60956e-05
0.000213882
0.00117533
-2.06565e-05
0.000139022
0.00126244
-3.387e-05
0.00127533
-5.38042e-05
5.1176e-05
0.000635094
2.80796e-05
9.9887e-05
0.000739841
9.54992e-06
0.000162046
0.000784283
-7.37295e-06
0.000229464
0.000827056
-1.75393e-05
0.000294027
0.00088298
-2.2444e-05
0.000345324
0.000961816
-2.41869e-05
0.000368248
0.00106991
-2.45176e-05
0.000338304
0.00120834
-2.68489e-05
0.000232534
0.00138039
-3.86006e-05
0.00153342
-6.19659e-05
6.15632e-05
0.000575613
3.15839e-05
0.000123481
0.000668947
6.85407e-06
0.000205318
0.00070415
-1.54395e-05
0.000297746
0.000741122
-2.90977e-05
0.000392488
0.00079685
-3.61175e-05
0.000478883
0.000884832
-3.89579e-05
0.000542046
0.00101932
-3.90554e-05
0.000535667
0.00121725
-3.76279e-05
0.000404503
0.00154542
-3.93542e-05
0.00201926
-6.04747e-05
7.28049e-05
3.35663e-05
0.000508467
0.000149753
9.97913e-07
0.000583306
0.000254581
-2.75886e-05
0.00060349
0.000377013
-4.53202e-05
0.000628608
0.000509761
-5.50795e-05
0.000676131
0.00064499
-6.00328e-05
0.000761195
0.000774576
-6.14552e-05
0.000903344
0.000843091
-5.81547e-05
0.00113088
0.000632772
-4.51792e-05
0.00155031
-4.80788e-05
0.00242476
5.71682e-05
0.000959766
1.13404e-05
1.31419e-05
0.0010283
1.05672e-05
1.06232e-05
0.00102274
1.05628e-05
4.37719e-06
0.00101718
1.099e-05
-2.99e-09
0.00101539
1.12389e-05
-4.35617e-06
0.00101549
1.13058e-05
-1.05662e-05
0.00101728
1.10443e-05
-1.29874e-05
0.00102266
1.05923e-05
-5.66342e-05
0.00102779
1.04322e-05
0.000960347
1.13728e-05
3.86839e-05
0.000950233
1.99314e-05
2.23647e-05
0.00104559
1.92769e-05
1.97235e-05
0.00104445
1.95645e-05
9.12574e-06
0.00103836
2.03041e-05
-1.33675e-07
0.00103543
2.09026e-05
-9.32526e-06
0.00103544
2.11109e-05
-1.97409e-05
0.00103831
2.04156e-05
-2.22826e-05
0.00104382
1.96273e-05
-3.79679e-05
0.00104399
1.914e-05
0.000951686
2.00367e-05
1.97962e-05
0.000943729
2.13352e-05
2.02568e-05
0.0010405
1.93055e-05
1.88286e-05
0.00105215
1.87675e-05
9.84457e-06
0.00105153
1.92193e-05
-1.7078e-07
0.00104975
1.96263e-05
-1.01143e-05
0.00104962
1.96471e-05
-1.87846e-05
0.00105112
1.91538e-05
-2.00538e-05
0.00105102
1.86363e-05
-1.91449e-05
0.00103862
1.9143e-05
0.000945755
2.13685e-05
9.44504e-06
0.000938687
1.96522e-05
1.45857e-05
0.00103121
1.65625e-05
1.4803e-05
0.00105244
1.48379e-05
8.57655e-06
0.00105776
1.45398e-05
1.4845e-08
0.00105836
1.45421e-05
-8.50465e-06
0.00105815
1.44564e-05
-1.45517e-05
0.00105713
1.44079e-05
-1.42723e-05
0.00105127
1.46533e-05
-8.99726e-06
0.00102992
1.63349e-05
0.000940715
1.95634e-05
4.62386e-06
0.000935723
1.65122e-05
9.63222e-06
0.00102456
1.32141e-05
1.06969e-05
0.00105133
1.07688e-05
6.64312e-06
0.00106114
9.716e-06
1.9533e-07
0.00106411
9.32738e-06
-6.23909e-06
0.00106387
9.2528e-06
-1.02621e-05
0.00106048
9.60755e-06
-9.32291e-06
0.00105031
1.05931e-05
-4.55814e-06
0.00102383
1.29151e-05
0.00093756
1.62996e-05
2.6817e-06
0.000933796
1.289e-05
6.34607e-06
0.00101971
9.9288e-06
7.35993e-06
0.00104976
7.41682e-06
4.78337e-06
0.00106286
6.00104e-06
3.0067e-07
0.00106776
5.38374e-06
-4.20362e-06
0.00106755
5.34889e-06
-6.87223e-06
0.00106231
5.9549e-06
-6.07077e-06
0.00104907
7.31835e-06
-2.78313e-06
0.00101952
9.70083e-06
0.000935355
1.26384e-05
1.74853e-06
0.000931981
9.53142e-06
4.1875e-06
0.00101621
7.11601e-06
4.93964e-06
0.00104837
4.94052e-06
3.32803e-06
0.00106369
3.52955e-06
3.4875e-07
0.00106998
2.8612e-06
-2.67806e-06
0.00106984
2.85622e-06
-4.45293e-06
0.00106335
3.53544e-06
-3.95592e-06
0.00104809
4.92568e-06
-1.86311e-06
0.00101655
7.03674e-06
0.000933354
9.34143e-06
1.1922e-06
0.000930356
6.81073e-06
2.76655e-06
0.00101386
4.95476e-06
3.2942e-06
0.00104738
3.21907e-06
2.30101e-06
0.00106413
2.01032e-06
3.74804e-07
0.00107135
1.41012e-06
-1.61109e-06
0.0010713
1.42157e-06
-2.79161e-06
0.00106403
2.04639e-06
-2.53557e-06
0.00104749
3.25802e-06
-1.24647e-06
0.00101462
4.97244e-06
0.000931687
6.6893e-06
8.43136e-07
0.000929124
4.76683e-06
1.86178e-06
0.00101234
3.39708e-06
2.23286e-06
0.0010467
2.08034e-06
1.63345e-06
0.00106436
1.13269e-06
4.10107e-07
0.00107218
6.51501e-07
-8.77728e-07
0.00107221
6.68461e-07
-1.66733e-06
0.0010645
1.17855e-06
-1.56029e-06
0.00104716
2.13682e-06
-7.91041e-07
0.00101341
3.4414e-06
0.000930506
4.67092e-06
6.16949e-07
0.000928241
3.30532e-06
1.30131e-06
0.00101133
2.34516e-06
1.58319e-06
0.00104621
1.36977e-06
1.24208e-06
0.00106445
6.5879e-07
4.79629e-07
0.00107267
2.98184e-07
-3.54511e-07
0.00107279
3.10678e-07
-8.93932e-07
0.00106481
6.93669e-07
-8.7818e-07
0.00104699
1.40499e-06
-4.44426e-07
0.00101268
2.34818e-06
0.000929778
3.18853e-06
4.64258e-07
0.000927586
2.31754e-06
9.64043e-07
0.00101061
1.67808e-06
1.22135e-06
0.00104584
9.79756e-07
1.06568e-06
0.00106447
4.45676e-07
6.09722e-07
0.00107298
1.89264e-07
6.06875e-08
0.00107317
1.77375e-07
-3.28974e-07
0.00106506
4.45938e-07
-3.71919e-07
0.00104696
9.63711e-07
-1.67629e-07
0.0010123
1.60863e-06
0.000929416
2.15049e-06
3.90652e-07
0.000927054
1.69715e-06
8.08294e-07
0.00101005
1.27077e-06
1.08493e-06
0.00104556
7.84121e-07
1.07245e-06
0.00106444
3.74243e-07
8.22655e-07
0.00107318
1.96058e-07
4.50501e-07
0.00107344
1.53311e-07
1.41421e-07
0.0010653
3.27442e-07
4.32487e-08
0.00104708
6.98722e-07
7.03928e-08
0.0010122
1.10982e-06
0.000929333
1.43478e-06
4.31767e-07
0.000926541
1.32918e-06
8.5078e-07
0.00100956
1.02203e-06
1.17054e-06
0.00104525
6.60477e-07
1.26696e-06
0.00106433
3.48915e-07
1.15051e-06
0.00107328
2.07398e-07
8.86099e-07
0.00107365
1.55951e-07
6.03766e-07
0.00106554
2.5445e-07
4.17704e-07
0.00104729
4.84426e-07
2.84549e-07
0.0010123
7.19304e-07
0.000929465
8.78552e-07
5.93873e-07
0.000925936
1.14148e-06
1.08684e-06
0.00100902
8.79929e-07
1.48321e-06
0.00104483
5.81503e-07
1.67757e-06
0.00106412
3.38253e-07
1.65104e-06
0.00107328
2.08576e-07
1.4452e-06
0.00107382
1.56205e-07
1.14181e-06
0.00106582
1.94108e-07
8.22826e-07
0.0010476
2.91412e-07
5.0903e-07
0.0010126
3.7813e-07
0.000929784
4.01209e-07
8.93876e-07
0.000925112
1.12444e-06
1.53319e-06
0.00100836
8.28757e-07
2.05733e-06
0.00104426
5.29748e-07
2.35676e-06
0.00106376
3.24403e-07
2.39852e-06
0.00107318
1.91293e-07
2.22504e-06
0.00107401
1.62466e-07
1.8619e-06
0.0010662
1.47021e-07
1.34367e-06
0.00104807
9.45652e-08
7.86518e-07
0.00101313
4.8416e-08
0.000930347
-4.9705e-08
1.41286e-06
0.000923868
1.25764e-06
2.2316e-06
0.00100751
9.16009e-07
2.96734e-06
0.00104348
5.62675e-07
3.41906e-06
0.00106323
3.34389e-07
3.53591e-06
0.00107297
1.72596e-07
3.35689e-06
0.00107424
1.56087e-07
2.86761e-06
0.00106677
8.37346e-08
2.07764e-06
0.00104882
-1.02333e-07
1.18203e-06
0.00101404
-2.92525e-07
0.000931267
-5.1624e-07
2.05437e-06
0.000922022
1.50101e-06
3.20787e-06
0.00100628
1.1426e-06
4.29124e-06
0.00104241
7.01696e-07
5.02119e-06
0.00106245
3.81659e-07
5.27367e-06
0.00107263
1.6795e-07
5.03212e-06
0.00107446
6.55895e-08
4.30125e-06
0.00106753
-8.44424e-08
3.13488e-06
0.00105
-3.38918e-07
1.78009e-06
0.00101546
-7.04292e-07
0.000932706
-1.0953e-06
2.7826e-06
0.000919511
1.90327e-06
4.56664e-06
0.00100444
1.43336e-06
6.18485e-06
0.0010408
8.70634e-07
7.35885e-06
0.00106128
4.51038e-07
7.84988e-06
0.00107212
1.70386e-07
7.53642e-06
0.00107469
-7.16834e-08
6.44348e-06
0.00106855
-3.34422e-07
4.7083e-06
0.00105174
-7.05009e-07
2.68197e-06
0.00101761
-1.29126e-06
0.000934902
-1.92558e-06
3.87457e-06
0.000916117
2.58242e-06
6.52977e-06
0.00100176
1.87357e-06
8.93844e-06
0.00103839
1.0978e-06
1.07605e-05
0.00105952
5.49988e-07
1.16154e-05
0.00107133
1.69977e-07
1.12718e-05
0.00107503
-1.88424e-07
9.71577e-06
0.00107008
-5.94039e-07
7.13161e-06
0.00105433
-1.1964e-06
4.07238e-06
0.0010209
-2.07734e-06
0.000938265
-3.0559e-06
5.5781e-06
0.000911324
3.55082e-06
9.41909e-06
0.00099794
2.47475e-06
1.29873e-05
0.00103481
1.34575e-06
1.57564e-05
0.00105681
6.05982e-07
1.7154e-05
0.00106999
6.45767e-08
1.6825e-05
0.00107542
-3.83003e-07
1.4658e-05
0.00107231
-9.68915e-07
1.08283e-05
0.00105814
-1.9164e-06
6.20341e-06
0.00102589
-3.20992e-06
0.000943431
-4.66294e-06
8.07254e-06
0.000904381
4.71905e-06
1.36117e-05
0.00099232
3.10279e-06
1.88772e-05
0.00102944
1.5503e-06
2.30581e-05
0.00105257
5.21075e-07
2.53194e-05
0.00106764
-2.04572e-07
2.5081e-05
0.00107563
-7.95783e-07
2.20784e-05
0.00107528
-1.61686e-06
1.64569e-05
0.00106363
-2.98554e-06
9.46251e-06
0.00103333
-4.92468e-06
0.000951339
-7.0249e-06
1.15374e-05
0.000894407
6.16831e-06
1.95022e-05
0.00098405
3.86834e-06
2.72399e-05
0.00102149
1.76439e-06
3.35515e-05
0.00104606
3.15674e-07
3.72335e-05
0.00106375
-6.27483e-07
3.73264e-05
0.00107535
-1.43135e-06
3.3287e-05
0.00107914
-2.53711e-06
2.51464e-05
0.00107151
-4.42064e-06
1.45744e-05
0.00104446
-7.28662e-06
0.000963579
-1.03394e-05
1.61929e-05
0.00088047
8.08961e-06
2.75679e-05
0.000972153
4.95874e-06
3.887e-05
0.0010099
1.99494e-06
4.83901e-05
0.00103626
-2.02477e-08
5.44107e-05
0.00105744
-1.26495e-06
5.53916e-05
0.00107408
-2.29399e-06
5.02592e-05
0.001084
-3.72812e-06
3.86653e-05
0.00108273
-6.28831e-06
2.27224e-05
0.00106131
-1.03685e-05
0.000982859
-1.4828e-05
2.2314e-05
0.000861426
1.05555e-05
3.83913e-05
0.000955256
6.25756e-06
5.47661e-05
0.000993116
2.09986e-06
6.9065e-05
0.00102157
-6.5831e-07
7.88892e-05
0.00104721
-2.28864e-06
8.18327e-05
0.00107074
-3.54429e-06
7.58804e-05
0.00108957
-5.31398e-06
5.97582e-05
0.00109827
-8.68533e-06
3.58138e-05
0.00108671
-1.43252e-05
0.00101371
-2.07568e-05
3.01564e-05
0.000835901
1.34925e-05
5.25629e-05
0.000931539
7.54757e-06
7.60095e-05
0.000969041
1.83779e-06
9.73002e-05