/*--------------------------------*- C++ -*----------------------------------*\
| =========                 |                                                 |
| \\      /  F ield         | OpenFOAM: The Open Source CFD Toolbox           |
|  \\    /   O peration     | Version:  2112                                  |
|   \\  /    A nd           | Website:  www.openfoam.com                      |
|    \\/     M anipulation  |                                                 |
\*---------------------------------------------------------------------------*/
FoamFile
{
    version     2.0;
    format      ascii;
    arch        "LSB;label=32;scalar=64";
    class       volScalarField;
    location    "105";
    object      T;
}
// * * * * * * * * * * * * * * * * * * * * * * * * * * * * * * * * * * * * * //

dimensions      [0 0 0 1 0 0 0];

internalField   nonuniform List<scalar> 
10000
(
0.998128
1.00296
0.998195
0.998943
0.999079
0.998989
0.998945
0.998192
1.00291
0.99816
0.990582
0.99705
0.992635
0.993929
0.994205
0.99413
0.993929
0.992615
0.996858
0.990711
0.99178
0.996164
0.993165
0.993959
0.994189
0.994251
0.993982
0.993194
0.996058
0.991809
0.994612
0.997364
0.995492
0.995744
0.995827
0.995918
0.995792
0.995564
0.997476
0.99456
0.995883
0.997766
0.996808
0.996904
0.996925
0.996976
0.996946
0.996852
0.99794
0.99588
0.996445
0.997722
0.997267
0.997358
0.997376
0.997406
0.99739
0.997292
0.997832
0.996444
0.996947
0.99778
0.997542
0.997637
0.99766
0.997677
0.997656
0.997556
0.997814
0.996922
0.997343
0.99788
0.997768
0.997855
0.997886
0.997891
0.997862
0.997769
0.99789
0.997325
0.997598
0.997951
0.997907
0.997988
0.998021
0.99802
0.997987
0.997902
0.997956
0.997584
0.997759
0.997999
0.997992
0.998059
0.99809
0.998087
0.998055
0.997981
0.998002
0.997746
0.99787
0.998029
0.998026
0.998094
0.998107
0.998118
0.998093
0.998012
0.998053
0.99782
0.997951
0.998055
0.998041
0.998114
0.998107
0.998135
0.998116
0.998023
0.998099
0.99785
0.99801
0.998091
0.998084
0.998133
0.998133
0.998147
0.998127
0.998058
0.998104
0.997938
0.998053
0.998121
0.998115
0.998149
0.998154
0.998159
0.998139
0.998086
0.998102
0.998015
0.998061
0.99818
0.99816
0.998171
0.998189
0.998156
0.998128
0.998119
0.99811
0.998073
0.998021
0.998235
0.998183
0.998187
0.998215
0.998137
0.998104
0.99812
0.99812
0.998067
0.998071
0.998218
0.998167
0.998199
0.998208
0.998168
0.998141
0.998093
0.99809
0.998071
0.998194
0.998189
0.99819
0.998203
0.998187
0.998199
0.998171
0.998091
0.99801
0.998156
0.998171
0.99819
0.998212
0.998185
0.998157
0.998162
0.998119
0.998067
0.997924
0.998122
0.998055
0.998228
0.998252
0.99818
0.998188
0.998128
0.998064
0.998042
0.997783
0.9981
0.998073
0.998256
0.99829
0.998236
0.998243
0.998166
0.998079
0.997991
0.997632
0.998105
0.99805
0.998242
0.998283
0.998283
0.998257
0.998205
0.998078
0.99786
0.997403
0.997937
0.997754
0.998169
0.998214
0.99824
0.99823
0.998169
0.997995
0.997657
0.996925
0.997577
0.99716
0.997904
0.997985
0.99807
0.998112
0.998063
0.997851
0.99736
0.996126
0.99693
0.996015
0.997222
0.997412
0.997617
0.997765
0.997792
0.997592
0.996936
0.994862
0.995692
0.993748
0.995633
0.996061
0.996483
0.996844
0.99708
0.997051
0.996395
0.993076
0.993448
0.98923
0.992096
0.992973
0.993773
0.99453
0.995211
0.995692
0.995569
0.990622
0.988855
0.98038
0.984607
0.986205
0.987594
0.989013
0.990565
0.992321
0.994566
0.990431
0.984093
0.963596
0.969526
0.972079
0.974187
0.976464
0.979268
0.982919
0.989699
0.992011
0.979634
0.933392
0.941112
0.944463
0.947026
0.950067
0.954519
0.961905
0.979532
1.02972
1.06307
1.00288
1.0083
1.00333
1.00423
1.00442
1.00441
1.00423
1.00336
1.00821
1.0029
0.996786
1.00553
1.00108
1.00251
1.0029
1.00294
1.00251
1.0012
1.00547
0.99683
0.996163
1.00292
1.00037
1.001
1.00123
1.0012
1.00098
1.00045
1.00304
0.996076
0.99749
1.00149
1.00004
1.00007
1.00009
0.999996
1.00002
0.999968
1.00142
0.997543
0.997937
1.00013
0.999303
0.999202
0.999163
0.9991
0.999162
0.999211
1
0.998017
0.997832
0.999144
0.99876
0.998672
0.998618
0.998589
0.998652
0.998708
0.99912
0.997892
0.997786
0.998597
0.998479
0.998422
0.998377
0.998367
0.998415
0.998458
0.998674
0.997853
0.99786
0.998388
0.998342
0.998311
0.998283
0.998279
0.998309
0.998337
0.998456
0.997915
0.997934
0.998296
0.998272
0.998259
0.998247
0.998245
0.998259
0.998275
0.99834
0.997974
0.997987
0.998244
0.998232
0.998229
0.998231
0.998228
0.998231
0.998236
0.99827
0.998019
0.998035
0.998219
0.998247
0.998224
0.998259
0.998228
0.998221
0.998248
0.998248
0.998083
0.998083
0.998216
0.998291
0.998231
0.998307
0.998234
0.998223
0.998289
0.99825
0.998151
0.998114
0.998208
0.998262
0.998225
0.998277
0.998229
0.998219
0.998253
0.998223
0.998159
0.998128
0.998206
0.998235
0.998223
0.998244
0.99822
0.99821
0.998213
0.99819
0.998159
0.998158
0.998223
0.998189
0.998213
0.998192
0.998234
0.998227
0.998156
0.998154
0.998159
0.998164
0.998276
0.998174
0.998212
0.998144
0.998279
0.998269
0.998125
0.998134
0.998181
0.9981
0.998338
0.998258
0.998221
0.998164
0.99822
0.998197
0.998161
0.998104
0.998194
0.998088
0.99827
0.998267
0.998219
0.998202
0.998127
0.998087
0.998103
0.998013
0.998144
0.998147
0.99826
0.998289
0.998269
0.998273
0.998163
0.99811
0.998049
0.997952
0.998139
0.998165
0.998376
0.998303
0.998331
0.998244
0.998221
0.998147
0.997946
0.997846
0.998114
0.998018
0.998346
0.998261
0.998267
0.998151
0.998139
0.99802
0.997747
0.997528
0.998007
0.997768
0.998279
0.998273
0.998177
0.998122
0.998015
0.997848
0.997562
0.997103
0.997885
0.997482
0.998277
0.998272
0.998144
0.998094
0.997962
0.997739
0.997321
0.996592
0.997681
0.996935
0.998156
0.998146
0.99802
0.997977
0.997856
0.997578
0.996954
0.995787
0.997236
0.995845
0.997676
0.997704
0.997613
0.997623
0.997567
0.997276
0.996421
0.994509
0.996257
0.993685
0.996375
0.996523
0.996538
0.996698
0.996827
0.996681
0.995724
0.99269
0.99434
0.98937
0.993271
0.993682
0.993921
0.994392
0.99493
0.995284
0.994724
0.990098
0.990003
0.980872
0.986387
0.987254
0.987865
0.988879
0.990219
0.99178
0.993373
0.989814
0.98573
0.964557
0.972039
0.97351
0.974556
0.97627
0.978758
0.982023
0.988647
0.98932
0.980912
0.934691
0.944163
0.946024
0.947172
0.949418
0.953343
0.959947
0.978713
1.03038
1.0547
0.998207
1.00337
0.998075
0.998867
0.999053
0.99907
0.998845
0.998073
1.00337
0.998191
0.992632
1.00115
0.996224
0.997544
0.997988
0.998061
0.997574
0.996349
1.00122
0.992603
0.993182
1.00039
0.997464
0.997967
0.998288
0.998321
0.998025
0.99761
1.00043
0.993201
0.995503
1.00002
0.998682
0.998686
0.998798
0.998799
0.998717
0.998708
0.999912
0.995615
0.99681
0.999264
0.998797
0.998771
0.998789
0.998784
0.99878
0.998777
0.999156
0.996924
0.997272
0.998733
0.998666
0.998671
0.998655
0.998648
0.99867
0.998632
0.998674
0.997362
0.997554
0.998469
0.998543
0.99857
0.998555
0.998548
0.998564
0.998506
0.998442
0.99761
0.99778
0.998342
0.998436
0.998475
0.998472
0.998468
0.998466
0.998409
0.99833
0.997807
0.997916
0.998274
0.998356
0.998398
0.998405
0.998403
0.998391
0.99834
0.99827
0.997935
0.997991
0.998232
0.9983
0.998339
0.998353
0.998352
0.998335
0.99829
0.998232
0.998006
0.998043
0.998207
0.998266
0.998295
0.998316
0.998312
0.998294
0.998259
0.998207
0.998053
0.998083
0.998195
0.998246
0.998265
0.998291
0.998283
0.998265
0.998238
0.998193
0.998093
0.998108
0.998191
0.998234
0.998248
0.99827
0.998262
0.998246
0.998222
0.998182
0.998124
0.99812
0.998197
0.998232
0.998242
0.998255
0.998245
0.99823
0.99821
0.998174
0.998154
0.998125
0.998206
0.998226
0.99824
0.998239
0.998232
0.998216
0.99819
0.998163
0.998178
0.998126
0.998226
0.998225
0.998238
0.998227
0.998228
0.998206
0.99817
0.998145
0.998199
0.998121
0.998241
0.998232
0.998231
0.99822
0.998219
0.998191
0.998151
0.998115
0.998221
0.998098
0.998235
0.998239
0.998221
0.998212
0.998199
0.998167
0.998119
0.998063
0.998238
0.998059
0.998248
0.998258
0.998226
0.998208
0.99818
0.998141
0.998074
0.997999
0.998269
0.998005
0.998283
0.998285
0.998247
0.998207
0.998171
0.998112
0.998009
0.997902
0.998306
0.997902
0.998312
0.998314
0.998261
0.998208
0.998159
0.998069
0.997911
0.997733
0.998337
0.997724
0.998332
0.998337
0.998257
0.9982
0.998131
0.998
0.997767
0.99746
0.998346
0.997408
0.998308
0.998324
0.99822
0.998159
0.998074
0.997892
0.997543
0.997017
0.998267
0.996813
0.998164
0.998207
0.998091
0.998038
0.997955
0.997721
0.997206
0.996302
0.997978
0.995701
0.997722
0.997825
0.997726
0.997715
0.997682
0.997431
0.99672
0.995159
0.997195
0.993582
0.996552
0.996792
0.996767
0.996873
0.996997
0.996865
0.996063
0.99349
0.995495
0.989447
0.993736
0.994233
0.994374
0.994722
0.9952
0.995494
0.995056
0.991087
0.991437
0.981328
0.987361
0.988272
0.988686
0.989455
0.990595
0.991941
0.993514
0.990855
0.987926
0.965595
0.973764
0.975161
0.975839
0.977112
0.979139
0.981969
0.988245
0.989998
0.983818
0.936244
0.94662
0.948192
0.948699
0.950194
0.953267
0.959001
0.97657
1.03022
1.0597
0.998956
1.00425
0.998854
0.999669
0.999874
0.999876
0.999649
0.998835
1.00425
0.998936
0.993942
1.00252
0.997519
0.998789
0.999232
0.999259
0.998793
0.997581
1.00256
0.993878
0.993992
1.00098
0.997964
0.998335
0.998627
0.998652
0.998365
0.998064
1.00097
0.993979
0.995756
1.00006
0.9987
0.998595
0.998677
0.998689
0.998623
0.998735
0.99995
0.995868
0.996912
0.999195
0.998779
0.998702
0.998698
0.9987
0.998717
0.998776
0.999096
0.997044
0.997374
0.998662
0.998672
0.998681
0.998657
0.998657
0.998689
0.998656
0.998606
0.997481
0.997645
0.998414
0.998568
0.998631
0.998621
0.99862
0.998633
0.998548
0.998389
0.997725
0.997855
0.998306
0.998472
0.998553
0.998562
0.998561
0.998552
0.998457
0.998298
0.997911
0.997983
0.998258
0.998397
0.998476
0.998496
0.998496
0.998473
0.998387
0.998255
0.998025
0.998053
0.998232
0.998343
0.998412
0.998436
0.998436
0.998409
0.998335
0.99823
0.998089
0.9981
0.998216
0.998307
0.998361
0.998388
0.998385
0.998358
0.9983
0.998218
0.998129
0.998131
0.998209
0.998282
0.998323
0.998348
0.998344
0.998319
0.998275
0.998211
0.998158
0.998148
0.998207
0.998263
0.998293
0.998314
0.99831
0.99829
0.998253
0.998203
0.998181
0.998152
0.998208
0.99825
0.998272
0.998287
0.998283
0.998265
0.998234
0.998193
0.998199
0.998146
0.998214
0.998239
0.998256
0.998265
0.998262
0.998245
0.998215
0.998181
0.998215
0.998137
0.99822
0.998235
0.998246
0.998248
0.998247
0.998229
0.998197
0.998165
0.998232
0.998122
0.998225
0.99824
0.99824
0.998236
0.998232
0.998211
0.998177
0.998142
0.998255
0.998098
0.998226
0.998246
0.998234
0.998227
0.998215
0.998188
0.998148
0.998104
0.998281
0.998062
0.998239
0.998259
0.998235
0.998222
0.998202
0.998166
0.998109
0.998051
0.998318
0.998
0.998262
0.998277
0.998242
0.998217
0.998189
0.998138
0.998052
0.997966
0.998365
0.997881
0.998279
0.998294
0.998246
0.99821
0.998172
0.998095
0.997964
0.997818
0.998409
0.997679
0.998292
0.998309
0.998243
0.998198
0.998146
0.998032
0.997832
0.997573
0.998433
0.997356
0.998262
0.998302
0.998214
0.998162
0.998098
0.997938
0.997631
0.997173
0.99838
0.996778
0.998124
0.998206
0.998103
0.998057
0.997996
0.997787
0.997325
0.996512
0.998128
0.995709
0.997726
0.997865
0.997773
0.997761
0.997746
0.997515
0.996866
0.995429
0.997385
0.993689
0.996651
0.99692
0.996884
0.996965
0.997091
0.99696
0.996219
0.993813
0.995736
0.989741
0.994025
0.99453
0.994617
0.994891
0.995326
0.995571
0.99517
0.991511
0.991866
0.98194
0.987977
0.988844
0.989123
0.989724
0.990728
0.991943
0.993527
0.99121
0.988586
0.966622
0.97481
0.976071
0.976478
0.977417
0.979104
0.981591
0.987474
0.989839
0.984781
0.937501
0.947955
0.949239
0.949278
0.950197
0.952623
0.957672
0.974596
1.02921
1.06088
0.998948
1.00449
0.999069
0.999827
1.00004
1.00004
0.999814
0.999057
1.0045
0.998933
0.994058
1.00301
0.998052
0.999243
0.999664
0.999675
0.999247
0.998105
1.00306
0.994014
0.994331
1.00105
0.998284
0.998647
0.998934
0.998949
0.998672
0.998376
1.00106
0.994326
0.99594
0.999946
0.998776
0.998653
0.998727
0.99874
0.99868
0.998818
0.999866
0.996043
0.996975
0.999096
0.998771
0.998678
0.99866
0.998666
0.998692
0.998772
0.999013
0.997105
0.997401
0.998591
0.998641
0.998647
0.998613
0.998616
0.998656
0.998628
0.998539
0.99752
0.997669
0.998365
0.998545
0.998616
0.998602
0.998604
0.998621
0.99853
0.998341
0.99776
0.99788
0.998279
0.998463
0.99856
0.99857
0.99857
0.998561
0.998455
0.998269
0.997948
0.998008
0.998254
0.9984
0.998495
0.998519
0.998519
0.998495
0.998396
0.998242
0.998064
0.998083
0.998238
0.998356
0.998437
0.998466
0.998466
0.998436
0.998351
0.99823
0.998125
0.998131
0.998221
0.998326
0.998388
0.998416
0.998416
0.998385
0.998317
0.998224
0.998162
0.998156
0.998216
0.998301
0.998347
0.998373
0.998371
0.998343
0.998289
0.998219
0.998188
0.998167
0.998212
0.998278
0.998314
0.998335
0.998333
0.99831
0.998267
0.998211
0.998205
0.998165
0.998211
0.998256
0.998287
0.998304
0.998302
0.998282
0.998247
0.998202
0.998219
0.998153
0.998223
0.998241
0.998267
0.99828
0.998277
0.998259
0.998227
0.99819
0.998232
0.998142
0.998234
0.99824
0.998255
0.998261
0.998258
0.99824
0.998209
0.998176
0.998248
0.998132
0.998229
0.998249
0.998247
0.998246
0.99824
0.99822
0.998188
0.998155
0.998271
0.998111
0.998225
0.998257
0.998241
0.998236
0.998225
0.998199
0.99816
0.99812
0.998299
0.998068
0.998237
0.998266
0.998241
0.998228
0.998211
0.998177
0.998123
0.998068
0.998338
0.998001
0.998255
0.998276
0.998243
0.998222
0.998197
0.998149
0.998069
0.997986
0.998385
0.997867
0.998297
0.998293
0.998246
0.998215
0.99818
0.998107
0.997985
0.997846
0.998431
0.997649
0.998351
0.998312
0.998244
0.998201
0.998154
0.998046
0.997858
0.997611
0.99846
0.997357
0.998274
0.998302
0.998216
0.998166
0.998109
0.997956
0.997662
0.997221
0.998415
0.996805
0.998103
0.998209
0.998109
0.998063
0.99801
0.997808
0.997361
0.996568
0.99817
0.995744
0.997768
0.997886
0.997791
0.997774
0.997763
0.997536
0.996904
0.995493
0.997435
0.993782
0.996732
0.996976
0.99693
0.996992
0.997113
0.996977
0.996252
0.993883
0.995796
0.989936
0.994185
0.994659
0.994708
0.994939
0.99535
0.995567
0.995174
0.99159
0.991967
0.982312
0.988271
0.989087
0.989285
0.989793
0.990724
0.991862
0.993425
0.991229
0.988738
0.9672
0.975284
0.976449
0.976695
0.977451
0.978978
0.981316
0.987088
0.989577
0.984926
0.938133
0.948537
0.949614
0.949374
0.949984
0.952101
0.956858
0.973361
1.02808
1.05989
0.999089
1.00442
0.999043
0.999864
1.00008
1.00008
0.99985
0.99903
1.00443
0.999071
0.994204
1.00289
0.997967
0.999219
0.999662
0.999668
0.999221
0.998021
1.00295
0.99414
0.994174
1.00125
0.9983
0.99863
0.998914
0.998926
0.998653
0.998387
1.00126
0.994156
0.995818
1.00012
0.998816
0.998685
0.998755
0.998767
0.998708
0.998851
1.00003
0.995922
0.996929
0.999175
0.998793
0.998699
0.998679
0.998686
0.998711
0.998793
0.999089
0.997063
0.997382
0.998624
0.998653
0.998657
0.99862
0.998625
0.998664
0.998638
0.998566
0.997506
0.99766
0.998382
0.99855
0.99862
0.998605
0.998607
0.998624
0.998534
0.998349
0.997758
0.997858
0.998318
0.998467
0.998562
0.998571
0.998571
0.998562
0.998455
0.998271
0.997949
0.997971
0.998332
0.998406
0.998497
0.998521
0.99852
0.998495
0.998394
0.998242
0.998064
0.998081
0.99826
0.99836
0.998439
0.998467
0.998466
0.998436
0.99835
0.99823
0.998126
0.998157
0.998171
0.998324
0.998387
0.998416
0.998416
0.998385
0.998315
0.998224
0.998163
0.99817
0.998176
0.998297
0.998346
0.998371
0.99837
0.998343
0.998288
0.998219
0.998187
0.998174
0.998194
0.998272
0.998313
0.998334
0.998333
0.99831
0.998266
0.998211
0.998205
0.998156
0.998237
0.998256
0.998288
0.998304
0.998302
0.998282
0.998246
0.998202
0.998219
0.998109
0.998324
0.998251
0.998271
0.998281
0.998277
0.998259
0.998228
0.998192
0.998232
0.998102
0.998326
0.998252
0.998259
0.998263
0.998257
0.998239
0.998209
0.998176
0.99825
0.998144
0.998201
0.99825
0.998248
0.998248
0.998241
0.998221
0.998188
0.998155
0.998273
0.99815
0.99813
0.998249
0.99824
0.998236
0.998225
0.998201
0.998161
0.998121
0.998301
0.998094
0.99817
0.998254
0.998238
0.998227
0.998211
0.998178
0.998124
0.998069
0.998338
0.998008
0.998226
0.998267
0.99824
0.99822
0.998197
0.998148
0.998069
0.997986
0.998385
0.997879
0.998265
0.998288
0.998244
0.998214
0.998179
0.998108
0.997987
0.997847
0.998434
0.997682
0.998282
0.998309
0.998242
0.998202
0.998155
0.998048
0.99786
0.997615
0.998463
0.997366
0.998252
0.998304
0.998215
0.998167
0.998111
0.997957
0.997664
0.997224
0.998415
0.996798
0.998126
0.998214
0.998111
0.998064
0.998011
0.997809
0.997363
0.996571
0.998169
0.995755
0.99775
0.997891
0.997795
0.997776
0.997765
0.997538
0.996908
0.995496
0.997434
0.993787
0.996727
0.996986
0.996933
0.996995
0.997118
0.996982
0.996257
0.993893
0.995808
0.989944
0.994206
0.994676
0.994717
0.994948
0.99536
0.995579
0.995184
0.991587
0.991958
0.982322
0.988334
0.989124
0.989309
0.989814
0.990739
0.99186
0.993387
0.991266
0.988942
0.967232
0.975404
0.976521
0.976754
0.97751
0.979041
0.981402
0.987289
0.989622
0.984477
0.938233
0.948696
0.949749
0.949501
0.950109
0.952233
0.957009
0.973495
1.02848
1.06116
0.99893
1.00425
0.99886
0.999652
0.999853
0.99985
0.999636
0.998842
1.00425
0.998911
0.993891
1.00254
0.997556
0.998792
0.999227
0.99923
0.998789
0.997599
1.00259
0.993825
0.993948
1.00101
0.998005
0.998354
0.998641
0.99865
0.998372
0.998086
1.00101
0.993922
0.995778
1.00004
0.998703
0.99861
0.998692
0.998702
0.998629
0.998734
0.999947
0.995877
0.996939
0.999175
0.998769
0.998706
0.998701
0.998706
0.998716
0.998767
0.999082
0.997071
0.997383
0.998658
0.998664
0.998683
0.99866
0.998663
0.998689
0.998648
0.998598
0.997503
0.997644
0.99842
0.99856
0.99863
0.998622
0.998624
0.998632
0.998541
0.998384
0.997739
0.997842
0.998318
0.998462
0.998551
0.998562
0.998562
0.99855
0.998449
0.998294
0.997919
0.997969
0.998276
0.998389
0.998474
0.998495
0.998495
0.998471
0.99838
0.998254
0.998028
0.998049
0.998244
0.998342
0.998411
0.998437
0.998435
0.998408
0.998331
0.998232
0.998093
0.998101
0.998218
0.99831
0.998363
0.998387
0.998385
0.998358
0.998296
0.998219
0.998134
0.998137
0.99821
0.998285
0.998325
0.998346
0.998345
0.99832
0.998272
0.998212
0.998163
0.998153
0.998205
0.998263
0.998295
0.998312
0.998312
0.998291
0.998252
0.998204
0.998184
0.998147
0.99821
0.998244
0.998272
0.998286
0.998284
0.998266
0.998233
0.998194
0.998202
0.998131
0.998231
0.998234
0.998257
0.998267
0.998263
0.998245
0.998217
0.998183
0.998217
0.998125
0.99824
0.998237
0.998248
0.998252
0.998246
0.998228
0.998199
0.998167
0.998235
0.998128
0.998228
0.998247
0.998242
0.99824
0.998231
0.998211
0.998178
0.998143
0.998258
0.998121
0.99822
0.998254
0.998238
0.99823
0.998217
0.998191
0.99815
0.998108
0.998287
0.998062
0.998263
0.998265
0.998238
0.998224
0.998204
0.998168
0.998111
0.998054
0.998321
0.997966
0.998336
0.998284
0.998245
0.99822
0.99819
0.998138
0.998055
0.997966
0.998362
0.997874
0.998303
0.998302
0.998249
0.998213
0.998173
0.998096
0.997969
0.99782
0.998407
0.997714
0.998237
0.998317
0.998245
0.9982
0.998148
0.998035
0.997838
0.997581
0.998433
0.99739
0.998216
0.998308
0.998217
0.998165
0.998101
0.997941
0.997636
0.997182
0.998383
0.996802
0.998105
0.99821
0.998107
0.99806
0.998
0.997791
0.997331
0.99652
0.998135
0.995731
0.997718
0.997872
0.997781
0.997766
0.997751
0.99752
0.996877
0.995438
0.997393
0.993714
0.99666
0.996936
0.996898
0.996977
0.997101
0.99697
0.996235
0.993832
0.995746
0.989786
0.994059
0.994564
0.994647
0.994918
0.99535
0.995593
0.995196
0.991533
0.99187
0.982027
0.98806
0.98892
0.989194
0.989789
0.990778
0.991964
0.993561
0.991248
0.988616
0.966798
0.974995
0.976242
0.976643
0.977571
0.979242
0.981684
0.987593
0.989873
0.984677
0.937843
0.948318
0.949594
0.94963
0.950541
0.952951
0.957949
0.974796
1.02936
1.06077
0.998197
1.00336
0.998081
0.998856
0.99905
0.999048
0.998842
0.998068
1.00337
0.998178
0.992608
1.00118
0.996332
0.997575
0.998009
0.998018
0.997591
0.996403
1.00127
0.992555
0.993175
1.00045
0.997588
0.998042
0.998353
0.998369
0.99808
0.997705
1.0005
0.993161
0.995541
0.999989
0.998693
0.998711
0.998821
0.99883
0.998728
0.998726
0.999884
0.995632
0.996825
0.999217
0.998764
0.998759
0.998777
0.99878
0.998762
0.998755
0.999103
0.996949
0.997271
0.998706
0.998624
0.998648
0.998634
0.998635
0.998646
0.998596
0.998627
0.997377
0.997543
0.998464
0.998502
0.998547
0.998535
0.998534
0.998541
0.998469
0.998407
0.997617
0.997749
0.99834
0.998405
0.998457
0.998457
0.998455
0.99845
0.998378
0.998308
0.997809
0.997885
0.99828
0.998342
0.998388
0.998397
0.998395
0.998381
0.99832
0.998259
0.997932
0.99798
0.998249
0.998299
0.998339
0.998353
0.99835
0.998332
0.998282
0.998231
0.998009
0.998043
0.998218
0.99827
0.998303
0.998318
0.998317
0.998297
0.998256
0.998214
0.998067
0.998089
0.998202
0.998256
0.998279
0.998292
0.99829
0.998272
0.998239
0.998202
0.99811
0.998115
0.998195
0.998242
0.99826
0.998271
0.998269
0.998254
0.998224
0.99819
0.998142
0.998125
0.998201
0.998227
0.998246
0.998255
0.998252
0.998237
0.99821
0.998178
0.998167
0.998132
0.998227
0.998222
0.998238
0.998243
0.998238
0.998221
0.998195
0.998165
0.998189
0.998127
0.998242
0.998228
0.998234
0.998233
0.998225
0.998206
0.998178
0.998146
0.998209
0.998118
0.998235
0.998243
0.998234
0.998226
0.998214
0.998189
0.998156
0.998118
0.998228
0.99811
0.998229
0.998255
0.998232
0.998219
0.998201
0.998171
0.998124
0.998074
0.998249
0.998076
0.998254
0.998265
0.998234
0.998215
0.998188
0.998146
0.998079
0.998007
0.998276
0.998009
0.998303
0.998285
0.998244
0.998214
0.998174
0.998111
0.998013
0.997903
0.998306
0.997901
0.998321
0.998316
0.998252
0.998208
0.998155
0.998063
0.997914
0.997734
0.998333
0.997726
0.998319
0.998342
0.998251
0.998195
0.998124
0.997993
0.997765
0.997462
0.998334
0.997415
0.998294
0.99833
0.998219
0.998156
0.998072
0.997889
0.997542
0.997022
0.998256
0.996824
0.998154
0.998215
0.998098
0.998041
0.99796
0.997726
0.997213
0.996311
0.997983
0.99572
0.99772
0.997838
0.997741
0.997726
0.997693
0.997443
0.996737
0.995174
0.997217
0.993615
0.996571
0.996818
0.996794
0.996896
0.997019
0.996887
0.996092
0.993521
0.995548
0.989511
0.993791
0.99429
0.994426
0.994771
0.995245
0.995538
0.995106
0.991132
0.991532
0.981455
0.987488
0.988395
0.988801
0.989561
0.990686
0.992006
0.993598
0.990962
0.988162
0.965859
0.974032
0.975425
0.976095
0.977354
0.979365
0.982173
0.98854
0.99017
0.983936
0.936759
0.947155
0.948727
0.949231
0.950714
0.953771
0.959418
0.977111
1.03084
1.05996
1.0029
1.0082
1.00335
1.00423
1.00441
1.00441
1.00424
1.00337
1.00823
1.00288
0.996835
1.00544
1.00118
1.00253
1.00292
1.00293
1.00256
1.00126
1.00556
0.996773
0.996031
1.00309
1.00042
1.00099
1.00128
1.00128
1.00101
1.0005
1.0031
0.996
0.997421
1.00155
0.999924
0.999978
1.00007
1.00006
0.999954
0.999889
1.0013
0.997522
0.997927
1.00005
0.999154
0.99911
0.999111
0.999106
0.999086
0.999106
0.999885
0.998041
0.99786
0.999104
0.998667
0.998612
0.99858
0.998577
0.998599
0.998628
0.999059
0.99794
0.997803
0.998721
0.998443
0.998395
0.998358
0.998355
0.998385
0.998406
0.99865
0.997896
0.997909
0.998475
0.998332
0.998303
0.998276
0.998274
0.998296
0.998307
0.99845
0.997944
0.99802
0.998339
0.998277
0.99826
0.998245
0.998244
0.998254
0.998258
0.99834
0.997992
0.997992
0.998323
0.998246
0.998238
0.998234
0.998233
0.998232
0.99823
0.998275
0.99803
0.998008
0.99822
0.998222
0.998225
0.998228
0.998226
0.998221
0.998215
0.998237
0.998066
0.99809
0.998129
0.998213
0.998216
0.998222
0.998221
0.998214
0.998203
0.99821
0.998097
0.998125
0.998143
0.998207
0.998212
0.998218
0.998217
0.998208
0.998193
0.998187
0.998121
0.998143
0.998225
0.998206
0.998212
0.998216
0.998212
0.9982
0.998181
0.998165
0.998141
0.998134
0.99835
0.998216
0.998218
0.998216
0.998207
0.998191
0.998169
0.998143
0.998153
0.998093
0.99834
0.998223
0.998222
0.998215
0.998201
0.998181
0.998152
0.998116
0.998159
0.998112
0.998191
0.998232
0.998222
0.99821
0.998193
0.998166
0.998126
0.998076
0.998163
0.998163
0.998133
0.998246
0.998221
0.998205
0.998182
0.998145
0.998089
0.998017
0.998162
0.998153
0.998248
0.99827
0.998231
0.998206
0.99817
0.998117
0.998035
0.997929
0.998148
0.998096
0.998394
0.998305
0.998249
0.99821
0.998156
0.998077
0.997953
0.997788
0.998119
0.997995
0.998373
0.99833
0.99826
0.998206
0.998134
0.998019
0.99783
0.997568
0.998063
0.997838
0.998301
0.998347
0.998253
0.998189
0.998097
0.997935
0.997647
0.997223
0.997948
0.997559
0.998294
0.998327
0.998211
0.998142
0.998032
0.997812
0.997378
0.996679
0.997715
0.997006
0.998169
0.998186
0.998067
0.99801
0.9979
0.997622
0.996992
0.995832
0.997238
0.995915
0.997694
0.997738
0.997652
0.997652
0.997597
0.997305
0.996454
0.994526
0.996225
0.993762
0.996413
0.996568
0.996582
0.996733
0.996857
0.996706
0.995758
0.992693
0.994274
0.989491
0.993352
0.993765
0.993992
0.994454
0.994988
0.99532
0.994771
0.990071
0.989886
0.981083
0.986552
0.987419
0.988018
0.989019
0.990333
0.991836
0.993474
0.989815
0.985691
0.964955
0.972383
0.973849
0.97489
0.976583
0.979024
0.982257
0.988987
0.989124
0.980357
0.935408
0.944833
0.946695
0.947847
0.950057
0.953939
0.960401
0.979436
1.03028
1.05479
0.998171
1.0029
0.998205
0.998933
0.999073
0.999069
0.99892
0.998186
1.00289
0.998174
0.990751
0.996842
0.992608
0.993859
0.994128
0.99412
0.99383
0.992567
0.996779
0.990742
0.991771
0.996079
0.993171
0.993917
0.994101
0.994096
0.993902
0.993159
0.996
0.991784
0.994463
0.997568
0.995574
0.995829
0.995878
0.995887
0.99585
0.995621
0.997518
0.994574
0.995832
0.998047
0.996889
0.997024
0.997031
0.997042
0.99705
0.99694
0.998037
0.995927
0.996417
0.997901
0.997334
0.997462
0.997474
0.997483
0.997487
0.99737
0.997936
0.996484
0.996874
0.997871
0.997592
0.997708
0.997732
0.997737
0.997727
0.997609
0.997892
0.996951
0.997283
0.997941
0.997791
0.997897
0.997933
0.997936
0.997908
0.997802
0.99794
0.99735
0.997512
0.998002
0.997918
0.998014
0.998054
0.998056
0.998017
0.997927
0.997987
0.997611
0.997716
0.998026
0.998003
0.998084
0.998117
0.998116
0.99808
0.998003
0.998024
0.997775
0.997945
0.998021
0.998069
0.998127
0.998152
0.998152
0.998121
0.998056
0.998058
0.997889
0.998043
0.998044
0.998118
0.998153
0.998173
0.998173
0.998147
0.998094
0.998086
0.997973
0.998073
0.99809
0.998143
0.998168
0.998187
0.998186
0.998163
0.998121
0.998106
0.998034
0.998045
0.99816
0.99815
0.99818
0.998197
0.998194
0.998173
0.998139
0.998118
0.998082
0.997982
0.998248
0.99816
0.998195
0.998206
0.998199
0.998179
0.998148
0.998122
0.998116
0.998082
0.998244
0.998181
0.998207
0.998209
0.998199
0.998179
0.998147
0.998113
0.998135
0.998236
0.998176
0.998213
0.998214
0.998209
0.998194
0.998173
0.998139
0.998093
0.998142
0.99826
0.998175
0.99824
0.998221
0.998212
0.998192
0.998163
0.998121
0.998056
0.99814
0.99817
0.998239
0.998252
0.998231
0.998219
0.998192
0.998145
0.998089
0.997988
0.998121
0.998057
0.998322
0.998261
0.998246
0.998228
0.998189
0.998121
0.998035
0.997875
0.998079
0.998086
0.998291
0.998269
0.998257
0.998236
0.998181
0.998087
0.997951
0.997693
0.997994
0.998058
0.998201
0.998266
0.998254
0.998235
0.998167
0.998036
0.997823
0.997393
0.997829
0.997764
0.998123
0.998207
0.998213
0.998209
0.998135
0.997959
0.99763
0.996903
0.997509
0.997182
0.99788
0.997987
0.998064
0.998105
0.99805
0.997835
0.997347
0.996113
0.996891
0.996054
0.997221
0.997425
0.997631
0.997776
0.997798
0.997593
0.996943
0.994858
0.995672
0.993813
0.99566
0.996103
0.996524
0.996879
0.997108
0.997074
0.99643
0.993088
0.993453
0.989353
0.992183
0.993072
0.993865
0.994608
0.995282
0.995752
0.99565
0.990662
0.988894
0.980613
0.984803
0.986407
0.987785
0.989183
0.990716
0.99244
0.99475
0.990593
0.984283
0.964038
0.96994
0.972489
0.974584
0.976835
0.979602
0.983202
0.990093
0.992267
0.979792
0.934189
0.941888
0.945245
0.94781
0.950823
0.955232
0.962525
0.980307
1.03055
1.06301
0.882673
0.891475
0.89453
0.896187
0.898384
0.901871
0.907812
0.913328
0.960551
1.01039
0.804476
0.812484
0.812938
0.811211
0.810241
0.811212
0.816585
0.824246
0.856936
0.940639
0.695615
0.69997
0.694628
0.686375
0.679136
0.674939
0.676114
0.683729
0.701068
0.749499
0.560706
0.558711
0.545154
0.52827
0.512375
0.49961
0.491211
0.487609
0.487927
0.497375
0.413796
0.404876
0.383974
0.360314
0.3382
0.31912
0.303469
0.291054
0.281321
0.275836
0.275151
0.261749
0.238362
0.213994
0.191911
0.172873
0.156703
0.142895
0.131061
0.121805
0.162718
0.149129
0.128912
0.109386
0.0925373
0.0784815
0.0667283
0.0566935
0.048039
0.0411213
0.0848455
0.0743326
0.0604353
0.0479681
0.0378267
0.02978
0.023318
0.0180105
0.0136152
0.0103692
0.0388539
0.0323934
0.0246398
0.0181621
0.0132204
0.0095252
0.00673361
0.00457477
0.00293839
0.00194423
0.0156598
0.0124179
0.0088353
0.00603389
0.00403368
0.00263669
0.00166035
0.000967186
0.000511386
0.000330187
0.883541
0.894216
0.895299
0.895086
0.896133
0.898769
0.903878
0.906519
0.959057
1.00654
0.803081
0.813031
0.810904
0.806653
0.803851
0.803051
0.806859
0.811465
0.842254
0.933251
0.689256
0.695433
0.686958
0.6755
0.66559
0.658648
0.656923
0.661087
0.673066
0.721588
0.547179
0.546621
0.529936
0.509775
0.491062
0.475277
0.463247
0.455102
0.448971
0.451974
0.393696
0.385788
0.363012
0.337731
0.314301
0.293746
0.276175
0.261099
0.247602
0.237786
0.25295
0.240531
0.217363
0.193456
0.171941
0.153309
0.137223
0.122938
0.11006
0.0996356
0.143837
0.131328
0.112775
0.0950327
0.0797999
0.0670988
0.0563307
0.046855
0.0385576
0.0321467
0.0719354
0.0625522
0.050617
0.0400271
0.0314382
0.0246339
0.0190626
0.0143722
0.0104936
0.00795847
0.0315914
0.026046
0.0197584
0.0145654
0.0106067
0.00764358
0.00535624
0.00353014
0.00221948
0.001564
0.0122411
0.00956312
0.00679343
0.00465375
0.00312431
0.00204918
0.00128561
0.000717483
0.0003835
0.000285605
0.884699
0.896559
0.897024
0.895755
0.895614
0.896932
0.900215
0.899686
0.952569
1.00383
0.801526
0.812882
0.809737
0.80389
0.799268
0.796405
0.797451
0.799404
0.824833
0.918771
0.68127
0.688934
0.679179
0.665727
0.653431
0.643536
0.638022
0.637547
0.642991
0.684898
0.52961
0.530381
0.512728
0.490996
0.470237
0.451752
0.436131
0.423272
0.410749
0.406524
0.36748
0.360717
0.338656
0.313731
0.290117
0.268784
0.249821
0.232734
0.216593
0.203952
0.224585
0.21359
0.192844
0.171239
0.151447
0.133975
0.118577
0.104675
0.0920369
0.0819189
0.120387
0.109655
0.0942926
0.079571
0.0667323
0.0558594
0.0464868
0.0382002
0.0309743
0.025618
0.0565897
0.0489528
0.0397657
0.031644
0.0249594
0.0195769
0.0150889