/*--------------------------------*- C++ -*----------------------------------*\
| =========                 |                                                 |
| \\      /  F ield         | OpenFOAM: The Open Source CFD Toolbox           |
|  \\    /   O peration     | Version:  2112                                  |
|   \\  /    A nd           | Website:  www.openfoam.com                      |
|    \\/     M anipulation  |                                                 |
\*---------------------------------------------------------------------------*/
FoamFile
{
    version     2.0;
    format      ascii;
    arch        "LSB;label=32;scalar=64";
    class       volScalarField;
    location    "16";
    object      p;
}
// * * * * * * * * * * * * * * * * * * * * * * * * * * * * * * * * * * * * * //

dimensions      [0 2 -2 0 0 0 0];

internalField   nonuniform List<scalar> 
400
(
1.2207609e-06
-0.00067126576
-0.0013833571
-0.0019403157
-0.0022172419
-0.0021534265
-0.0017244818
-0.00092274999
0.00023889145
0.0017107793
0.0033904798
0.0051151907
0.0066763329
0.0078519536
0.0084614201
0.0084270709
0.007817254
0.0068488683
0.005865975
0.0053037374
0.00065895283
-3.9130014e-05
-0.00056797183
-0.00093862261
-0.0011085341
-0.0010372694
-0.00070284192
-9.2357837e-05
0.00079243827
0.0019195819
0.0032129579
0.0045580142
0.0057852317
0.0067195702
0.007217909
0.007218311
0.0067741136
0.0060573004
0.0053153132
0.0047433947
0.0014244037
0.0004417673
-0.00011517886
-0.00045151398
-0.00061273492
-0.00058236405
-0.00034375452
0.00012291251
0.00083189592
0.0017735069
0.0028979525
0.0041018193
0.005231878
0.0061146541
0.0065977015
0.0066017662
0.0061601861
0.0054263069
0.0045988038
0.0037534384
0.0020145087
0.00068255708
1.7988604e-05
-0.00035729185
-0.0005695811
-0.00062412115
-0.0005071415
-0.00018720925
0.00037232102
0.0011884743
0.0022341275
0.0034216558
0.0045955575
0.005561127
0.0061278339
0.0061710591
0.0056884346
0.0048222086
0.0037527508
0.002479311
0.0021673496
0.0004968842
-0.00029508973
-0.00074712908
-0.0010561642
-0.0012425653
-0.0012893701
-0.0011472673
-0.00075045863
-4.8118415e-05
0.0009621953
0.0022154741
0.0035498066
0.0047376518
0.0055268015
0.0057149477
0.0052345928
0.0042072332
0.0028121607
0.0009903241
0.0016541083
-0.00031356325
-0.0012374102
-0.0017974243
-0.0022501262
-0.0026245658
-0.0028943877
-0.0029859757
-0.0027966801
-0.002231288
-0.0012444583
0.00013756352
0.0017511362
0.0033333268
0.0045476222
0.0050716589
0.0047234652
0.0035724235
0.0017961984
-0.00071879232
0.0002876367
-0.001918167
-0.0029710791
-0.0036688499
-0.0043169249
-0.0049487901
-0.0055245631
-0.0059412659
-0.0060513347
-0.005698991
-0.0047669183
-0.0032499204
-0.0012580408
0.00091515169
0.002830567
0.0039938632
0.0040319467
0.0028946638
0.00072270033
-0.0026725337
-0.0020749096
-0.0044489295
-0.0056239836
-0.0064887641
-0.0073883224
-0.0083598711
-0.0093495997
-0.010223045
-0.010780991
-0.010793938
-0.010051959
-0.0084503286
-0.0060297463
-0.0030729377
-0.00011692325
0.0021211711
0.0029718094
0.0021433989
-0.00035795099
-0.0048638032
-0.0055213264
-0.0079886544
-0.0092738822
-0.010328892
-0.011531865
-0.012927736
-0.014453315
-0.015945224
-0.01714986
-0.017752291
-0.017423707
-0.015905031
-0.013109008
-0.0092387716
-0.0048872842
-0.0010196028
0.0012787635
0.0012865518
-0.0013251268
-0.0071921167
-0.010072444
-0.012560205
-0.013931207
-0.015177594
-0.016710569
-0.018593051
-0.02076267
-0.023035284
-0.025106471
-0.026569824
-0.026952074
-0.025795534
-0.022828831
-0.018058736
-0.012036936
-0.0059395319
-0.001359885
0.00031038771
-0.0019377208
-0.0093721174
-0.015678756
-0.018126019
-0.019530653
-0.020918916
-0.022748349
-0.025118584
-0.027983594
-0.031150874
-0.034274068
-0.036858045
-0.038274562
-0.037824411
-0.035046752
-0.029583632
-0.021806379
-0.012971444
-0.005172786
-0.00070509015
-0.0017542832
-0.010781961
-0.022235677
-0.024605255
-0.025937421
-0.027325845
-0.029313555
-0.032066682
-0.035574219
-0.039647764
-0.043908502
-0.047781167
-0.050509413
-0.05121597
-0.048936936
-0.043124892
-0.033752098
-0.021911423
-0.010024008
-0.001404361
9.4304881e-08
-0.010215679
-0.029631884
-0.031915023
-0.032969677
-0.034070019
-0.035928292
-0.038818432
-0.042780397
-0.047634258
-0.052971425
-0.05814329
-0.062263527
-0.064245191
-0.062855852
-0.057094383
-0.046460688
-0.031634879
-0.015025496
-0.00085372723
0.0046561535
-0.0055126534
-0.037855728
-0.040039002
-0.040430698
-0.040742576
-0.042003984
-0.044640301
-0.048743398
-0.054127253
-0.060337595
-0.066645965
-0.072041221
-0.07524959
-0.074794118
-0.069253854
-0.057614775
-0.039949687
-0.018237632
0.00279809
0.014453118
0.006914595
-0.047219987
-0.049124777
-0.048131412
-0.046873013
-0.046895412
-0.0487871
-0.052654755
-0.058260531
-0.065059084
-0.072214224
-0.078578206
-0.082695934
-0.082865742
-0.07729721
-0.064513963
-0.043926749
-0.016741014
0.012509141
0.032944345
0.032413501
-0.058886634
-0.059630909
-0.055875748
-0.051933213
-0.049963981
-0.050620158
-0.053916953
-0.059481674
-0.066596619
-0.074269361
-0.081175635
-0.085665357
-0.085820066
-0.079513214
-0.064869768
-0.040684981
-0.0072379398
0.032141975
0.064983907
0.077750911
-0.076217679
-0.07260614
-0.063509788
-0.055429701
-0.050719036
-0.049774158
-0.052302827
-0.05765267
-0.064878421
-0.072760819
-0.079765651
-0.084024648
-0.083382095
-0.075342479
-0.05759921
-0.028374147
0.012932683
0.065395884
0.1155509
0.15150522
-0.10808538
-0.089550732
-0.071229707
-0.057229794
-0.049068585
-0.046325088
-0.048069823
-0.05319276
-0.060422902
-0.068283266
-0.075015152
-0.078516249
-0.076380859
-0.065804653
-0.043863635
-0.0078192805
0.0443911
0.11299509
0.18837752
0.27185762
-0.17684055
-0.1082856
-0.076200281
-0.054649947
-0.042990681
-0.038994646
-0.040564685
-0.045919686
-0.053431173
-0.06142696
-0.068016368
-0.070952764
-0.067543861
-0.054735277
-0.029147262
0.013562475
0.078143975
0.17006049
0.28949147
0.47421439
-0.37207856
-0.1247048
-0.054971245
-0.031961882
-0.022062757
-0.020298229
-0.024354826
-0.031950827
-0.041252242
-0.050630276
-0.058306101
-0.062177593
-0.059774567
-0.048051727
-0.022656389
0.021473754
0.092816319
0.21014933
0.40288473
0.77640569
)
;

boundaryField
{
    movingWall
    {
        type            zeroGradient;
    }
    fixedWalls
    {
        type            zeroGradient;
    }
    frontAndBack
    {
        type            empty;
    }
}


// ************************************************************************* //
