/*--------------------------------*- C++ -*----------------------------------*\
| =========                 |                                                 |
| \\      /  F ield         | OpenFOAM: The Open Source CFD Toolbox           |
|  \\    /   O peration     | Version:  2112                                  |
|   \\  /    A nd           | Website:  www.openfoam.com                      |
|    \\/     M anipulation  |                                                 |
\*---------------------------------------------------------------------------*/
FoamFile
{
    version     2.0;
    format      ascii;
    arch        "LSB;label=32;scalar=64";
    class       surfaceScalarField;
    location    "16";
    object      phi;
}
// * * * * * * * * * * * * * * * * * * * * * * * * * * * * * * * * * * * * * //

dimensions      [0 3 -1 0 0 0 0];

oriented        oriented;

internalField   nonuniform List<scalar> 
760
(
1.2685158e-05
-1.2699365e-05
-2.8730278e-05
4.1415459e-05
-0.0001222707
9.3540491e-05
-0.00025033431
0.00012806366
-0.00039596571
0.00014563147
-0.00054523265
0.000149267
-0.00068606688
0.00014083427
-0.00080664909
0.00012058227
-0.00089468426
8.8035227e-05
-0.00093811512
4.343091e-05
-0.00092701277
-1.1102304e-05
-0.00085663474
-7.0378001e-05
-0.00073025362
-0.00012638109
-0.00056122707
-0.00016902652
-0.00037270575
-0.0001885213
-0.00019446767
-0.00017823806
-5.6543642e-05
-0.000137924
1.9587097e-05
-7.6130682e-05
3.0396248e-05
-1.0809075e-05
3.0396315e-05
-4.3176538e-05
3.0477191e-05
-0.00020450929
0.00020274825
-0.00046817708
0.00035720841
-0.00080044363
0.00046033031
-0.0011669576
0.00051214558
-0.001535929
0.00051823844
-0.0018775932
0.00048249857
-0.0021629597
0.00040594885
-0.0023637709
0.00028884649
-0.0024545724
0.00013423247
-0.002417409
-4.8265674e-05
-0.0022447142
-0.00024307276
-0.0019470377
-0.00042405748
-0.0015540952
-0.00056196906
-0.001114091
-0.00062852544
-0.00068736628
-0.00060496273
-0.00033450079
-0.00049078945
-0.00010091008
-0.00030972132
-1.5649261e-06
-0.00011015413
2.8831416e-05
-0.00010998972
0.00014046698
-0.00040288647
0.00049564507
-0.00083108446
0.0007854065
-0.0013451253
0.00097437125
-0.0018979089
0.0010649293
-0.0024457026
0.0010660322
-0.0029469925
0.00098378857
-0.00336146
0.00082041642
-0.0036506694
0.00057805589
-0.0037810984
0.00026466158
-0.0037286733
-0.00010069079
-0.0034847912
-0.00048695479
-0.0030624299
-0.00084641875
-0.0024993533
-0.0011250457
-0.0018578016
-0.0012700771
-0.0012178958
-0.0012448685
-0.00066362778
-0.0010450574
-0.00026306353
-0.00071028551
-4.7959973e-05
-0.00032525764
-1.9128569e-05
-0.00017337055
0.0003138376
-0.00059305861
0.00091533322
-0.0011772382
0.0013695862
-0.0018576617
0.0016547948
-0.0025759468
0.0017832144
-0.0032801121
0.0017701975
-0.0039214032
0.0016250797
-0.0044526078
0.001351621
-0.0048286625
0.00095411067
-0.0050096442
0.00044564335
-0.0049657479
-0.00014458706
-0.0046830795
-0.00076962317
-0.0041712053
-0.001358293
-0.0034682284
-0.0018280225
-0.0026433676
-0.0020949379
-0.0017927983
-0.0020954378
-0.0010256429
-0.0018122127
-0.00044013914
-0.0012957893
-9.6712812e-05
-0.00066868398
-0.00011584141
-0.00022969997
0.00054353763
-0.000764767
0.0014504003
-0.0014909025
0.0020957218
-0.0023216657
0.002485558
-0.0031889658
0.0026505146
-0.004035385
0.0026166168
-0.0048083865
0.0023980812
-0.0054571672
0.0020004018
-0.0059323127
0.0014292563
-0.0061879531
0.00070128372
-0.0061866237
-0.00014591637
-0.005903956
-0.0010522909
-0.0053390156
-0.0019232334
-0.0045219826
-0.0026450556
-0.0035221332
-0.0030947873
-0.0024492457
-0.0031683252
-0.0014422275
-0.0028192309
-0.00064110181
-0.002096915
-0.00014881018
-0.0011609757
-0.00026465161
-0.00027718508
0.00082072276
-0.00091119235
0.0020844076
-0.0017600696
0.002944599
-0.002721823
0.0034473115
-0.0037209143
0.0036496059
-0.0046971244
0.0035928268
-0.0055971036
0.0032980604
-0.0063692549
0.0027725531
-0.0069617194
0.0020217208
-0.0073228309
0.0010623952
-0.007405536
-6.3211202e-05
-0.0071699161
-0.0012879108
-0.0065973172
-0.0024958323
-0.0057003691
-0.0035420037
-0.004539006
-0.0042561504
-0.0032311395
-0.0044761917
-0.0019486068
-0.0041017636
-0.0008871035
-0.0031584183
-0.00021155126
-0.001836528
-0.00047620286
-0.00031399778
0.0011347206
-0.001025971
0.0027963808
-0.0019728278
0.0038914559
-0.0030407479
0.0045152315
-0.0041494033
0.0047582614
-0.0052383659
0.0046817894
-0.0062562888
0.0043159834
-0.0071536015
0.0036698658
-0.0078783733
0.0027464926
-0.0083748475
0.0015588695
-0.008583452
0.00014539328
-0.008449505
-0.0014218578
-0.0079278626
-0.0030174747
-0.0070035581
-0.0044663081
-0.0057139166
-0.0055457919
-0.0041727644
-0.0060173439
-0.0025813394
-0.0056931886
-0.0012038672
-0.0045358904
-0.00029444418
-0.002745951
-0.000770647
-0.00033813918
0.0014728598
-0.0011028287
0.0035610703
-0.0021170058
0.0049056331
-0.003258963
0.0056571887
-0.0044462037
0.0059455021
-0.005620525
0.0058561107
-0.006735334
0.0054307924
-0.0077462344
0.0046807662
-0.0086045833
0.0036048414
-0.0092534542
0.0022077403
-0.0096252594
0.00051719845
-0.0096475345
-0.0013995826
-0.009247436
-0.0034175732
-0.0083725717
-0.0053411724
-0.0070209253
-0.0068974383
-0.00528094
-0.0077573291
-0.0033670961
-0.0076070325
-0.0016170792
-0.0062859074
-0.00040819196
-0.0039548382
-0.0011788389
-0.00034807038
0.0018209301
-0.0011369443
0.0043499442
-0.0021822853
0.0059509741
-0.0033578762
0.0068327797
-0.0045812798
0.0071689057
-0.005798681
0.0070735119
-0.0069709248
0.0066030362
-0.0080623201
0.0057721614
-0.0090320606
0.004574582
-0.0098276148
0.0030032945
-0.010379923
0.0010695064
-0.010603219
-0.0011762867
-0.010399533
-0.0036212585
-0.0096737408
-0.006066965
-0.0083676521
-0.008203527
-0.0065148524
-0.0096101288
-0.0043092995
-0.0098125854
-0.0021480094
-0.0084471974
-0.00056483295
-0.0055380146
-0.0017436718
-0.00034388515
0.0021648153
-0.0011276952
0.0051337544
-0.0021643953
0.0069876741
-0.003325431
0.0079938155
-0.0045301932
0.0083736679
-0.0057312311
0.0082745498
-0.0068994451
0.0077712503
-0.008011581
0.0068842972
-0.009040031
0.005603032
-0.0099441936
0.0039074571
-0.010662645
0.0017879579
-0.011106004
-0.00073292749
-0.011162679
-0.0035645835
-0.010696384
-0.0065332607
-0.0095818698
-0.0093180408
-0.007766113
-0.011425886
-0.0053709787
-0.01220772
-0.002806866
-0.01101131
-0.00077826629
-0.0075666142
-0.0025219381
-0.00032890331
0.0024937186
-0.00108239
0.0058872411
-0.0020706983
0.0079759825
-0.0031634808
0.009086598
-0.0042837281
0.0094939153
-0.0053926624
0.009383484
-0.0064739608
0.0088525489
-0.0075204047
0.0079307411
-0.0085228244
0.0066054516
-0.0094602991
0.0048449318
-0.010291321
0.00261898
-0.010933188
-9.1060867e-05
-0.011283129
-0.0032146416
-0.011173463
-0.0066429272
-0.010415439
-0.010076065
-0.0088463807
-0.012994943
-0.0064553927
-0.014598708
-0.0035812631
-0.01388544
-0.0010641203
-0.010083757
-0.0035860583
-0.0003118288
0.0028055475
-0.0010207942
0.0065962066
-0.0019262824
0.0088814708
-0.002895192
0.010055508
-0.0038571879
0.010455911
-0.0047859402
0.010312236
-0.005681226
0.0097478348
-0.0065550046
0.0088045196
-0.007420523
0.0074709701
-0.0082825239
0.0057069327
-0.0091258767
0.0034623328
-0.009909364
0.00069242636
-0.010527887
-0.0025961188
-0.010827492
-0.0063433215
-0.010573905
-0.010329652
-0.0094932719
-0.014075577
-0.0073910367
-0.016700943
-0.0044187589
-0.016857717
-0.0014371258
-0.01306539
-0.0050231842
-0.00031013578
0.0031156833
-0.00098062553
0.0072666964
-0.0017794922
0.0096803375
-0.0025699842
0.010846
-0.003295377
0.011181304
-0.0039488302
0.01096569
-0.004551044
0.010350049
-0.0051359832
0.0093894588
-0.0057412174
0.0080762044
-0.0063998875
0.0063656028
-0.0071315118
0.0041939571
-0.0079316114
0.001492526
-0.0087400551
-0.0017876751
-0.0094314293
-0.0056519471
-0.0097693992
-0.0099916821
-0.0094008593
-0.014444117
-0.0079307979
-0.018171004
-0.0052061698
-0.019582345
-0.0019025652
-0.016368995
-0.0069257493
-0.0003561754
0.0034718588
-0.0010243866
0.0079349076
-0.0017049071
0.010360858
-0.0022617542
0.011402847
-0.0026669291
0.011586479
-0.0029454334
0.011244194
-0.0031458486
0.010550464
-0.003326599
0.0095702092
-0.0035490107
0.0082986162
-0.0038729022
0.0066894944
-0.0043510172
0.0046720721
-0.0050201651
0.002161674
-0.005878279
-0.00092956105
-0.006859318
-0.0046709081
-0.0077775133
-0.0090734867
-0.0082667316
-0.013954898
-0.0077692699
-0.018668466
-0.0057513007
-0.021600315
-0.0024366852
-0.01968361
-0.0093624346
-0.00050842591
0.0039802847
-0.0012461135
0.0086725953
-0.0017967341
0.010911479
-0.0020492104
0.011655323
-0.0020340375
0.011571307
-0.0018272178
0.011037374
-0.0015141736
0.01023742
-0.0011799602
0.0092359957
-0.00090686264
0.0080255186
-0.00077585764
0.0065584894
-0.00086556606
0.0047617806
-0.0012493315
0.0025454395
-0.0019846649
-0.00019422756
-0.0030835185
-0.0035720543
-0.0044614463
-0.0076955588
-0.0058285994
-0.012587745
-0.0065669136
-0.017930151
-0.0057688194
-0.022398409
-0.002951311
-0.022501119
-0.012313746
-0.00086872378
0.0048490084
-0.001763493
0.0095673645
-0.0021222712
0.011270257
-0.0019381662
0.011471218
-0.0013526014
0.010985742
-0.00051815266
0.010202926
0.0004348853
0.0092843818
0.0013973581
0.0082735229
0.0022701068
0.00715277
0.0029587032
0.005869893
0.0033670523
0.0043534316
0.0033948529
0.0025176389
0.0029367755
0.00026385005
0.0019080313
-0.00254331
0.0002683181
-0.0060558454
-0.0018552837
-0.010464143
-0.0039524184
-0.015833016
-0.0048612984
-0.021489529
-0.0032548467
-0.02410757
-0.015568592
-0.001591216
0.0064402244
-0.002611284
0.010587432
-0.0025139469
0.01117292
-0.0015911118
0.010548383
-0.00017373324
0.0095683629
0.001490947
0.0085382455
0.0032308472
0.0075444816
0.0049210871
0.0065832831
0.0064608409
0.0056130161
0.0077554222
0.0045753118
0.0087055681
0.0034032858
0.0091997385
0.0020234686
0.0091017891
0.00036179952
0.0082737435
-0.0017152641
0.0065643162
-0.004346418
0.0039033019
-0.0078031289
0.00055826892
-0.012487983
-0.0024684956
-0.018462764
-0.0030274828
-0.023548583
-0.018596075
-0.0027184099
0.0091586344
-0.0031500886
0.01101911
-0.0018035009
0.0098263327
0.00046587185
0.0082790107
0.0030882682
0.0069459667
0.0057723746
0.0058541391
0.0083612514
0.0049556048
0.010758626
0.0041859082
0.012891691
0.0034799512
0.014688916
0.002778087
0.01606673
0.002025472
0.016921847
0.0011683511
0.017118486
0.00016516117
0.016489814
-0.0010865924
0.014816022
-0.002672626
0.01184601
-0.0048331169
0.0074349936
-0.0080769665
0.0022626012
-0.013290372
-0.0012726172
-0.020013365
-0.019868692
-0.0024132363
0.011571871
2.8069127e-05
0.0085778044
0.004255022
0.0055993795
0.0084157909
0.0041182418
0.012230898
0.00313086
0.015655427
0.0024296097
0.018685504
0.0019255283
0.021328008
0.001543404
0.02358225
0.0012257088
0.02542801
0.00093232732
0.026819053
0.00063442889
0.027676225
0.00031117897
0.027899408
-5.8021687e-05
0.027346625
-0.00053380976
0.025771203
-0.0010972036
0.022842748
-0.0019046613
0.018054559
-0.0032887782
0.011113447
-0.0063492596
0.0033886166
-0.012288534
-0.016480076
0.011571871
0.020149676
0.025749056
0.029867297
0.032998158
0.035427767
0.037353295
0.038896699
0.040122408
0.041054735
0.041689164
0.042000343
0.041942322
0.041408512
0.040311308
0.038406647
0.035117869
0.028768609
0.016480076
)
;

boundaryField
{
    movingWall
    {
        type            calculated;
        value           uniform 0;
    }
    fixedWalls
    {
        type            calculated;
        value           uniform 0;
    }
    frontAndBack
    {
        type            empty;
        value           nonuniform List<scalar> 0();
    }
}


// ************************************************************************* //
