/*--------------------------------*- C++ -*----------------------------------*\
| =========                 |                                                 |
| \\      /  F ield         | OpenFOAM: The Open Source CFD Toolbox           |
|  \\    /   O peration     | Version:  2112                                  |
|   \\  /    A nd           | Website:  www.openfoam.com                      |
|    \\/     M anipulation  |                                                 |
\*---------------------------------------------------------------------------*/
FoamFile
{
    version     2.0;
    format      ascii;
    arch        "LSB;label=32;scalar=64";
    class       surfaceScalarField;
    location    "16";
    object      phi_0;
}
// * * * * * * * * * * * * * * * * * * * * * * * * * * * * * * * * * * * * * //

dimensions      [0 3 -1 0 0 0 0];

oriented        oriented;

internalField   nonuniform List<scalar> 
760
(
1.2685042e-05
-1.2699375e-05
-2.8730308e-05
4.1415426e-05
-0.00012227058
9.3540353e-05
-0.00025033402
0.00012806341
-0.00039596518
0.00014563116
-0.00054523184
0.00014926669
-0.0006860658
0.00014083399
-0.00080664781
0.00012058203
-0.00089468286
8.8035071e-05
-0.00093811369
4.3430872e-05
-0.00092701142
-1.1102207e-05
-0.00085663356
-7.0377778e-05
-0.00073025271
-0.00012638077
-0.00056122648
-0.00016902616
-0.00037270545
-0.00018852095
-0.00019446761
-0.00017823778
-5.6543714e-05
-0.00013792381
1.9586988e-05
-7.6130619e-05
3.0396192e-05
-1.0809131e-05
3.0396204e-05
-4.317646e-05
3.0477154e-05
-0.00020450897
0.0002027479
-0.0004681763
0.00035720772
-0.00080044224
0.00046032939
-0.0011669556
0.00051214456
-0.0015359262
0.00051823743
-0.0018775898
0.00048249765
-0.0021629558
0.00040594813
-0.0023637667
0.00028884608
-0.0024545682
0.00013423243
-0.002417405
-4.8265314e-05
-0.0022447107
-0.00024307203
-0.001947035
-0.00042405647
-0.0015540932
-0.00056196789
-0.0011140897
-0.00062852427
-0.00068736566
-0.00060496174
-0.00033450061
-0.00049078879
-0.00010091014
-0.00030972107
-1.5650738e-06
-0.00011015423
2.8831207e-05
-0.00010998946
0.00014046671
-0.00040288569
0.00049564407
-0.00083108283
0.00078540489
-0.0013451227
0.00097436926
-0.0018979052
0.0010649271
-0.0024456978
0.0010660301
-0.0029469869
0.00098378677
-0.0033614537
0.00082041506
-0.0036506627
0.00057805515
-0.0037810918
0.00026466157
-0.003728667
-0.00010069003
-0.0034847857
-0.00048695333
-0.0030624253
-0.00084641672
-0.0024993498
-0.0011250433
-0.0018577992
-0.0012700748
-0.0012178944
-0.0012448665
-0.00066362718
-0.0010450559
-0.00026306343
-0.0007102848
-4.7960036e-05
-0.00032525757
-1.9128749e-05
-0.00017337014
0.0003138369
-0.00059305737
0.00091533127
-0.0011772357
0.0013695833
-0.0018576578
0.0016547914
-0.0025759415
0.0017832109
-0.0032801055
0.0017701942
-0.0039213955
0.0016250768
-0.0044525993
0.0013516189
-0.0048286537
0.00095410955
-0.0050096355
0.00044564338
-0.0049657397
-0.00014458583
-0.0046830722
-0.00076962084
-0.0041711991
-0.0013582898
-0.0034682235
-0.0018280188
-0.0026433641
-0.0020949341
-0.0017927961
-0.0020954344
-0.0010256418
-0.0018122102
-0.0004401388
-0.0012957878
-9.6712786e-05
-0.0006686835
-0.00011584145
-0.00022969943
0.00054353638
-0.00076476536
0.0014503972
-0.0014908993
0.0020957174
-0.0023216608
0.002485553
-0.0031889593
0.0026505094
-0.0040353771
0.002616612
-0.0048083774
0.0023980772
-0.0054571573
0.0020003989
-0.0059323025
0.0014292547
-0.0061879429
0.00070128378
-0.0061866141
-0.00014591466
-0.0059039472
-0.0010522877
-0.005339008
-0.001923229
-0.0045219764
-0.0026450504
-0.0035221286
-0.0030947819
-0.0024492427
-0.0031683203
-0.0014422259
-0.002819227
-0.0006411012
-0.0020969125
-0.00014881003
-0.0011609745
-0.00026465143
-0.00027718446
0.00082072088
-0.00091119044
0.0020844032
-0.001760066
0.002944593
-0.0027218176
0.0034473047
-0.0037209072
0.0036495991
-0.0046971157
0.0035928205
-0.0055970937
0.0032980552
-0.0063692442
0.0027725494
-0.0069617083
0.0020217188
-0.0073228198
0.0010623953
-0.0074055255
-6.3209079e-05
-0.0071699063
-0.0012879069
-0.0065973086
-0.0024958267
-0.0057003619
-0.0035419971
-0.0045390005
-0.0042561434
-0.0032311357
-0.0044761851
-0.0019486046
-0.0041017581
-0.00088710258
-0.0031584145
-0.000211551
-0.001836526
-0.00047620245
-0.00031399712
0.0011347181
-0.001025969
0.002796375
-0.0019728241
0.0038914482
-0.0030407423
0.004515223
-0.0041493961
0.0047582529
-0.0052383573
0.0046817817
-0.0062562791
0.004315977
-0.0071535909
0.0036698613
-0.0078783623
0.0027464902
-0.0083748366
0.0015588695
-0.0085834414
0.00014539567
-0.0084494951
-0.0014218532
-0.0079278536
-0.0030174682
-0.0070035505
-0.0044663003
-0.0057139105
-0.0055457834
-0.00417276
-0.0060173357
-0.0025813367
-0.0056931815
-0.001203866
-0.0045358852
-0.00029444382
-0.0027459482
-0.00077064635
-0.00033813856
0.0014728567
-0.0011028268
0.0035610633
-0.0021170024
0.0049056238
-0.0032589579
0.0056571786
-0.0044461971
0.0059454921
-0.0056205172
0.0058561018
-0.0067353252
0.0054307851
-0.007746225
0.004680761
-0.0086045735
0.0036048388
-0.0092534444
0.0022077403
-0.0096252498
0.00051720104
-0.0096475254
-0.0013995776
-0.0092474276
-0.0034175661
-0.0083725642
-0.0053411637
-0.0070209191
-0.0068974287
-0.0052809354
-0.0077573195
-0.0033670931
-0.0076070238
-0.0016170777
-0.0062859007
-0.00040819155
-0.0039548343
-0.001178838
-0.00034806986
0.0018209266
-0.0011369427
0.0043499362
-0.0021822824
0.0059509636
-0.0033578721
0.0068327682
-0.0045812746
0.0071688946
-0.0057986748
0.007073502
-0.006970918
0.0066030282
-0.0080623128
0.0057721558
-0.0090320531
0.0045745791
-0.0098276072
0.0030032945
-0.010379915
0.0010695092
-0.010603212
-0.0011762814
-0.010399527
-0.003621251
-0.0096737345
-0.0060669559
-0.0083676466
-0.0082035167
-0.006514848
-0.0096101181
-0.0043092964
-0.0098125754
-0.0021480078
-0.0084471894
-0.00056483251
-0.0055380096
-0.0017436705
-0.00034388482
0.0021648115
-0.0011276942
0.0051337457
-0.0021643935
0.0069876628
-0.0033254284
0.0079938032
-0.0045301899
0.008373656
-0.0057312272
0.0082745393
-0.006899441
0.007771242
-0.0080115767
0.0068842915
-0.0090400267
0.0056030292
-0.0099441893
0.0039074572
-0.010662641
0.0017879609
-0.011106
-0.00073292213
-0.011162675
-0.003564576
-0.01069638
-0.0065332515
-0.0095818659
-0.0093180304
-0.0077661094
-0.011425875
-0.0053709759
-0.012207709
-0.0028068644
-0.011011301
-0.00077826582
-0.0075666082
-0.0025219362
-0.00032890323
0.0024937148
-0.0010823897
0.0058872322
-0.0020706977
0.0079759708
-0.0031634799
0.0090865854
-0.0042837272
0.0094939032
-0.0053926614
0.0093834734
-0.0064739599
0.0088525406
-0.007520404
0.0079307356
-0.0085228239
0.0066054491
-0.0094602988
0.0048449322
-0.010291321
0.0026189831
-0.010933187
-9.1055651e-05
-0.011283129
-0.0032146344
-0.011173462
-0.0066429185
-0.010415437
-0.010076055
-0.0088463789
-0.012994933
-0.0064553909
-0.014598697
-0.0035812618
-0.01388543
-0.0010641198
-0.01008375
-0.0035860559
-0.00031182901
0.0028055437
-0.0010207947
0.006596198
-0.0019262833
0.0088814594
-0.0028951932
0.010055495
-0.0038571895
0.010455899
-0.0047859423
0.010312226
-0.0056812286
0.0097478269
-0.0065550076
0.0088045146
-0.0074205264
0.0074709681
-0.0082825277
0.0057069335
-0.0091258806
0.003462336
-0.0099093678
0.00069243162
-0.01052789
-0.002596112
-0.010827495
-0.0063433135
-0.010573907
-0.010329643
-0.0094932724
-0.014075568
-0.0073910363
-0.016700933
-0.0044187583
-0.016857708
-0.0014371254
-0.013065383
-0.0050231812
-0.00031013628
0.00311568
-0.00098062675
0.0072666886
-0.0017794944
0.009680327
-0.0025699874
0.010845988
-0.0032953811
0.011181293
-0.0039488353
0.01096568
-0.0045510499
0.010350041
-0.0051359897
0.0093894544
-0.0057412244
0.0080762028
-0.0063998948
0.0063656039
-0.0071315192
0.0041939605
-0.0079316186
0.0014925311
-0.0087400618
-0.0017876689
-0.0094314352
-0.0056519402
-0.0097694037
-0.0099916747
-0.0094008623
-0.014444109
-0.0079307994
-0.018170996
-0.0052061701
-0.019582337
-0.001902565
-0.016368988
-0.006925746
-0.00035617615
0.0034718562
-0.0010243885
0.0079349013
-0.0017049105
0.010360849
-0.0022617591
0.011402837
-0.0026669355
0.01158647
-0.0029454411
0.011244186
-0.0031458573
0.010550458
-0.0033266084
0.0095702055
-0.0035490206
0.0082986151
-0.0038729122
0.0066894956
-0.0043510271
0.0046720754
-0.0050201746
0.0021616787
-0.005878288
-0.0009295555
-0.006859326
-0.0046709022
-0.00777752
-0.0090734807
-0.0082667367
-0.013954892
-0.0077692731
-0.018668459
-0.0057513021
-0.021600308
-0.0024366854
-0.019683604
-0.0093624313
-0.00050842684
0.0039802831
-0.0012461159
0.0086725908
-0.0017967384
0.010911472
-0.0020492168
0.011655315
-0.0020340456
0.011571299
-0.0018272275
0.011037368
-0.0015141844
0.010237415
-0.0011799716
0.0092359927
-0.00090687426
0.0080255178
-0.00077586912
0.0065584906
-0.00086557715
0.0047617835
-0.001249342
0.0025454436
-0.0019846747
-0.00019422285
-0.0030835275
-0.0035720494
-0.0044614541
-0.0076955541
-0.0058286057
-0.012587741
-0.006566918
-0.017930147
-0.0057688217
-0.022398404
-0.0029513116
-0.022501114
-0.012313743
-0.00086872471
0.0048490078
-0.0017634954
0.009567362
-0.0021222758
0.011270253
-0.0019381731
0.011471212
-0.0013526103
0.010985736
-0.0005181633
0.010202921
0.00043487353
0.0092843778
0.0013973458
0.0082735205
0.0022700945
0.0071527692
0.0029586913
0.0058698938
0.003367041
0.0043534338
0.0033948426
0.002517642
0.002936766
0.00026385362
0.0019080228
-0.0025433063
0.00026831054
-0.0060558421
-0.0018552901
-0.01046414
-0.0039524232
-0.015833014
-0.0048613012
-0.021489526
-0.0032548477
-0.024107567
-0.01556859
-0.0015912167
0.0064402247
-0.002611286
0.010587431
-0.0025139509
0.011172918
-0.001591118
0.01054838
-0.00017374159
0.009568359
0.0014909369
0.0085382418
0.003230836
0.0075444787
0.0049210753
0.0065832812
0.0064608292
0.0056130154
0.007755411
0.0045753121
0.0087055577
0.0034032871
0.0091997291
0.0020234706
0.0091017809
0.00036180181
0.0082737362
-0.0017152618
0.0065643099
-0.0043464159
0.0039032966
-0.0078031272
0.00055826488
-0.012487982
-0.0024684983
-0.018462763
-0.0030274838
-0.023548582
-0.018596074
-0.0027184101
0.0091586351
-0.0031500894
0.011019111
-0.0018035033
0.009826332
0.00046586766
0.0082790091
0.0030882621
0.0069459647
0.0057723667
0.005854137
0.0083612424
0.004955603
0.010758617
0.0041859069
0.012891681
0.0034799505
0.014688907
0.0027780871
0.016066721
0.0020254726
0.01692184
0.0011683521
0.017118479
0.00016516237
0.016489809
-0.0010865911
0.014816018
-0.0026726249
0.011846007
-0.0048331161
0.0074349906
-0.0080769661
0.0022625992
-0.013290371
-0.0012726181
-0.020013364
-0.019868692
-0.0024132359
0.011571872
2.80693e-05
0.0085778047
0.0042550217
0.0055993794
0.0084157893
0.0041182414
0.012230895
0.0031308593
0.015655423
0.0024296088
0.018685498
0.0019255275
0.021328001
0.0015434034
0.023582244
0.0012257085
0.025428004
0.0009323273
0.026819047
0.00063442913
0.02767622
0.00031117939
0.027899404
-5.8021021e-05
0.027346622
-0.00053380928
0.025771201
-0.0010972033
0.022842746
-0.0019046611
0.018054558
-0.0032887782
0.011113446
-0.0063492597
0.0033886162
-0.012288534
-0.016480076
0.011571872
0.020149677
0.025749056
0.029867298
0.032998157
0.035427766
0.037353293
0.038896697
0.040122405
0.041054733
0.041689162
0.042000342
0.041942321
0.041408511
0.040311308
0.038406647
0.035117869
0.028768609
0.016480076
)
;

boundaryField
{
    movingWall
    {
        type            calculated;
        value           uniform 0;
    }
    fixedWalls
    {
        type            calculated;
        value           uniform 0;
    }
    frontAndBack
    {
        type            empty;
        value           nonuniform List<scalar> 0();
    }
}


// ************************************************************************* //
