/*--------------------------------*- C++ -*----------------------------------*\
| =========                 |                                                 |
| \\      /  F ield         | OpenFOAM: The Open Source CFD Toolbox           |
|  \\    /   O peration     | Version:  2112                                  |
|   \\  /    A nd           | Website:  www.openfoam.com                      |
|    \\/     M anipulation  |                                                 |
\*---------------------------------------------------------------------------*/
FoamFile
{
    version     2.0;
    format      ascii;
    arch        "LSB;label=32;scalar=64";
    class       volVectorField;
    location    "16";
    object      U;
}
// * * * * * * * * * * * * * * * * * * * * * * * * * * * * * * * * * * * * * //

dimensions      [0 1 -1 0 0 0 0];

internalField   nonuniform List<vector> 
400
(
(0.00028420586 -0.00028132844 0)
(0.00011034151 7.9972928e-05 0)
(-0.0013271236 0.00047792184 0)
(-0.0036211073 0.00073572972 0)
(-0.0064219556 0.00086726598 0)
(-0.009428793 0.00090698832 0)
(-0.012384338 0.00087458482 0)
(-0.015051912 0.00077127828 0)
(-0.017189363 0.00058830313 0)
(-0.018547329 0.00032000195 0)
(-0.018897158 -2.4760715e-05 0)
(-0.018081176 -0.00041807245 0)
(-0.01607581 -0.00079940528 0)
(-0.013046021 -0.001092697 0)
(-0.0093647217 -0.001220835 0)
(-0.0055771134 -0.0011291961 0)
(-0.0023005928 -0.00081274147 0)
(-8.3526159e-05 -0.00033801907 0)
(0.00075968764 0.00015212455 0)
(0.00040927744 0.00038918014 0)
(-8.6137072e-05 -0.0001234638 0)
(-0.0018688677 0.0017867956 0)
(-0.0063046492 0.0036249498 0)
(-0.01244868 0.0048609266 0)
(-0.01959415 0.0054967104 0)
(-0.027097858 0.0056187938 0)
(-0.034347352 0.0052842769 0)
(-0.040755287 0.0045029394 0)
(-0.045743166 0.003265288 0)
(-0.04876032 0.0015894004 0)
(-0.049351464 -0.00043493948 0)
(-0.047240013 -0.0026168918 0)
(-0.042440375 -0.0046626264 0)
(-0.035352626 -0.0062166695 0)
(-0.026772692 -0.0069353771 0)
(-0.017824052 -0.0065904778 0)
(-0.0097744158 -0.0051786982 0)
(-0.0037463857 -0.002999154 0)
(-0.00038919681 -0.00066590067 0)
(0.00028967747 0.00078308901 0)
(-0.0005879083 0.001433355 0)
(-0.004241327 0.0063755058 0)
(-0.011754304 0.010636992 0)
(-0.021460862 0.013478961 0)
(-0.032354429 0.014893159 0)
(-0.043572318 0.015012261 0)
(-0.054268158 0.013931554 0)
(-0.06362045 0.01168064 0)
(-0.0708319 0.008279229 0)
(-0.075163818 0.0038283454 0)
(-0.076015744 -0.0014042272 0)
(-0.073035988 -0.0069320955 0)
(-0.066248015 -0.012066722 0)
(-0.056154584 -0.015994426 0)
(-0.04377024 -0.01793696 0)
(-0.030562606 -0.017375075 0)
(-0.018247363 -0.014286677 0)
(-0.0084169081 -0.0093108535 0)
(-0.0021511325 -0.0037619484 0)
(-2.1056719e-06 0.00031631331 0)
(-0.0010526431 0.0042990237 0)
(-0.0065122746 0.013560975 0)
(-0.016992467 0.020856621 0)
(-0.03001933 0.025552112 0)
(-0.044283862 0.027751695 0)
(-0.058762608 0.027678504 0)
(-0.072461494 0.025479376 0)
(-0.084417506 0.021212194 0)
(-0.09369744 0.014941661 0)
(-0.099432123 0.0068782139 0)
(-0.10089902 -0.0024979766 0)
(-0.097634148 -0.012371924 0)
(-0.089568072 -0.02159638 0)
(-0.077161843 -0.028814339 0)
(-0.061489814 -0.032695561 0)
(-0.044243415 -0.032290772 0)
(-0.027556415 -0.027439261 0)
(-0.013579269 -0.019077139 0)
(-0.0040258154 -0.0092698967 0)
(-0.00026776252 -0.0011087866 0)
(-0.0014552322 0.0083619832 0)
(-0.0085455383 0.023172596 0)
(-0.021737537 0.034039045 0)
(-0.037777779 0.040748261 0)
(-0.055076131 0.043686333 0)
(-0.072493094 0.043244437 0)
(-0.088953072 0.039649015 0)
(-0.10342343 0.032992212 0)
(-0.11489498 0.023379384 0)
(-0.12239906 0.011116825 0)
(-0.1250785 -0.0031237776 0)
(-0.12228564 -0.018209548 0)
(-0.11373118 -0.032528079 0)
(-0.099672888 -0.044116871 0)
(-0.081080794 -0.050950173 0)
(-0.05976247 -0.051426754 0)
(-0.038282754 -0.045002538 0)
(-0.019516426 -0.032748839 0)
(-0.0060912112 -0.01748939 0)
(-0.00051096976 -0.0035222484 0)
(-0.0017881636 0.013470256 0)
(-0.010265586 0.03494753 0)
(-0.025795547 0.04989002 0)
(-0.044450199 0.058773546 0)
(-0.064404594 0.062436732 0)
(-0.084448435 0.061530805 0)
(-0.10348244 0.056399186 0)
(-0.12046568 0.047170061 0)
(-0.13436389 0.033964064 0)
(-0.1441332 0.017132626 0)
(-0.14876365 -0.0025290101 0)
(-0.14735585 -0.023623353 0)
(-0.13927734 -0.0441246 0)
(-0.12440658 -0.06142093 0)
(-0.10340835 -0.072620199 0)
(-0.078038824 -0.075153411 0)
(-0.051249984 -0.067690251 0)
(-0.026803869 -0.051113343 0)
(-0.0086105548 -0.028960766 0)
(-0.00078692212 -0.0070516806 0)
(-0.0020412229 0.019428949 0)
(-0.011601362 0.048510527 0)
(-0.028985543 0.067973369 0)
(-0.049740814 0.079198085 0)
(-0.071868207 0.083629425 0)
(-0.094132819 0.082272136 0)
(-0.11546599 0.075628508 0)
(-0.13487747 0.063861833 0)
(-0.15136364 0.047068273 0)
(-0.16384445 0.025568113 0)
(-0.17115269 0.0001714749 0)
(-0.17211674 -0.027594691 0)
(-0.16568091 -0.055374188 0)
(-0.15116136 -0.079919328 0)
(-0.12867514 -0.097323023 0)
(-0.099650538 -0.10367162 0)
(-0.067228742 -0.09626344 0)
(-0.036112057 -0.075204326 0)
(-0.011927348 -0.044531726 0)
(-0.0011705546 -0.011999986 0)
(-0.0022005443 0.026003458 0)
(-0.012480777 0.063396236 0)
(-0.031130478 0.087733324 0)
(-0.05333902 0.1014559 0)
(-0.076996283 0.10674316 0)
(-0.10088544 0.10504305 0)
(-0.1240193 0.097063066 0)
(-0.14551802 0.083003676 0)
(-0.16447417 0.062893184 0)
(-0.1798399 0.036931136 0)
(-0.19036361 0.0058051259 0)
(-0.19462135 -0.029015277 0)
(-0.19110409 -0.064992719 0)
(-0.17846053 -0.098360386 0)
(-0.15599963 -0.124144 0)
(-0.12442461 -0.13672973 0)
(-0.086632187 -0.13130003 0)
(-0.048055467 -0.10621127 0)
(-0.016426352 -0.065381236 0)
(-0.0017533968 -0.01887554 0)
(-0.0022551429 0.032921333 0)
(-0.01285062 0.079060851 0)
(-0.032091401 0.10849851 0)
(-0.054969364 0.12482437 0)
(-0.079317659 0.13105383 0)
(-0.10397295 0.12916435 0)
(-0.12807597 0.12012307 0)
(-0.15091867 0.10418176 0)
(-0.17176984 0.081268381 0)
(-0.189717 0.051375849 0)
(-0.20354889 0.014925688 0)
(-0.21170249 -0.026856647 0)
(-0.21229966 -0.071504954 0)
(-0.20331414 -0.11499255 0)
(-0.18304091 -0.15140977 0)
(-0.15099915 -0.17324703 0)
(-0.10915123 -0.17278699 0)
(-0.063017444 -0.14521644 0)
(-0.022521418 -0.092961659 0)
(-0.0026584122 -0.028417591 0)
(-0.0022083387 0.039891179 0)
(-0.012715279 0.094913468 0)
(-0.031836667 0.1294997 0)
(-0.054488927 0.14841452 0)
(-0.078489106 0.15559274 0)
(-0.10275752 0.15362858 0)
(-0.12660626 0.14381577 0)
(-0.14956058 0.12649257 0)
(-0.17115479 0.10148221 0)
(-0.19074 0.068517574 0)
(-0.2073119 0.027638276 0)
(-0.21936289 -0.020374277 0)
(-0.22487306 -0.073433896 0)
(-0.22129178 -0.12765432 0)
(-0.20583999 -0.17658161 0)
(-0.1764621 -0.21095113 0)
(-0.13333436 -0.21957399 0)
(-0.080890624 -0.19272138 0)
(-0.03063804 -0.12883167 0)
(-0.0040693604 -0.041630439 0)
(-0.0020933889 0.046649374 0)
(-0.01218954 0.1103863 0)
(-0.030535219 0.14992325 0)
(-0.052015456 0.1711968 0)
(-0.074461798 0.17914789 0)
(-0.096916049 0.17708197 0)
(-0.11891012 0.16669897 0)
(-0.1402631 0.14848206 0)
(-0.16085961 0.1221827 0)
(-0.18044186 0.087273767 0)
(-0.19840248 0.043363879 0)
(-0.21353652 -0.0093694139 0)
(-0.22401366 -0.069649153 0)
(-0.22708056 -0.1341 0)
(-0.21908521 -0.19641529 0)
(-0.19626004 -0.24621139 0)
(-0.15621173 -0.2688196 0)
(-0.10069956 -0.24795217 0)
(-0.041142311 -0.17431014 0)
(-0.0062697716 -0.059825207 0)
(-0.0019967264 0.053043943 0)
(-0.011567089 0.12505165 0)
(-0.028663996 0.16900278 0)
(-0.048060879 0.19206297 0)
(-0.067643834 0.20031222 0)
(-0.086650561 0.19787424 0)
(-0.10490411 0.18693738 0)
(-0.12257941 0.16819916 0)
(-0.1399758 0.1414007 0)
(-0.15731098 0.1058013 0)
(-0.17453001 0.060583593 0)
(-0.19109847 0.0052455235 0)
(-0.2056155 -0.059896525 0)
(-0.21551731 -0.13257714 0)
(-0.21690916 -0.20749324 0)
(-0.20458146 -0.27428051 0)
(-0.17317418 -0.31567887 0)
(-0.12016782 -0.30804332 0)
(-0.054144617 -0.22985635 0)
(-0.0096740061 -0.084642457 0)
(-0.0021003409 0.05917214 0)
(-0.01141819 0.13878642 0)
(-0.02712244 0.18613351 0)
(-0.043635529 0.20990331 0)
(-0.058995228 0.21755937 0)
(-0.072794925 0.21416144 0)
(-0.08526998 0.20244605 0)
(-0.097023857 0.18337691 0)
(-0.10881361 0.15674969 0)
(-0.12137705 0.12168986 0)
(-0.13528168 0.077027587 0)
(-0.1507305 0.02163703 0)
(-0.16714852 -0.045087014 0)
(-0.18276368 -0.12248895 0)
(-0.19407282 -0.2070965 0)
(-0.19524857 -0.29008274 0)
(-0.17830144 -0.35355115 0)
(-0.13540715 -0.36740437 0)
(-0.06908781 -0.29412529 0)
(-0.014794253 -0.11797236 0)
(-0.0027687217 0.065610146 0)
(-0.012745842 0.15197341 0)
(-0.027340619 0.20096217 0)
(-0.040260961 0.22364447 0)
(-0.049950293 0.2292929 0)
(-0.056669741 0.22400495 0)
(-0.061262786 0.21105625 0)
(-0.064849292 0.19166718 0)
(-0.068656205 0.16571588 0)
(-0.073911803 0.13227824 0)
(-0.081765346 0.089972621 0)
(-0.093156611 0.037218092 0)
(-0.10850405 -0.027457595 0)
(-0.12724564 -0.10495309 0)
(-0.14708166 -0.19419655 0)
(-0.16282493 -0.28946126 0)
(-0.16510501 -0.37507262 0)
(-0.14090832 -0.41769904 0)
(-0.084062711 -0.3627889 0)
(-0.022011237 -0.16156159 0)
(-0.0047207897 0.073828032 0)
(-0.017228333 0.16570712 0)
(-0.031297576 0.21334995 0)
(-0.039703922 0.23214154 0)
(-0.041910984 0.23377033 0)
(-0.039384342 0.22536691 0)
(-0.033850274 0.2105919 0)
(-0.027041189 0.1907988 0)
(-0.020634566 0.16589487 0)
(-0.016258419 0.13494431 0)
(-0.015518667 0.096482644 0)
(-0.019966224 0.048706455 0)
(-0.030956834 -0.010393722 0)
(-0.049269285 -0.082900828 0)
(-0.074429984 -0.17012399 0)
(-0.10330214 -0.27048399 0)
(-0.12727329 -0.37367636 0)
(-0.1297459 -0.44866753 0)
(-0.09491845 -0.42748699 0)
(-0.030930897 -0.2161166 0)
(-0.0093011847 0.08694891 0)
(-0.027438243 0.18184095 0)
(-0.040995763 0.2230132 0)
(-0.042701918 0.23376485 0)
(-0.034435493 0.22877715 0)
(-0.019659064 0.21590083 0)
(-0.0012795297 0.19876336 0)
(0.018301545 0.17855496 0)
(0.037026348 0.15508107 0)
(0.053010995 0.1273637 0)
(0.064378612 0.093946241 0)
(0.069190636 0.053028476 0)
(0.065378048 0.0024784968 0)
(0.05101397 -0.060323314 0)
(0.024613434 -0.13836185 0)
(-0.013726941 -0.23415836 0)
(-0.058773364 -0.34515823 0)
(-0.09352367 -0.44952751 0)
(-0.094475275 -0.47557488 0)
(-0.039217018 -0.28047382 0)
(-0.018581128 0.11087142 0)
(-0.046044663 0.20177069 0)
(-0.0552423 0.22791938 0)
(-0.044005007 0.22500108 0)
(-0.019400196 0.21059507 0)
(0.012299238 0.19226362 0)
(0.046954171 0.17277214 0)
(0.081712306 0.15264605 0)
(0.11439497 0.13135036 0)
(0.14311101 0.10779832 0)
(0.16597674 0.080598871 0)
(0.18094427 0.048122623 0)
(0.18554305 0.0084613874 0)
(0.17713675 -0.04080539 0)
(0.15273457 -0.10316544 0)
(0.10946798 -0.18389755 0)
(0.047223676 -0.2885479 0)
(-0.021451051 -0.41050406 0)
(-0.07225846 -0.49100993 0)
(-0.04114871 -0.3505373 0)
(-0.033352278 0.15561731 0)
(-0.068603841 0.2204034 0)
(-0.055194413 0.21728676 0)
(-0.016091852 0.19531525 0)
(0.034491428 0.17091259 0)
(0.088481961 0.14848403 0)
(0.14173779 0.12860387 0)
(0.19193486 0.1105718 0)
(0.23750495 0.093295326 0)
(0.27708466 0.075576343 0)
(0.30918449 0.056185829 0)
(0.33201274 0.033829965 0)
(0.34314904 0.0070352224 0)
(0.33980644 -0.025902567 0)
(0.31811425 -0.067734917 0)
(0.27326272 -0.12410289 0)
(0.20043586 -0.20584402 0)
(0.10213156 -0.32506679 0)
(-0.012391533 -0.45456916 0)
(-0.023757746 -0.40863845 0)
(-0.033080533 0.23907505 0)
(-0.042646159 0.21792135 0)
(0.042206597 0.16426522 0)
(0.12760037 0.12783251 0)
(0.20768903 0.10143089 0)
(0.28026752 0.081653297 0)
(0.34485435 0.066643931 0)
(0.4015607 0.054700172 0)
(0.45052627 0.044398291 0)
(0.49159566 0.034640488 0)
(0.52413833 0.02455267 0)
(0.54696516 0.013384855 0)
(0.55820474 0.00040334075 0)
(0.55569544 -0.015133714 0)
(0.53551597 -0.034966082 0)
(0.49243946 -0.062486064 0)
(0.41796783 -0.10694661 0)
(0.30410257 -0.19317511 0)
(0.12313586 -0.33691884 0)
(0.052373565 -0.39437894 0)
(0.24299993 0.15257545 0)
(0.30529799 0.11854378 0)
(0.45481418 0.076108506 0)
(0.5600098 0.050839926 0)
(0.63223196 0.035125337 0)
(0.68654512 0.024811352 0)
(0.72943153 0.017959213 0)
(0.76378749 0.013255323 0)
(0.79126928 0.0097620041 0)
(0.81274131 0.006854594 0)
(0.82840204 0.0041191119 0)
(0.83793622 0.0012776706 0)
(0.84056507 -0.0018434964 0)
(0.83497219 -0.0053255276 0)
(0.81886547 -0.0098283196 0)
(0.78942847 -0.016232354 0)
(0.73784332 -0.026935591 0)
(0.65316808 -0.05128663 0)
(0.45609785 -0.11374619 0)
(0.31788989 -0.17206016 0)
)
;

boundaryField
{
    movingWall
    {
        type            fixedValue;
        value           uniform (1 0 0);
    }
    fixedWalls
    {
        type            fixedValue;
        value           uniform (0 0 0);
    }
    frontAndBack
    {
        type            empty;
    }
}


// ************************************************************************* //
