/*--------------------------------*- C++ -*----------------------------------*\
| =========                 |                                                 |
| \\      /  F ield         | OpenFOAM: The Open Source CFD Toolbox           |
|  \\    /   O peration     | Version:  2112                                  |
|   \\  /    A nd           | Website:  www.openfoam.com                      |
|    \\/     M anipulation  |                                                 |
\*---------------------------------------------------------------------------*/
FoamFile
{
    version     2.0;
    format      ascii;
    arch        "LSB;label=32;scalar=64";
    class       volVectorField;
    location    "16";
    object      U_0;
}
// * * * * * * * * * * * * * * * * * * * * * * * * * * * * * * * * * * * * * //

dimensions      [0 1 -1 0 0 0 0];

internalField   nonuniform List<vector> 
400
(
(0.0002842051 -0.00028132772 0)
(0.00011034018 7.9973441e-05 0)
(-0.0013271231 0.00047792144 0)
(-0.0036211034 0.00073572835 0)
(-0.0064219475 0.00086726414 0)
(-0.0094287796 0.00090698644 0)
(-0.012384319 0.00087458302 0)
(-0.015051888 0.00077127668 0)
(-0.017189336 0.00058830196 0)
(-0.0185473 0.00032000151 0)
(-0.01889713 -2.4760249e-05 0)
(-0.01808115 -0.0004180711 0)
(-0.016075789 -0.00079940326 0)
(-0.013046006 -0.0010926946 0)
(-0.0093647129 -0.0012208328 0)
(-0.0055771101 -0.0011291944 0)
(-0.0023005935 -0.00081274052 0)
(-8.3528419e-05 -0.00033801903 0)
(0.0007596858 0.0001521236 0)
(0.00040927681 0.00038917897 0)
(-8.6136804e-05 -0.00012346307 0)
(-0.0018688648 0.0017867934 0)
(-0.0063046392 0.0036249434 0)
(-0.012448659 0.0048609171 0)
(-0.019594115 0.0054966993 0)
(-0.027097809 0.0056187827 0)
(-0.034347289 0.0052842666 0)
(-0.040755213 0.004502931 0)
(-0.045743084 0.0032652828 0)
(-0.048760236 0.0015893993 0)
(-0.049351382 -0.0004349359 0)
(-0.047239938 -0.0026168839 0)
(-0.042440312 -0.0046626151 0)
(-0.035352578 -0.0062166565 0)
(-0.02677266 -0.0069353643 0)
(-0.017824034 -0.0065904672 0)
(-0.0097744089 -0.0051786915 0)
(-0.0037463857 -0.002999152 0)
(-0.0003891992 -0.00066590295 0)
(0.00028967623 0.00078308565 0)
(-0.00058790686 0.0014333527 0)
(-0.0042413186 0.0063754939 0)
(-0.011754281 0.010636971 0)
(-0.02146082 0.013478934 0)
(-0.032354365 0.014893129 0)
(-0.043572232 0.015012232 0)
(-0.054268053 0.013931528 0)
(-0.063620329 0.01168062 0)
(-0.070831768 0.0082792174 0)
(-0.075163684 0.0038283444 0)
(-0.076015614 -0.0014042169 0)
(-0.073035869 -0.0069320747 0)
(-0.066247913 -0.012066693 0)
(-0.056154504 -0.015994393 0)
(-0.043770182 -0.017936927 0)
(-0.03056257 -0.017375046 0)
(-0.018247345 -0.014286658 0)
(-0.0084169025 -0.0093108452 0)
(-0.0021511333 -0.0037619495 0)
(-2.1067707e-06 0.00031630912 0)
(-0.0010526405 0.0042990146 0)
(-0.0065122605 0.013560947 0)
(-0.016992431 0.020856577 0)
(-0.030019267 0.02555206 0)
(-0.04428377 0.027751639 0)
(-0.058762488 0.027678451 0)
(-0.072461351 0.02547933 0)
(-0.084417344 0.021212159 0)
(-0.093697266 0.014941642 0)
(-0.099431946 0.0068782137 0)
(-0.10089885 -0.0024979574 0)
(-0.097633991 -0.012371886 0)
(-0.089567936 -0.021596329 0)
(-0.077161732 -0.028814279 0)
(-0.06148973 -0.032695501 0)
(-0.044243359 -0.03229072 0)
(-0.027556383 -0.027439223 0)
(-0.013579256 -0.019077118 0)
(-0.0040258135 -0.0092698921 0)
(-0.00026776305 -0.0011087891 0)
(-0.0014552286 0.0083619641 0)
(-0.0085455194 0.023172546 0)
(-0.02173749 0.034038974 0)
(-0.037777699 0.040748177 0)
(-0.055076018 0.043686247 0)
(-0.072492948 0.043244356 0)
(-0.088952899 0.039648946 0)
(-0.10342324 0.032992162 0)
(-0.11489478 0.023379358 0)
(-0.12239885 0.011116826 0)
(-0.1250783 -0.0031237485 0)
(-0.12228545 -0.018209493 0)
(-0.11373102 -0.032528003 0)
(-0.09967275 -0.044116782 0)
(-0.081080686 -0.050950083 0)
(-0.059762394 -0.051426672 0)
(-0.03828271 -0.045002475 0)
(-0.019516406 -0.0327488 0)
(-0.006091206 -0.017489375 0)
(-0.00051096946 -0.0035222473 0)
(-0.0017881594 0.013470225 0)
(-0.010265564 0.034947454 0)
(-0.025795493 0.049889916 0)
(-0.044450109 0.058773428 0)
(-0.064404467 0.062436612 0)
(-0.084448275 0.061530695 0)
(-0.10348226 0.056399093 0)
(-0.12046547 0.047169994 0)
(-0.13436367 0.033964029 0)
(-0.14413297 0.017132627 0)
(-0.14876343 -0.0025289721 0)
(-0.14735564 -0.02362328 0)
(-0.13927715 -0.0441245 0)
(-0.12440642 -0.061420811 0)
(-0.10340822 -0.072620075 0)
(-0.078038731 -0.075153296 0)
(-0.051249926 -0.067690158 0)
(-0.026803841 -0.051113282 0)
(-0.0086105458 -0.028960737 0)
(-0.00078692102 -0.0070516751 0)
(-0.0020412184 0.019428906 0)
(-0.011601338 0.048510424 0)
(-0.028985487 0.067973231 0)
(-0.049740721 0.079197931 0)
(-0.071868079 0.083629271 0)
(-0.094132659 0.082271996 0)
(-0.11546581 0.075628393 0)
(-0.13487726 0.06386175 0)
(-0.15136343 0.04706823 0)
(-0.16384423 0.025568114 0)
(-0.17115248 0.0001715204 0)
(-0.17211653 -0.027594604 0)
(-0.16568072 -0.055374066 0)
(-0.15116119 -0.079919182 0)
(-0.128675 -0.097322868 0)
(-0.099650432 -0.10367147 0)
(-0.067228673 -0.096263314 0)
(-0.03611202 -0.075204237 0)
(-0.011927335 -0.044531679 0)
(-0.0011705529 -0.011999976 0)
(-0.00220054 0.026003402 0)
(-0.012480754 0.063396107 0)
(-0.031130425 0.087733153 0)
(-0.053338934 0.10145571 0)
(-0.076996165 0.10674297 0)
(-0.10088529 0.10504288 0)
(-0.12401914 0.097062929 0)
(-0.14551784 0.083003579 0)
(-0.16447397 0.062893134 0)
(-0.17983971 0.036931136 0)
(-0.19036341 0.005805177 0)
(-0.19462116 -0.029015179 0)
(-0.19110391 -0.064992581 0)
(-0.17846037 -0.098360218 0)
(-0.15599949 -0.12414382 0)
(-0.1244245 -0.13672955 0)
(-0.08663211 -0.13129987 0)
(-0.048055423 -0.10621115 0)
(-0.016426336 -0.065381169 0)
(-0.0017533946 -0.018875525 0)
(-0.0022551394 0.032921266 0)
(-0.012850602 0.0790607 0)
(-0.032091359 0.10849831 0)
(-0.054969295 0.12482416 0)
(-0.079317564 0.13105362 0)
(-0.10397283 0.12916416 0)
(-0.12807584 0.12012292 0)
(-0.15091853 0.10418165 0)
(-0.17176969 0.081268326 0)
(-0.18971685 0.051375849 0)
(-0.20354874 0.014925743 0)
(-0.21170234 -0.026856542 0)
(-0.21229952 -0.071504806 0)
(-0.203314 -0.11499236 0)
(-0.18304079 -0.15140957 0)
(-0.15099905 -0.17324682 0)
(-0.10915115 -0.1727868 0)
(-0.063017396 -0.14521629 0)
(-0.022521399 -0.092961571 0)
(-0.0026584097 -0.028417569 0)
(-0.0022083366 0.039891105 0)
(-0.012715267 0.094913299 0)
(-0.03183664 0.12949948 0)
(-0.054488882 0.14841428 0)
(-0.078489045 0.1555925 0)
(-0.10275745 0.15362837 0)
(-0.12660618 0.14381561 0)
(-0.1495605 0.12649245 0)
(-0.17115471 0.10148215 0)
(-0.19073992 0.068517575 0)
(-0.20731181 0.027638334 0)
(-0.21936281 -0.020374169 0)
(-0.22487298 -0.073433744 0)
(-0.2212917 -0.12765413 0)
(-0.20583991 -0.1765814 0)
(-0.17646202 -0.21095091 0)
(-0.1333343 -0.21957378 0)
(-0.080890579 -0.1927212 0)
(-0.030638021 -0.12883156 0)
(-0.0040693573 -0.041630407 0)
(-0.0020933886 0.046649296 0)
(-0.012189537 0.11038612 0)
(-0.030535211 0.14992302 0)
(-0.052015442 0.17119655 0)
(-0.074461779 0.17914765 0)
(-0.096916028 0.17708176 0)
(-0.1189101 0.1666988 0)
(-0.14026308 0.14848195 0)
(-0.1608596 0.12218264 0)
(-0.18044185 0.087273773 0)
(-0.19840247 0.04336394 0)
(-0.21353652 -0.009369304 0)
(-0.22401365 -0.069649003 0)
(-0.22708054 -0.13409982 0)
(-0.21908519 -0.19641508 0)
(-0.19626 -0.24621117 0)
(-0.15621169 -0.26881938 0)
(-0.10069953 -0.24795198 0)
(-0.041142293 -0.17431001 0)
(-0.0062697677 -0.059825164 0)
(-0.0019967283 0.053043865 0)
(-0.011567095 0.12505147 0)
(-0.028664009 0.16900255 0)
(-0.048060899 0.19206272 0)
(-0.067643861 0.20031197 0)
(-0.086650596 0.19787403 0)
(-0.10490415 0.18693722 0)
(-0.12257946 0.16819906 0)
(-0.13997586 0.14140065 0)
(-0.15731105 0.10580131 0)
(-0.17453009 0.060583657 0)
(-0.19109855 0.0052456311 0)
(-0.20561558 -0.059896384 0)
(-0.21551737 -0.13257697 0)
(-0.2169092 -0.20749305 0)
(-0.20458148 -0.2742803 0)
(-0.17317418 -0.31567866 0)
(-0.1201678 -0.30804313 0)
(-0.054144605 -0.2298562 0)
(-0.0096740018 -0.084642402 0)
(-0.0021003448 0.059172069 0)
(-0.011418206 0.13878626 0)
(-0.027122474 0.18613328 0)
(-0.043635583 0.20990307 0)
(-0.058995301 0.21755914 0)
(-0.072795017 0.21416124 0)
(-0.085270089 0.2024459 0)
(-0.097023981 0.18337682 0)
(-0.10881374 0.15674965 0)
(-0.12137719 0.12168988 0)
(-0.13528183 0.077027653 0)
(-0.15073064 0.021637132 0)
(-0.16714866 -0.045086884 0)
(-0.18276381 -0.1224888 0)
(-0.19407293 -0.20709634 0)
(-0.19524864 -0.29008257 0)
(-0.17830148 -0.35355097 0)
(-0.13540717 -0.36740419 0)
(-0.069087807 -0.29412514 0)
(-0.014794249 -0.1179723 0)
(-0.0027687273 0.065610087 0)
(-0.012745866 0.15197327 0)
(-0.027340672 0.20096198 0)
(-0.040261045 0.22364426 0)
(-0.049950407 0.22929269 0)
(-0.056669883 0.22400477 0)
(-0.061262951 0.21105612 0)
(-0.064849474 0.1916671 0)
(-0.068656398 0.16571585 0)
(-0.073912002 0.13227826 0)
(-0.081765546 0.089972687 0)
(-0.093156807 0.03721819 0)
(-0.10850424 -0.027457477 0)
(-0.12724581 -0.10495296 0)
(-0.14708181 -0.19419642 0)
(-0.16282505 -0.28946113 0)
(-0.16510509 -0.37507248 0)
(-0.14090837 -0.41769889 0)
(-0.084062721 -0.36278877 0)
(-0.022011236 -0.16156153 0)
(-0.0047207963 0.07382799 0)
(-0.017228363 0.16570701 0)
(-0.031297642 0.2133498 0)
(-0.039704029 0.23214136 0)
(-0.04191113 0.23377015 0)
(-0.039384522 0.22536676 0)
(-0.03385048 0.21059179 0)
(-0.027041413 0.19079873 0)
(-0.020634798 0.16589485 0)
(-0.016258652 0.13494433 0)
(-0.015518895 0.096482706 0)
(-0.019966443 0.048706544 0)
(-0.030957039 -0.01039362 0)
(-0.049269474 -0.082900721 0)
(-0.074430153 -0.17012388 0)
(-0.10330228 -0.27048389 0)
(-0.1272734 -0.37367626 0)
(-0.12974597 -0.44866742 0)
(-0.094918474 -0.42748689 0)
(-0.0309309 -0.21611654 0)
(-0.009301191 0.086948888 0)
(-0.027438273 0.18184088 0)
(-0.040995833 0.22301309 0)
(-0.042702034 0.23376471 0)
(-0.034435654 0.22877701 0)
(-0.019659262 0.21590071 0)
(-0.0012797552 0.19876327 0)
(0.018301303 0.1785549 0)
(0.037026101 0.15508105 0)
(0.053010751 0.12736372 0)
(0.064378379 0.093946292 0)
(0.069190418 0.053028549 0)
(0.065377848 0.0024785804 0)
(0.051013789 -0.060323229 0)
(0.024613271 -0.13836177 0)
(-0.013727082 -0.23415829 0)
(-0.058773477 -0.34515817 0)
(-0.093523745 -0.44952745 0)
(-0.094475308 -0.47557481 0)
(-0.039217024 -0.28047377 0)
(-0.018581132 0.11087142 0)
(-0.046044686 0.20177065 0)
(-0.05524236 0.22791931 0)
(-0.044005111 0.22500099 0)
(-0.019400344 0.21059497 0)
(0.012299052 0.19226353 0)
(0.046953956 0.17277207 0)
(0.081712075 0.15264601 0)
(0.11439474 0.13135034 0)
(0.14311078 0.10779834 0)
(0.16597652 0.080598906 0)
(0.18094407 0.048122675 0)
(0.18554287 0.0084614476 0)
(0.17713659 -0.04080533 0)
(0.15273444 -0.10316539 0)
(0.10946786 -0.18389751 0)
(0.047223579 -0.28854786 0)
(-0.021451121 -0.41050402 0)
(-0.072258494 -0.49100989 0)
(-0.041148718 -0.35053727 0)
(-0.033352277 0.15561733 0)
(-0.068603848 0.2204034 0)
(-0.055194445 0.21728673 0)
(-0.016091919 0.1953152 0)
(0.034491324 0.17091253 0)
(0.088481821 0.14848397 0)
(0.14173762 0.12860382 0)
(0.19193467 0.11057177 0)
(0.23750475 0.093295311 0)
(0.27708446 0.075576345 0)
(0.30918431 0.056185847 0)
(0.33201257 0.033829994 0)
(0.3431489 0.0070352591 0)
(0.33980632 -0.025902531 0)
(0.31811415 -0.067734885 0)
(0.27326264 -0.12410287 0)
(0.20043579 -0.205844 0)
(0.10213151 -0.32506678 0)
(-0.012391559 -0.45456914 0)
(-0.023757753 -0.40863844 0)
(-0.033080529 0.23907506 0)
(-0.042646149 0.21792136 0)
(0.0422066 0.16426522 0)
(0.12760035 0.1278325 0)
(0.20768898 0.10143087 0)
(0.28026745 0.08165327 0)
(0.34485425 0.066643907 0)
(0.40156058 0.054700154 0)
(0.45052613 0.044398281 0)
(0.49159552 0.034640488 0)
(0.5241382 0.024552677 0)
(0.54696505 0.013384869 0)
(0.55820464 0.00040335669 0)
(0.55569536 -0.015133698 0)
(0.53551592 -0.034966069 0)
(0.49243942 -0.062486055 0)
(0.4179678 -0.1069466 0)
(0.30410255 -0.19317511 0)
(0.12313585 -0.33691884 0)
(0.052373561 -0.39437894 0)
(0.24299994 0.15257545 0)
(0.305298 0.11854378 0)
(0.4548142 0.076108508 0)
(0.56000981 0.050839925 0)
(0.63223196 0.035125333 0)
(0.68654509 0.024811346 0)
(0.72943149 0.017959207 0)
(0.76378744 0.013255318 0)
(0.79126922 0.0097620016 0)
(0.81274125 0.006854594 0)
(0.82840199 0.0041191142 0)
(0.83793618 0.0012776744 0)
(0.84056504 -0.0018434931 0)
(0.83497218 -0.0053255241 0)
(0.81886547 -0.0098283168 0)
(0.78942847 -0.016232353 0)
(0.73784332 -0.026935591 0)
(0.65316808 -0.051286631 0)
(0.45609785 -0.11374619 0)
(0.31788989 -0.17206016 0)
)
;

boundaryField
{
    movingWall
    {
        type            fixedValue;
        value           uniform (1 0 0);
    }
    fixedWalls
    {
        type            fixedValue;
        value           uniform (0 0 0);
    }
    frontAndBack
    {
        type            empty;
    }
}


// ************************************************************************* //
