/*--------------------------------*- C++ -*----------------------------------*\
| =========                 |                                                 |
| \\      /  F ield         | OpenFOAM: The Open Source CFD Toolbox           |
|  \\    /   O peration     | Version:  2112                                  |
|   \\  /    A nd           | Website:  www.openfoam.com                      |
|    \\/     M anipulation  |                                                 |
\*---------------------------------------------------------------------------*/
FoamFile
{
    version     2.0;
    format      ascii;
    arch        "LSB;label=32;scalar=64";
    class       volScalarField;
    location    "20";
    object      T;
}
// * * * * * * * * * * * * * * * * * * * * * * * * * * * * * * * * * * * * * //

dimensions      [0 0 0 1 0 0 0];

internalField   nonuniform List<scalar> 
10000
(
0.998071
1.00291
0.998145
0.998894
0.999032
0.998941
0.998897
0.998142
1.00285
0.998104
0.99028
0.996769
0.992369
0.993673
0.993953
0.993879
0.993673
0.99235
0.996577
0.99041
0.99098
0.995417
0.992463
0.993284
0.993526
0.993589
0.993308
0.992494
0.995313
0.991013
0.99289
0.995754
0.993981
0.994296
0.994409
0.994501
0.994346
0.994057
0.99587
0.992844
0.992576
0.994665
0.993901
0.994125
0.994209
0.994261
0.99417
0.993952
0.994847
0.992585
0.990561
0.992188
0.992078
0.992406
0.992542
0.992574
0.992444
0.992114
0.992313
0.990581
0.987063
0.988453
0.988786
0.989285
0.989513
0.989534
0.989315
0.988819
0.988514
0.987072
0.9815
0.982881
0.983659
0.984391
0.984753
0.984764
0.984416
0.983691
0.982936
0.981536
0.973203
0.974782
0.976053
0.977106
0.977645
0.977654
0.977136
0.9761
0.974856
0.973273
0.961507
0.963455
0.965309
0.966773
0.967538
0.967551
0.966818
0.96538
0.963566
0.961622
0.945695
0.948152
0.950681
0.95267
0.953702
0.95374
0.952748
0.950794
0.94834
0.945842
0.925042
0.928134
0.931442
0.934059
0.935412
0.935482
0.934184
0.931622
0.928428
0.92524
0.898885
0.902729
0.906933
0.910239
0.91199
0.912074
0.910428
0.907213
0.903127
0.899259
0.866712
0.871379
0.876552
0.880621
0.882812
0.882926
0.880913
0.876993
0.871952
0.867345
0.82822
0.833791
0.839963
0.844827
0.847497
0.847632
0.845247
0.840637
0.83463
0.829242
0.783404
0.789905
0.797057
0.802737
0.805899
0.806072
0.803349
0.798072
0.791167
0.784972
0.732719
0.739967
0.74807
0.754564
0.758198
0.75851
0.755524
0.749599
0.741889
0.735006
0.676841
0.684678
0.693658
0.700865
0.704961
0.705477
0.702326
0.695922
0.687521
0.680176
0.616644
0.625043
0.634725
0.642536
0.647088
0.647838
0.644661
0.638021
0.629175
0.621468
0.553466
0.562326
0.572511
0.580804
0.585821
0.586859
0.583838
0.577221
0.568188
0.560377
0.48892
0.497965
0.508449
0.517121
0.522563
0.524022
0.521381
0.515039
0.506166
0.498513
0.424488
0.433512
0.444067
0.452993
0.458825
0.46085
0.458831
0.453078
0.444739
0.437454
0.361638
0.370512
0.380907
0.389923
0.396146
0.398852
0.397724
0.392935
0.385455
0.378828
0.301835
0.310367
0.320387
0.329342
0.335933
0.339445
0.339477
0.336022
0.329751
0.324067
0.246302
0.254301
0.263739
0.272468
0.279368
0.283773
0.285212
0.283461
0.278756
0.274269
0.196009
0.203298
0.211945
0.220254
0.227341
0.232649
0.235675
0.235989
0.233237
0.230175
0.151649
0.15806
0.165715
0.173373
0.180437
0.18652
0.191175
0.193848
0.193452
0.191947
0.113635
0.119027
0.125499
0.132246
0.138973
0.145522
0.151634
0.15688
0.159598
0.159911
0.0820921
0.0863653
0.0915078
0.0970836
0.103067
0.109547
0.116535
0.124059
0.130529
0.1333
0.0568641
0.0599952
0.063743
0.0679531
0.0727897
0.0785429
0.0855849
0.0948068
0.108277
0.119702
1.00283
1.00825
1.00328
1.00419
1.00437
1.00437
1.00419
1.00331
1.00816
1.00284
0.996504
1.00526
1.00083
1.00227
1.00266
1.0027
1.00227
1.00095
1.00521
0.996549
0.995416
1.00222
0.999706
1.00036
1.00061
1.00058
1.00034
0.999785
1.00233
0.995332
0.995879
0.999971
0.998617
0.998697
0.998752
0.998656
0.998649
0.998543
0.999908
0.995937
0.994835
0.997207
0.996549
0.996567
0.996586
0.996524
0.996529
0.996461
0.997084
0.994926
0.992297
0.993908
0.993828
0.993958
0.994014
0.993987
0.993942
0.993785
0.993897
0.992375
0.98846
0.989748
0.990132
0.990444
0.990588
0.990581
0.990445
0.990127
0.989847
0.988556
0.982862
0.984115
0.984852
0.985406
0.985684
0.985686
0.98542
0.984873
0.984222
0.982965
0.974765
0.976182
0.977315
0.978184
0.978638
0.978644
0.978211
0.977365
0.97629
0.974881
0.963443
0.965176
0.966804
0.968065
0.968741
0.968753
0.968112
0.966883
0.965304
0.963592
0.948156
0.950333
0.952594
0.954311
0.955278
0.955275
0.954381
0.952714
0.95052
0.948384
0.928158
0.930892
0.933899
0.936147
0.937466
0.937438
0.936256
0.934085
0.931168
0.928499
0.902748
0.90613
0.909915
0.912831
0.914489
0.914507
0.913009
0.910197
0.906517
0.903209
0.871384
0.875495
0.880128
0.883777
0.885808
0.885883
0.884046
0.880552
0.876048
0.872047
0.833772
0.838644
0.844134
0.848563
0.850992
0.851174
0.849002
0.844777
0.839442
0.834733
0.78984
0.795517
0.801863
0.807063
0.809906
0.810237
0.807752
0.802833
0.796686
0.791293
0.739853
0.746348
0.753581
0.759456
0.762768
0.763143
0.760398
0.755008
0.748076
0.742064
0.684556
0.691648
0.699711
0.706257
0.710051
0.710487
0.707576
0.701798
0.694256
0.687737
0.624943
0.632495
0.641223
0.648381
0.652629
0.653264
0.650326
0.644255
0.636325
0.629464
0.562198
0.570156
0.579301
0.586974
0.591593
0.592589
0.589792
0.583632
0.575571
0.568574
0.497725
0.505916
0.515342
0.523366
0.528381
0.529793
0.527334
0.521416
0.513461
0.506612
0.433132
0.441389
0.450937
0.459147
0.464591
0.466487
0.464607
0.45928
0.45172
0.445282
0.370013
0.378168
0.387597
0.395897
0.401728
0.404271
0.403224
0.398784
0.391988
0.386189
0.309752
0.317637
0.326741
0.335002
0.341192
0.344511
0.344557
0.341346
0.335662
0.33076
0.25358
0.261025
0.26961
0.27768
0.284177
0.28836
0.289741
0.288118
0.283898
0.280145
0.202498
0.209332
0.217203
0.224904
0.231598
0.236658
0.239558
0.239879
0.23751
0.235151
0.15723
0.163289
0.170257
0.177367
0.184061
0.18988
0.194353
0.196921
0.1968
0.195986
0.118229
0.123362
0.129244
0.135513
0.1419
0.14818
0.154061
0.159099
0.162056
0.16312
0.0856634
0.0897557
0.0944078
0.0995783
0.105261
0.111478
0.118195
0.125525
0.131916
0.135712
0.0594337
0.0624386
0.0657919
0.0696658
0.0742389
0.0797399
0.0864827
0.0956061
0.109383
0.1206
0.998156
1.00332
0.998031
0.998824
0.99901
0.999027
0.998802
0.998029
1.00333
0.998141
0.992366
1.0009
0.995988
0.997315
0.997764
0.997837
0.997346
0.996113
1.00097
0.992338
0.99248
0.999726
0.99684
0.997365
0.997697
0.997731
0.997424
0.996985
0.999772
0.992501
0.993992
0.998593
0.997335
0.997392
0.997531
0.997532
0.997424
0.997363
0.998488
0.994108
0.993902
0.99651
0.996197
0.996277
0.99635
0.996345
0.996288
0.996179
0.996407
0.994025
0.992082
0.993801
0.994002
0.994201
0.994285
0.99428
0.994204
0.993973
0.993753
0.992187
0.988797
0.990121
0.990631
0.990986
0.991142
0.991138
0.990986
0.990608
0.990114
0.98888
0.98367
0.98485
0.985618
0.986173
0.986444
0.986443
0.986177
0.985615
0.984873
0.98374
0.97606
0.977316
0.978393
0.979205
0.979626
0.979631
0.979221
0.978417
0.97737
0.976148
0.965305
0.966801
0.968275
0.969415
0.970025
0.970037
0.969452
0.968333
0.966895
0.96543
0.950691
0.952552
0.954523
0.956065
0.956909
0.956928
0.956131
0.954627
0.9527
0.950872
0.931474
0.933804
0.936371
0.938392
0.939516
0.939545
0.9385
0.936537
0.934032
0.931745
0.90695
0.909842
0.913089
0.915669
0.917108
0.917157
0.915836
0.913348
0.910185
0.907361
0.87655
0.880081
0.884075
0.887274
0.88906
0.88914
0.887523
0.884468
0.880592
0.877177
0.839919
0.844127
0.848903
0.852764
0.854925
0.855054
0.853138
0.849494
0.844887
0.840857
0.796974
0.801872
0.80743
0.811962
0.814519
0.814723
0.812529
0.808316
0.802992
0.798362
0.747958
0.753512
0.75983
0.765006
0.767976
0.76828
0.765859
0.761145
0.755163
0.749992
0.693459
0.699597
0.706616
0.71239
0.715772
0.716212
0.713649
0.708545
0.702019
0.696409
0.634418
0.641054
0.648658
0.654965
0.658742
0.659375
0.656787
0.651448
0.644552
0.638644
0.572063
0.579079
0.587119
0.593873
0.59803
0.598937
0.596472
0.591093
0.58404
0.578015
0.507812
0.515072
0.523387
0.53048
0.535014
0.53629
0.534131
0.528954
0.521987
0.516058
0.443204
0.450562
0.458979
0.466295
0.471205
0.47296
0.471321
0.466626
0.460021
0.45442
0.379778
0.387086
0.395428
0.402853
0.40813
0.410487
0.409604
0.405698
0.399758
0.394723
0.318974
0.326087
0.334177
0.341591
0.347219
0.350296
0.350415
0.347625
0.342675
0.338452
0.262062
0.268832
0.27649
0.283758
0.289692
0.293578
0.29493
0.293599
0.289986
0.286822
0.210075
0.216342
0.223389
0.230345
0.236486
0.241198
0.243963
0.24444
0.242559
0.240718
0.163774
0.169379
0.175629
0.18207
0.18823
0.193662
0.197899
0.200486
0.200769
0.200442
0.123651
0.128435
0.133711
0.139395
0.145285
0.151154
0.15671
0.161634
0.164944
0.166615
0.0899191
0.0937559
0.0979106
0.102587
0.107825
0.113627
0.119962
0.127051
0.133736
0.138333
0.062533
0.0653582
0.0683146
0.0717864
0.0759792
0.081089
0.087421
0.0961743
0.11026
0.122684
0.998907
1.00421
0.998811
0.999627
0.999834
0.999835
0.999607
0.998792
1.0042
0.998888
0.993685
1.00228
0.997291
0.998568
0.999015
0.999042
0.998573
0.997352
1.00231
0.993622
0.993316
1.00034
0.997363
0.997755
0.998059
0.998083
0.997786
0.997462
1.00034
0.993305
0.994307
0.998689
0.997406
0.997352
0.997459
0.997471
0.997381
0.997443
0.998583
0.994423
0.994132
0.996559
0.996286
0.996309
0.996355
0.996359
0.996325
0.996285
0.996465
0.994272
0.99242
0.993946
0.994201
0.99439
0.994459
0.99446
0.994401
0.99419
0.9939
0.992541
0.989291
0.990433
0.990983
0.991343
0.99149
0.991491
0.991351
0.990974
0.990426
0.989395
0.984387
0.985398
0.986169
0.986714
0.986971
0.986974
0.986724
0.986174
0.985421
0.984482
0.977095
0.978178
0.979201
0.979969
0.980361
0.980367
0.979987
0.979228
0.978228
0.977202
0.966757
0.968061
0.969415
0.970462
0.971019
0.97103
0.970495
0.969469
0.968145
0.966896
0.95266
0.954291
0.956069
0.957462
0.958222
0.95824
0.95752
0.956164
0.954431
0.952849
0.934052
0.936107
0.938396
0.940207
0.941208
0.941237
0.940303
0.938552
0.936325
0.934325
0.91022
0.912784
0.915663
0.917959
0.919239
0.919288
0.918112
0.915906
0.913111
0.910626
0.880575
0.883715
0.887247
0.890087
0.891679
0.891757
0.890322
0.887619
0.8842
0.88118
0.844729
0.848487
0.852711
0.856132
0.858064
0.858186
0.856489
0.85327
0.849203
0.845624
0.802563
0.806948
0.811878
0.815895
0.818184
0.818372
0.81643
0.812709
0.808002
0.803874
0.754281
0.759267
0.764886
0.769485
0.772142
0.77242
0.770276
0.766107
0.760811
0.756185
0.700433
0.705964
0.712214
0.717358
0.720386
0.72079
0.718517
0.713992
0.708205
0.703167
0.641916
0.647913
0.654695
0.660325
0.663718
0.664303
0.662003
0.657256
0.651123
0.645799
0.579917
0.586279
0.593467
0.599507
0.603255
0.604091
0.601899
0.597108
0.590813
0.585363
0.515834
0.522447
0.529898
0.536259
0.540357
0.541533
0.539615
0.534994
0.528754
0.523371
0.4512
0.45794
0.465501
0.472081
0.476529
0.478147
0.476699
0.472502
0.466567
0.46146
0.387564
0.394291
0.401807
0.408503
0.413298
0.415474
0.414717
0.411228
0.405877
0.401271
0.326376
0.332952
0.340263
0.346966
0.352098
0.354946
0.355112
0.352641
0.348185
0.344321
0.268917
0.275208
0.282142
0.28873
0.294161
0.297768
0.299079
0.29796
0.294744
0.291876
0.216241
0.222095
0.228484
0.234804
0.240443
0.244831
0.247467
0.248048
0.246477
0.24489
0.169137
0.174396
0.180065
0.185923
0.191596
0.196669
0.200694
0.203282
0.203826
0.203759
0.128124
0.13263
0.137406
0.142573
0.148007
0.153498
0.158777
0.163618
0.167141
0.169144
0.0934514
0.0970704
0.100807
0.105044
0.109873
0.115299
0.121307
0.128197
0.135079
0.140162
0.0651138
0.0677744
0.0703958
0.0735116
0.0773593
0.0821243
0.088113
0.0966073
0.110872
0.123945
0.9989
1.00445
0.999026
0.999786
0.999996
0.999995
0.999773
0.999014
1.00446
0.998885
0.993805
1.00277
0.997827
0.999026
0.999451
0.999462
0.99903
0.997881
1.00282
0.993762
0.993668
1.00042
0.997693
0.998078
0.998376
0.998391
0.998104
0.997786
1.00044
0.993665
0.994521
0.998605
0.997509
0.997435
0.997534
0.997547
0.997462
0.997551
0.998527
0.994627
0.994258
0.996518
0.996331
0.996335
0.996367
0.996373
0.99635
0.996335
0.99644
0.994395
0.992565
0.993985
0.99427
0.994449
0.994504
0.994508
0.99446
0.994262
0.993942
0.992696
0.989519
0.990574
0.99113
0.991485
0.991621
0.991624
0.991494
0.991125
0.990566
0.989632
0.984741
0.985675
0.986432
0.986967
0.987212
0.987215
0.986979
0.986443
0.985695
0.984847
0.977621
0.978636
0.979614
0.980357
0.980731
0.980737
0.980376
0.979645
0.978675
0.97774
0.967511
0.968732
0.970017
0.971014
0.971543
0.971554
0.971048
0.970072
0.968809
0.967654
0.953694
0.955218
0.956901
0.958213
0.958927
0.958946
0.958269
0.956991
0.955355
0.953883
0.935411
0.93734
0.939495
0.941191
0.942127
0.942158
0.941283
0.939642
0.937554
0.935686
0.911952
0.914363
0.917063
0.919211
0.920406
0.920456
0.919358
0.917299
0.914686
0.912356
0.882714
0.885673
0.888977
0.891632
0.893119
0.893197
0.891861
0.889343
0.886152
0.883313
0.847292
0.85085
0.854792
0.857989
0.859796
0.859915
0.858336
0.85534
0.851544
0.848174
0.80555
0.809715
0.814319
0.81807
0.820212
0.82039
0.818585
0.815122
0.810727
0.806833
0.757675
0.762406
0.767671
0.771963
0.774451
0.774715
0.772721
0.768838
0.763889
0.759517
0.704189
0.709437
0.715305
0.72011
0.722947
0.723332
0.721215
0.716996
0.71158
0.70681
0.64596
0.651661
0.658034
0.663302
0.666483
0.667041
0.664897
0.660464
0.654712
0.649661
0.584164
0.590223
0.596982
0.602643
0.606164
0.606959
0.604915
0.600433
0.594514
0.589333
0.520181
0.526513
0.533515
0.539482
0.543338
0.544454
0.542666
0.538337
0.532456
0.527323
0.455539
0.462037
0.469135
0.475314
0.479503
0.48104
0.479694
0.475756
0.470149
0.465268
0.391815
0.398282
0.405367
0.411665
0.416188
0.418257
0.417564
0.414288
0.409222
0.404812
0.330437
0.336753
0.343665
0.349978
0.354828
0.357541
0.357725
0.355414
0.351191
0.347493
0.272687
0.27876
0.285308
0.29152
0.296663
0.300106
0.301386
0.30037
0.297335
0.294605
0.219647
0.22531
0.231346
0.23731
0.242659
0.246857
0.249413
0.25004
0.248608
0.247143
0.172113
0.177208
0.182562
0.188092
0.193482
0.198346
0.202247
0.20483
0.205486
0.205545
0.13062
0.134986
0.139489
0.144363
0.149531
0.154804
0.159925
0.164716
0.168339
0.1705
0.0954326
0.0989351
0.102444
0.106429
0.111021
0.116235
0.122064
0.128863
0.135825
0.141129
0.0665648
0.0691372
0.0715728
0.0744852
0.0781354
0.0827082
0.0885162
0.0968711
0.111195
0.124491
0.999041
1.00437
0.999
0.999823
1.00004
1.00003
0.999809
0.998987
1.00438
0.999023
0.993952
1.00266
0.997743
0.999002
0.999448
0.999455
0.999004
0.997797
1.00271
0.993889
0.993512
1.00063
0.99771
0.998061
0.998356
0.998368
0.998084
0.997797
1.00063
0.993495
0.9944
0.998782
0.997548
0.997467
0.997562
0.997574
0.997491
0.997585
0.998696
0.994508
0.994212
0.996598
0.996354
0.996357
0.996386
0.996393
0.99637
0.996356
0.996516
0.994354
0.992547
0.994018
0.994283
0.994459
0.994512
0.994517
0.994469
0.994273
0.99397
0.992684
0.989511
0.990592
0.991136
0.99149
0.991624
0.991628
0.991499
0.99113
0.990575
0.989632
0.984721
0.985715
0.986437
0.986971
0.987215
0.987219
0.986982
0.986444
0.985699
0.984852
0.977587
0.978715
0.979624
0.980362
0.980735
0.980741
0.98038
0.979648
0.97868
0.977746
0.967512
0.968759
0.970027
0.971022
0.97155
0.97156
0.971054
0.970078
0.968818
0.967665
0.953724
0.955178
0.956908
0.958222
0.958936
0.958956
0.95828
0.957001
0.955369
0.953898
0.935433
0.937314
0.939504
0.941203
0.94214
0.942172
0.941299
0.939658
0.937573
0.935706
0.911973
0.914362
0.917076
0.919229
0.920425
0.920476
0.919381
0.917323
0.914713
0.912384
0.882724
0.885716
0.889
0.891658
0.893146
0.893226
0.891892
0.889376
0.886188
0.883351
0.847274
0.850962
0.854831
0.858027
0.859833
0.859953
0.858377
0.855385
0.851592
0.848223
0.805538
0.809823
0.814368
0.818116
0.820259
0.820438
0.818636
0.815178
0.810786
0.806895
0.757707
0.762427
0.767721
0.772017
0.774508
0.774774
0.772784
0.768905
0.76396
0.759591
0.704249
0.709418
0.715357
0.720172
0.723013
0.723403
0.721291
0.717076
0.711664
0.706896
0.646023
0.651673
0.658092
0.663372
0.666559
0.667121
0.664983
0.660555
0.654806
0.649758
0.584224
0.59027
0.59705
0.602721
0.606248
0.607048
0.605009
0.600532
0.594617
0.589437
0.520249
0.526568
0.533593
0.539568
0.543429
0.54455
0.542767
0.538443
0.532565
0.527435
0.455626
0.462083
0.469219
0.475405
0.4796
0.481142
0.4798
0.475866
0.470263
0.465383
0.391901
0.398355
0.405457
0.41176
0.416289
0.418361
0.417671
0.414398
0.409336
0.404927
0.330522
0.336846
0.343757
0.350075
0.354929
0.357644
0.35783
0.355522
0.351302
0.347604
0.27278
0.278843
0.2854
0.291616
0.296761
0.300206
0.301487
0.300473
0.297441
0.294711
0.219738
0.225394
0.231435
0.237401
0.242753
0.246951
0.249508
0.250136
0.248707
0.247245
0.172199
0.177292
0.182647
0.188177
0.193569
0.198433
0.202334
0.204917
0.205573
0.205632
0.130697
0.135067
0.139568
0.144442
0.149611
0.154882
0.159999
0.164784
0.168421
0.170613
0.0954988
0.0990104
0.102515
0.106501
0.111094
0.116307
0.122138
0.12895
0.135893
0.141139
0.0666212
0.0692
0.0716352
0.0745487
0.0782003
0.0827742
0.0885831
0.0969352
0.111283
0.12468
0.998882
1.0042
0.998817
0.999611
0.999812
0.999809
0.999594
0.998799
1.00421
0.998862
0.993635
1.0023
0.997328
0.998571
0.999011
0.999013
0.998569
0.997371
1.00235
0.993569
0.993273
1.00037
0.997403
0.997774
0.998072
0.998082
0.997792
0.997485
1.00038
0.993249
0.994331
0.998674
0.997409
0.997368
0.997475
0.997485
0.997387
0.997442
0.998581
0.994433
0.994161
0.996541
0.996276
0.996313
0.99636
0.996365
0.996324
0.996276
0.996453
0.994301
0.992433
0.993945
0.994195
0.994394
0.994464
0.994468
0.994402
0.994185
0.993895
0.992567
0.989295
0.990443
0.990978
0.991346
0.991495
0.991498
0.991353
0.99097
0.990426
0.989416
0.984382
0.985417
0.986165
0.986718
0.986977
0.986981
0.986729
0.986174
0.985427
0.984502
0.977093
0.978207
0.979205
0.979978
0.980371
0.980378
0.979997
0.979235
0.978244
0.977224
0.966768
0.968089
0.969432
0.97048
0.971038
0.971049
0.970516
0.969489
0.968173
0.966928
0.952684
0.954319
0.9561
0.957492
0.958251
0.958271
0.957554
0.956198
0.954473
0.952898
0.934089
0.936144
0.938439
0.940251
0.94125
0.941285
0.940354
0.938604
0.936384
0.934391
0.910269
0.912832
0.915718
0.91802
0.919299
0.919356
0.918184
0.915981
0.913194
0.910714
0.880628
0.883781
0.887316
0.890166
0.891761
0.891847
0.890418
0.887721
0.884312
0.881296
0.844787
0.848584
0.852801
0.856236
0.858175
0.858303
0.856614
0.853405
0.849346
0.845772
0.802639
0.807068
0.811998
0.816026
0.818326
0.818518
0.816586
0.812878
0.80818
0.804058
0.754389
0.759398
0.765038
0.769645
0.772314
0.772599
0.770467
0.76631
0.761025
0.756405
0.700576
0.706111
0.712393
0.717549
0.720589
0.721004
0.718743
0.714231
0.708457
0.703426
0.642068
0.648102
0.654897
0.660544
0.66395
0.664548
0.662261
0.657529
0.651407
0.646088
0.580065
0.586518
0.593692
0.59975
0.603513
0.604362
0.602183
0.597407
0.591121
0.585675
0.516012
0.522676
0.530145
0.536522
0.540636
0.541824
0.539919
0.535314
0.529082
0.5237
0.451415
0.458148
0.465763
0.472359
0.476822
0.478452
0.477017
0.472833
0.466907
0.4618
0.387797
0.394515
0.402078
0.408791
0.413599
0.415786
0.415039
0.41156
0.406218
0.401613
0.326619
0.333196
0.340535
0.347256
0.352399
0.355256
0.355429
0.352966
0.348517
0.344655
0.269164
0.275457
0.282411
0.289014
0.294454
0.298067
0.299383
0.298271
0.295059
0.292194
0.216484
0.222341
0.228744
0.235075
0.24072
0.245112
0.24775
0.248335
0.246771
0.245188
0.169368
0.174632
0.180309
0.186176
0.191853
0.196927
0.200951
0.203542
0.204092
0.204029
0.128336
0.132848
0.13763
0.142804
0.14824
0.15373
0.159002
0.163845
0.167377
0.169391
0.0936387
0.0972658
0.101008
0.105251
0.110083
0.115508
0.121507
0.128399
0.13528
0.140364
0.0652729
0.0679428
0.0705704
0.0736927
0.0775453
0.0823111
0.088294
0.096781
0.111055
0.124131
0.998147
1.00331
0.998036
0.998813
0.999008
0.999005
0.998799
0.998023
1.00333
0.998128
0.992343
1.00093
0.996096
0.997347
0.997785
0.997794
0.997363
0.996167
1.00102
0.992291
0.992474
0.999784
0.996964
0.99744
0.997763
0.997779
0.997478
0.997081
0.999842
0.992462
0.994032
0.998562
0.997346
0.997418
0.997555
0.997564
0.997436
0.997381
0.998461
0.994127
0.993922
0.996466
0.996165
0.996267
0.996339
0.996343
0.996272
0.996159
0.996358
0.994054
0.992087
0.993779
0.993963
0.994181
0.994268
0.99427
0.994183
0.993942
0.993712
0.99221
0.988796
0.990125
0.990597
0.99097
0.991129
0.99113
0.990971
0.990578
0.990089
0.9889
0.983652
0.984862
0.985601
0.986167
0.986441
0.986444
0.986174
0.985599
0.984868
0.983763
0.976048
0.977343
0.978399
0.979216
0.979638
0.979644
0.979234
0.978423
0.977388
0.976178
0.96532
0.966849
0.968306
0.969448
0.970058
0.970071
0.969487
0.968367
0.96694
0.965482
0.950728
0.952607
0.954577
0.956124
0.956964
0.956987
0.956193
0.954688
0.952776
0.950958
0.931531
0.933872
0.936449
0.938479
0.939594
0.939632
0.938593
0.936631
0.93414
0.931865
0.907026
0.909928
0.91319
0.915782
0.917216
0.917277
0.915963
0.91348
0.91033
0.907519
0.876647
0.880192
0.884195
0.887412
0.889204
0.889298
0.887691
0.884642
0.880779
0.877376
0.840041
0.844283
0.849058
0.852936
0.855114
0.855256
0.853353
0.849724
0.845125
0.841108
0.797118
0.802059
0.807632
0.812178
0.814759
0.814971
0.812794
0.808604
0.803287
0.798669
0.748132
0.753722
0.760083
0.765277
0.768268
0.76858
0.766179
0.76149
0.75552
0.750357
0.693683
0.699845
0.706917
0.712716
0.716118
0.716572
0.714031
0.708948
0.702441
0.696836
0.634684
0.641348
0.648994
0.655334
0.659137
0.659791
0.657223
0.651904
0.645025
0.639121
0.572353
0.579417
0.587488
0.594275
0.598466
0.599395
0.596949
0.591592
0.584552
0.578529
0.508123
0.515434
0.52379
0.530913
0.53548
0.536777
0.534638
0.529483
0.522527
0.516598
0.443539
0.450938
0.459408
0.466754
0.471691
0.473468
0.471847
0.46717
0.460577
0.45497
0.380135
0.387476
0.395871
0.403328
0.408629
0.411006
0.410138
0.406245
0.400315
0.395274
0.319346
0.326486
0.334622
0.342068
0.347718
0.350811
0.350942
0.348163
0.343219
0.338994
0.262436
0.269228
0.276924
0.284221
0.290174
0.294073
0.295433
0.294112
0.290504
0.287343
0.210438
0.216726
0.223802
0.230782
0.236938
0.24166
0.244431
0.244916
0.243043
0.241211
0.164116
0.169739
0.176012
0.182472
0.188644
0.194083
0.198323
0.200917
0.201211
0.200902
0.123961
0.128763
0.134058
0.139757
0.145657
0.151529
0.157084
0.162017
0.165347
0.167055
0.0901922
0.0940458
0.0982162
0.102907
0.108155
0.11396
0.120295
0.127401
0.134094
0.138711
0.0627645
0.0656058
0.0685765
0.0720621
0.076266
0.0813823
0.0877112
0.0964852
0.110619
0.123052
1.00284
1.00815
1.00331
1.00419
1.00437
1.00437
1.00419
1.00332
1.00818
1.00283
0.996554
1.00518
1.00093
1.00229
1.00268
1.0027
1.00231
1.00101
1.00529
0.996493
0.995286
1.00239
0.999763
1.00036
1.00065
1.00066
1.00037
0.999843
1.0024
0.995257
0.995814
1.00004
0.998498
0.998611
0.998727
0.998724
0.998588
0.998465
0.999794
0.995919
0.994831
0.997128
0.996405
0.996479
0.996538
0.996533
0.996457
0.996361
0.99697
0.994955
0.992334
0.993876
0.993743
0.993905
0.993982
0.993981
0.993896
0.993712
0.993844
0.992433
0.98849
0.989884
0.990108
0.990429
0.990581
0.990581
0.990428
0.990089
0.989839
0.988617
0.98293
0.984222
0.984861
0.985418
0.985697
0.9857
0.985428
0.984867
0.984243
0.983023
0.974875
0.976255
0.977352
0.978217
0.978668
0.978677
0.978241
0.977387
0.976333
0.974944
0.963482
0.965296
0.966865
0.968123
0.968794
0.96881
0.968169
0.966939
0.965374
0.963672
0.948177
0.950394
0.952639
0.954384
0.955325
0.955351
0.954464
0.952774
0.950605
0.948467
0.928227
0.930892
0.933922
0.936237
0.937495
0.937539
0.936369
0.934135
0.931267
0.928587
0.902844
0.906178
0.909994
0.91296
0.914585
0.914654
0.913166
0.910321
0.90667
0.903364
0.871511
0.87565
0.88027
0.883954
0.885984
0.886088
0.884262
0.880762
0.876272
0.872281
0.833894
0.838929
0.844373
0.84881
0.851273
0.851428
0.849264
0.845097
0.839751
0.835048
0.789957
0.795797
0.802179
0.807377
0.810293
0.810523
0.808049
0.803243
0.797069
0.791675
0.740079
0.746521
0.753899
0.75983
0.763206
0.763546
0.760821
0.755451
0.748533
0.742521
0.684883
0.691883
0.700092
0.706699
0.710528
0.711027
0.708144
0.702336
0.694816
0.688306
0.625278
0.632868
0.641662
0.64886
0.653128
0.653844
0.650934
0.644868
0.63694
0.630097
0.562532
0.570598
0.579804
0.587484
0.592171
0.593186
0.590414
0.584318
0.576225
0.569259
0.498114
0.506403
0.515923
0.523963
0.529053
0.530468
0.528038
0.522181
0.514206
0.507357
0.43359
0.441902
0.451548
0.459814
0.465297
0.467231
0.465376
0.460063
0.452517
0.446043
0.370492
0.378692
0.38821
0.39657
0.402434
0.405014
0.403988
0.399552
0.392765
0.386931
0.310234
0.318159
0.327338
0.335655
0.341877
0.345225
0.345289
0.342083
0.336398
0.331469
0.254051
0.261531
0.270178
0.278299
0.284826
0.289032
0.290427
0.288812
0.284586
0.280811
0.202944
0.209811
0.217734
0.225475
0.232198
0.237277
0.240188
0.240519
0.238147
0.23577
0.157643
0.163731
0.17074
0.177884
0.184602
0.190439
0.19492
0.197502
0.197379
0.196553
0.1186
0.123758
0.129675
0.135972
0.142381
0.148675
0.154561
0.159623
0.162589
0.16366
0.0859882
0.0901024
0.0947824
0.0999788
0.105681
0.111911
0.118641
0.126008
0.132377
0.136146
0.0597075
0.0627316
0.0661087
0.0700062
0.0745981
0.0801147
0.0868651
0.0960492
0.109828
0.121099
0.998114
1.00285
0.998155
0.998885
0.999025
0.999021
0.998872
0.998136
1.00283
0.998117
0.990451
0.996561
0.992344
0.993603
0.993877
0.993868
0.993575
0.992303
0.996498
0.990443
0.990974
0.995335
0.99247
0.993243
0.99344
0.993436
0.993229
0.99246
0.995257
0.990989
0.992746
0.995961
0.994067
0.994383
0.994464
0.994472
0.994407
0.994117
0.995915
0.992862
0.992533
0.994953
0.993988
0.99425
0.99432
0.994332
0.99428
0.994045
0.994951
0.992638
0.990547
0.992379
0.992156
0.99252
0.99265
0.992661
0.992551
0.992203
0.99243
0.990633
0.98701
0.988563
0.988854
0.989373
0.989602
0.989611
0.989403
0.988892
0.988613
0.987123
0.981468
0.982969
0.983709
0.984459
0.984826
0.984836
0.98449
0.983755
0.983019
0.981596
0.973154
0.974869
0.976104
0.977173
0.977719
0.977731
0.97721
0.976172
0.97494
0.973355
0.961508
0.963531
0.965376
0.966857
0.967625
0.967643
0.966909
0.965474
0.963665
0.96173
0.945821
0.948212
0.950801
0.952788
0.953835
0.953865
0.952874
0.950943
0.948458
0.946022
0.925203
0.928213
0.931624
0.934216
0.935603
0.935651
0.934355
0.93184
0.928574
0.925515
0.899043
0.902847
0.907139
0.910439
0.912221
0.912295
0.910657
0.907484
0.903345
0.899567
0.866838
0.871569
0.876786
0.880874
0.883096
0.883208
0.881208
0.877325
0.872254
0.867695
0.828319
0.83405
0.840223
0.845139
0.84783
0.847998
0.845637
0.84103
0.83501
0.82965
0.783653
0.790167
0.797379
0.803118
0.806293
0.806541
0.803851
0.798554
0.79162
0.785485
0.733096
0.740248
0.748495
0.755015
0.758678
0.759045
0.756089
0.750189
0.742443
0.735614
0.677206
0.685038
0.694154
0.701394
0.70554
0.706075
0.702954
0.696593
0.688196
0.680809
0.617022
0.625505
0.635282
0.643158
0.647771
0.64854
0.645393
0.638771
0.629941
0.622188
0.553894
0.562873
0.573113
0.581508
0.586564
0.587652
0.584661
0.578026
0.569037
0.561148
0.489392
0.498529
0.509084
0.517856
0.523336
0.524848
0.522232
0.515876
0.507042
0.499278
0.424986
0.434069
0.444731
0.453731
0.459617
0.461676
0.459682
0.453935
0.445596
0.438234
0.36215
0.371073
0.381576
0.390661
0.396938
0.399677
0.39857
0.393786
0.386294
0.379616
0.302348
0.310925
0.321039
0.330063
0.336704
0.340246
0.340297
0.336845
0.33056
0.324838
0.246802
0.254842
0.264358
0.273152
0.280096
0.28453
0.285984
0.284238
0.279522
0.275007
0.196482
0.203806
0.212521
0.220886
0.228012
0.233346
0.236388
0.236711
0.233952
0.230873
0.152084
0.158528
0.166239
0.173944
0.181042
0.18715
0.191822
0.194512
0.194115
0.192601
0.114025
0.119445
0.125963
0.13275
0.139507
0.146081
0.15221
0.157487
0.160223
0.160539
0.0824304
0.0867297
0.0919099
0.0975205
0.103533
0.110037
0.117046
0.124614
0.131106
0.133878
0.0571481
0.060302
0.0640815
0.0683229
0.0731875
0.0789665
0.0860327
0.0953136
0.108865
0.120251
0.0375247
0.0395843
0.0419979
0.0447826
0.04816
0.0524182
0.0579472
0.064989
0.0769175
0.0899083
0.0234112
0.0245736
0.0258664
0.0273866
0.029329
0.0319039
0.0354376
0.0401493
0.0477223
0.059828
0.0136891
0.0142049
0.014704
0.0153074
0.01615
0.0173567
0.0191006
0.0215654
0.0251542
0.0310253
0.00743102
0.00756353
0.00761827
0.00770727
0.00790818
0.00827369
0.00885861
0.009719
0.0109151
0.0126959
0.00370823
0.0036718
0.00356113
0.00346216
0.00341321
0.00343089
0.00352554
0.00370492
0.00397697
0.00439638
0.00168615
0.00161142
0.00148862
0.00137442
0.00128664
0.00122759
0.00119545
0.0011871
0.00120074
0.00124873
0.000693275
0.000634004
0.000551743
0.000478578
0.00042069
0.000376504
0.00034276
0.000316045
0.000294107
0.000280644
0.000256093
0.00022226
0.000180701
0.000145891
0.000119178
9.88448e-05
8.27956e-05
6.93373e-05
5.74254e-05
4.86461e-05
8.45372e-05
6.93877e-05
5.24596e-05
3.91619e-05
2.94658e-05
2.23618e-05
1.69268e-05
1.24829e-05
8.7773e-06
6.40956e-06
2.49701e-05
1.93887e-05
1.36335e-05
9.38793e-06
6.47242e-06
4.45625e-06
3.00884e-06
1.90569e-06
1.1034e-06
7.60291e-07
0.0391778
0.0411463
0.0432497
0.0457586
0.0489052
0.0529259
0.0581747
0.0647689
0.0770665
0.0905382
0.0242988
0.0253946
0.0264494
0.0277457
0.0294835
0.0318253
0.0350764
0.0393497
0.0465374
0.0593444
0.0140187
0.0144864
0.0148163
0.0152519
0.015929
0.016939
0.0184289
0.0205369
0.0235857
0.0292397
0.00743254
0.00753438
0.0074895
0.00747887
0.00757863
0.00782195
0.00824403
0.00887674
0.00973565
0.0111411
0.00358345
0.00353445
0.00338284
0.00324302
0.00315318
0.00312108
0.00314929
0.00323552
0.00337357
0.00362386
0.00156264
0.00148473
0.00135467
0.00123477
0.00114053
0.00107159
0.001024
0.000991026
0.000968202
0.000970656
0.000613167
0.00055554
0.000478732
0.000411257
0.000357663
0.000315982
0.000282438
0.000252824
0.00022583
0.00020765
0.000215565
0.000184831
0.000149295
0.00011994
9.73851e-05
8.01123e-05
6.59718e-05
5.33827e-05
4.21719e-05
3.5391e-05
6.78114e-05
5.48097e-05
4.1297e-05
3.08351e-05
2.31905e-05
1.75585e-05
1.31045e-05
9.25252e-06
6.30984e-06
4.94515e-06
1.91565e-05
1.45944e-05
1.02458e-05
7.08519e-06
4.90715e-06
3.38493e-06
2.2646e-06
1.35328e-06
7.91301e-07
6.45913e-07
0.0411961
0.0430432
0.0448413
0.0470346
0.0498709
0.0535517
0.0583775
0.0644311
0.0766409
0.0908362
0.0253935
0.0264102
0.0272441
0.0283054
0.0298015
0.0318646
0.0347443
0.0385656