/*--------------------------------*- C++ -*----------------------------------*\
| =========                 |                                                 |
| \\      /  F ield         | OpenFOAM: The Open Source CFD Toolbox           |
|  \\    /   O peration     | Version:  2112                                  |
|   \\  /    A nd           | Website:  www.openfoam.com                      |
|    \\/     M anipulation  |                                                 |
\*---------------------------------------------------------------------------*/
FoamFile
{
    version     2.0;
    format      ascii;
    arch        "LSB;label=32;scalar=64";
    class       volScalarField;
    location    "40";
    object      p;
}
// * * * * * * * * * * * * * * * * * * * * * * * * * * * * * * * * * * * * * //

dimensions      [0 2 -2 0 0 0 0];

internalField   nonuniform List<scalar> 
400
(
5.2194469e-09
-0.00067287019
-0.001385348
-0.0019427061
-0.0022199993
-0.002156496
-0.0017277914
-0.0009262006
0.0002354201
0.0017074049
0.0033872855
0.0051121958
0.0066734787
0.0078491042
0.008458391
0.0084236836
0.0078133945
0.0068445146
0.0058612961
0.0052989397
0.00065784449
-4.0522706e-05
-0.00056965653
-0.00094062237
-0.0011108601
-0.0010399178
-0.00070578709
-9.5542082e-05
0.00078910096
0.0019161863
0.0032095841
0.0045547025
0.0057819614
0.0067162576
0.0072144267
0.007214531
0.0067699556
0.0060527682
0.0053105249
0.0047384828
0.0014237019
0.00044065247
-0.00011659733
-0.00045324056
-0.00061480592
-0.00058480867
-0.00034657794
0.00011974409
0.00082845767
0.0017699013
0.0028942842
0.0040981567
0.005228234
0.006110972
0.0065938719
0.0065976697
0.0061557424
0.005421512
0.0045937425
0.0037482281
0.0020141965
0.00068168672
1.6770748e-05
-0.0003588516
-0.00057154788
-0.00062655874
-0.00051008228
-0.00019063132
0.00036849935
0.0011843803
0.0022299044
0.0034174171
0.0045913581
0.0055569372
0.0061235548
0.0061665653
0.0056836255
0.0048170514
0.0037472876
0.0024735917
0.0021672671
0.00049611603
-0.00029626016
-0.00074870567
-0.0010582532
-0.0012452709
-0.0012927497
-0.001151303
-0.00075505128
-5.3103442e-05
0.00095701714
0.0022102721
0.003544698
0.0047326532
0.005521836
0.0057098798
0.0052292844
0.0042016009
0.0028061773
0.00098395341
0.0016539581
-0.00031448244
-0.0012387906
-0.0017993034
-0.0022526638
-0.0026279113
-0.0028986236
-0.0029910846
-0.002802538
-0.0022376788
-0.0012511017
0.00013088084
0.0017446311
0.0033270941
0.0045416294
0.0050657674
0.0047174871
0.003566191
0.0017895845
-0.00072593119
0.00028702047
-0.0019195744
-0.0029730025
-0.0036713863
-0.0043203001
-0.004953204
-0.0055301248
-0.005947959
-0.0060590079
-0.0057073837
-0.004775719
-0.0032587049
-0.0012665241
0.00090716098
0.0028231117
0.0039868246
0.0040250851
0.0028876989
0.00071536858
-0.0026805113
-0.0020764343
-0.0044511962
-0.0056268081
-0.0064923273
-0.0073929255
-0.0083657684
-0.0093569279
-0.010231791
-0.01079098
-0.010804848
-0.010063364
-0.0084617658
-0.0060407764
-0.003083231
-0.00012632161
0.0021126103
0.002963816
0.0021355703
-0.0003660463
-0.0048726229
-0.0055241727
-0.0079921193
-0.009277925
-0.010333793
-0.011538004
-0.012935424
-0.014462718
-0.015956332
-0.017162479
-0.017766047
-0.017438091
-0.015919481
-0.013122968
-0.0092517728
-0.0048990238
-0.0010300308
0.0012693964
0.0012777507
-0.0013339712
-0.0072016907
-0.010076919
-0.012565103
-0.01393667
-0.015184008
-0.016718385
-0.018602632
-0.020774214
-0.023048783
-0.025121706
-0.026586373
-0.026969371
-0.025812961
-0.022845694
-0.018074466
-0.012051109
-0.0059519702
-0.0013707544
0.00030057983
-0.0019472166
-0.0093822384
-0.015684995
-0.018132422
-0.019537565
-0.020926816
-0.022757743
-0.025129884
-0.027997026
-0.031166429
-0.034291495
-0.036876876
-0.038294203
-0.037844308
-0.035065881
-0.029601492
-0.021822517
-0.012985595
-0.0051849919
-0.00071576548
-0.0017642133
-0.010792269
-0.02224361
-0.024613047
-0.025945606
-0.027334971
-0.029324168
-0.032079232
-0.035588958
-0.039664679
-0.043927303
-0.047801331
-0.050530216
-0.051236509
-0.048956906
-0.043143572
-0.033769038
-0.021926362
-0.0100369
-0.0014154593
-9.8810767e-06
-0.010225633
-0.029641233
-0.031923907
-0.032978761
-0.034079889
-0.035939526
-0.038831522
-0.042795624
-0.047651608
-0.052990566
-0.058163619
-0.062284275
-0.064265558
-0.062875184
-0.057112211
-0.046476765
-0.031649107
-0.015037879
-0.00086440464
0.00464675
-0.0055215501
-0.037866026
-0.040048532
-0.040440155
-0.040752535
-0.042015073
-0.044653086
-0.048758206
-0.054144075
-0.060356058
-0.066665378
-0.072060718
-0.075268309
-0.074811386
-0.069269289
-0.057628328
-0.039961527
-0.018247987
0.0027890249
0.014445146
0.0069075367
-0.047230608
-0.049134386
-0.048140604
-0.046882309
-0.046905523
-0.048798726
-0.052668319
-0.058276035
-0.065076123
-0.072232022
-0.078595796
-0.082712348
-0.082880233
-0.077309413
-0.064523959
-0.043934972
-0.016748002
0.012502936
0.032938775
0.032408945
-0.058896805
-0.059639909
-0.055883946
-0.051941066
-0.049972328
-0.050629902
-0.053928681
-0.059495373
-0.066611887
-0.074285323
-0.081191195
-0.085679431
-0.085831822
-0.079522217
-0.064876119
-0.040689283
-0.0072409328
0.032139362
0.064981443
0.077749175
-0.07622653
-0.072613747
-0.063516209
-0.055435398
-0.050725029
-0.049781609
-0.052312362
-0.057664392
-0.064891848
-0.072774999
-0.079779394
-0.084036774
-0.08339168
-0.075348985
-0.057602694
-0.028375156
0.012933317
0.065396469
0.1155515
0.15150622
-0.10809227
-0.089556353
-0.071233854
-0.057233033
-0.049072155
-0.046330235
-0.048077284
-0.053202629
-0.060434648
-0.068295892
-0.075027422
-0.078526942
-0.076389034
-0.0658097
-0.043865501
-0.0078184642
0.044393659
0.11299815
0.18838042
0.27186076
-0.17684559
-0.10828971
-0.076202496
-0.054651259
-0.042992405
-0.038998055
-0.040570535
-0.045928068
-0.053441563
-0.061438385
-0.068027613
-0.070962586
-0.06755116
-0.05473986
-0.029148835
0.013563585
0.078146946
0.17006435
0.28949546
0.47421821
-0.37208363
-0.12470856
-0.05497311
-0.031962541
-0.022063579
-0.020300545
-0.024359482
-0.031958025
-0.041261586
-0.050640913
-0.058316928
-0.062187492
-0.059782581
-0.048056836
-0.022658551
0.02147419
0.092818709
0.21015276
0.40288841
0.77640928
)
;

boundaryField
{
    movingWall
    {
        type            zeroGradient;
    }
    fixedWalls
    {
        type            zeroGradient;
    }
    frontAndBack
    {
        type            empty;
    }
}


// ************************************************************************* //
