/*--------------------------------*- C++ -*----------------------------------*\
| =========                 |                                                 |
| \\      /  F ield         | OpenFOAM: The Open Source CFD Toolbox           |
|  \\    /   O peration     | Version:  2112                                  |
|   \\  /    A nd           | Website:  www.openfoam.com                      |
|    \\/     M anipulation  |                                                 |
\*---------------------------------------------------------------------------*/
FoamFile
{
    version     2.0;
    format      ascii;
    arch        "LSB;label=32;scalar=64";
    class       volScalarField;
    location    "7.9995";
    object      Ma;
}
// * * * * * * * * * * * * * * * * * * * * * * * * * * * * * * * * * * * * * //

dimensions      [0 0 0 0 0 0 0];

internalField   nonuniform List<scalar> 
7000
(
3.00001
3
3.00001
3
3.00001
2.99998
2.99991
2.99936
2.99869
2.99525
2.99193
2.97415
2.95514
2.88074
2.70779
2.312
1.56339
0.685604
0.253959
0.371595
0.448797
0.458225
0.44213
0.42032
0.402511
0.389993
0.378864
0.366994
0.354602
0.342001
0.328989
0.315895
0.302773
0.289149
0.275336
0.261468
0.247062
0.232417
0.217683
0.20236
0.186644
0.170889
0.15452
0.137362
0.119982
0.10199
0.082506
0.0617606
0.039717
0.0234934
3.00001
3
3.00001
3
3.00001
2.99997
2.99991
2.99937
2.99872
2.99537
2.99214
2.97482
2.95653
2.88297
2.71889
2.32895
1.58882
0.712215
0.255425
0.36655
0.441622
0.451226
0.435844
0.414546
0.396675
0.383993
0.372681
0.360681
0.348185
0.335401
0.322187
0.30896
0.295677
0.281879
0.267977
0.253999
0.239507
0.224876
0.210147
0.194866
0.179326
0.163764
0.147579
0.130782
0.113882
0.0965445
0.0782624
0.0600122
0.0432704
0.0354618
3.00001
3
3
3
3.00001
2.99997
2.99991
2.99937
2.99874
2.99546
2.9923
2.9753
2.95735
2.88451
2.72403
2.33714
1.59703
0.715226
0.24645
0.357519
0.432189
0.442352
0.427859
0.407177
0.389345
0.376537
0.365128
0.353228
0.340886
0.328092
0.314952
0.301866
0.288562
0.274843
0.26114
0.247249
0.232899
0.218516
0.203994
0.188995
0.173901
0.158822
0.143197
0.127288
0.111637
0.0959862
0.0803636
0.0664856
0.0562159
0.0536521
3.00001
3
3
3
3
2.99996
2.99991
2.99938
2.99876
2.99557
2.99251
2.97595
2.9585
2.88736
2.73031
2.34951
1.61352
0.733595
0.260523
0.361093
0.432267
0.441943
0.427905
0.407656
0.389605
0.376251
0.364337
0.352099
0.339441
0.326286
0.312858
0.299529
0.28594
0.272028
0.258187
0.244141
0.229716
0.215353
0.20087
0.186051
0.171328
0.156724
0.141803
0.127041
0.113017
0.099614
0.0872006
0.0776148
0.0718274
0.0716437
3.00001
3
3
3
3
2.99996
2.99991
2.99938
2.99879
2.99569
2.99274
2.97666
2.95974
2.89054
2.73585
2.36134
1.62603
0.745012
0.263218
0.358264
0.427209
0.437195
0.42436
0.405162
0.387402
0.374019
0.362128
0.350043
0.337528
0.324456
0.311155
0.297949
0.284431
0.270643
0.25694
0.242993
0.228723
0.21456
0.200283
0.185783
0.171544
0.157555
0.143495
0.130063
0.117818
0.106716
0.0973206
0.0910616
0.0881494
0.0890896
3.00001
3
3.00001
3
3
2.99995
2.99991
2.99939
2.99882
2.99583
2.99298
2.97743
2.96108
2.89382
2.74211
2.37397
1.64163
0.761883
0.274939
0.36
0.424603
0.434545
0.422706
0.40423
0.386255
0.372545
0.360528
0.348469
0.335986
0.323
0.309906
0.296899
0.283585
0.270095
0.256731
0.243118
0.229239
0.215511
0.201685
0.187762
0.174241
0.161069
0.148071
0.136095
0.12565
0.116711
0.109843
0.106075
0.104907
0.106527
3.00001
3
3.00001
3
3
2.99995
2.99991
2.9994
2.99886
2.99598
2.99327
2.97832
2.96263
2.89765
2.74868
2.38764
1.65787
0.779499
0.286962
0.360753
0.419843
0.431285
0.420919
0.403234
0.384928
0.370899
0.358809
0.346881
0.3346
0.321831
0.309051
0.296464
0.283572
0.270504
0.257596
0.244454
0.231134
0.218028
0.204866
0.191712
0.179114
0.166979
0.155217
0.144787
0.136079
0.129028
0.124168
0.122121
0.122214
0.124065
3.00001
3
3.00001
3
3
2.99995
2.99991
2.99942
2.99891
2.99617
2.99361
2.97933
2.96439
2.90195
2.7556
2.40238
1.67562
0.799761
0.301569
0.361718
0.414244
0.428001
0.419311
0.402371
0.383532
0.369212
0.357219
0.345609
0.333667
0.321273
0.308946
0.296809
0.284442
0.271989
0.259633
0.247046
0.234403
0.222053
0.209721
0.197537
0.186012
0.175036
0.164649
0.155762
0.148655
0.143237
0.139952
0.139211
0.139973
0.142145
3.00001
3
3.00001
3
3
2.99995
2.99991
2.99945
2.99897
2.99641
2.99407
2.98098
2.9665
2.90711
2.76267
2.41818
1.69403
0.821865
0.317099
0.362608
0.408197
0.424528
0.417671
0.401411
0.382384
0.368012
0.356258
0.345076
0.333564
0.321609
0.309797
0.29813
0.286266
0.274471
0.262821
0.25093
0.239069
0.227597
0.216206
0.205139
0.194847
0.185131
0.176112
0.168735
0.163072
0.159032
0.157027
0.157165
0.1586
0.160702
3.00001
3
3.00001
3
3
2.99996
2.99991
2.99947
2.99902
2.99664
2.99446
2.98263
2.96877
2.91287
2.77073
2.43525
1.71425
0.845806
0.333902
0.36353
0.403145
0.421461
0.416098
0.400854
0.382042
0.367578
0.356156
0.345381
0.334307
0.322825
0.311529
0.300401
0.289117
0.277999
0.267135
0.256087
0.245145
0.23464
0.224322
0.21443
0.205422
0.19711
0.189555
0.183583
0.179269
0.176411
0.175422
0.176382
0.178059
0.180391
3.00001
3.00001
3.00001
3
3
2.99996
2.9999
2.99952
2.99908
2.997
2.99506
2.98484
2.97214
2.92124
2.77998
2.45392
1.73582
0.874176
0.352744
0.363441
0.401253
0.41994
0.41522
0.400613
0.382184
0.367728
0.356593
0.346268
0.335606
0.324679
0.314004
0.303492
0.292927
0.282576
0.27258
0.262478
0.252619
0.243221
0.234054
0.225483
0.217829
0.210771
0.204705
0.200227
0.197109
0.195314
0.195161
0.196646
0.198826
0.200985
3.00001
3.00001
3
3.00001
2.99999
2.99997
2.99977
2.99953
2.99831
2.99711
2.99018
2.98849
2.97285
2.93149
2.78721
2.47428
1.76396
0.90921
0.373059
0.362963
0.399175
0.417853
0.413663
0.399702
0.381843
0.367803
0.357045
0.347265
0.337198
0.326929
0.316997
0.307252
0.297528
0.28811
0.279069
0.270035
0.261346
0.253212
0.245318
0.23811
0.231943
0.226389
0.221624
0.218513
0.216673
0.215899
0.216647
0.218713
0.221055
0.223545
3.00001
3.00001
3
3
2.99999
2.99997
2.99979
2.99958
2.99848
2.99747
2.99133
2.99016
2.97574
2.93646
2.80333
2.49877
1.80034
0.952484
0.397945
0.362677
0.397119
0.416113
0.41223
0.398758
0.381401
0.36783
0.357573
0.348358
0.339
0.329519
0.320457
0.311643
0.302921
0.294584
0.286657
0.278828
0.271461
0.264696
0.258239
0.252328
0.247591
0.243691
0.240513
0.238761
0.238175
0.238435
0.239893
0.242614
0.245393
0.247599
3.00001
3.00001
3.00001
3
2.99999
2.99997
2.9998
2.99961
2.99864
2.99766
2.99232
2.99142
2.97808
2.94529
2.81515
2.52909
1.84433
1.00451
0.426951
0.360418
0.393871
0.413916
0.410567
0.397719
0.380937
0.367818
0.358144
0.349572
0.340953
0.332356
0.324252
0.316447
0.308863
0.301748
0.295028
0.28859
0.282672
0.277453
0.272632
0.268427
0.265237
0.262671
0.261174
0.261012
0.261764
0.263214
0.265726
0.269045
0.272249
0.275119
3.00001
3.00001
3.00001
3.00001
3
2.99997
2.99991
2.99966
2.99932
2.99816
2.99612
2.99142
2.97954
2.95136
2.83434
2.56148
1.89722
1.06994
0.462167
0.355733
0.38881
0.410976
0.408505
0.396271
0.380099
0.367574
0.358606
0.350842
0.343091
0.335515
0.328516
0.321857
0.315517
0.309741
0.304448
0.299424
0.295021
0.291396
0.288243
0.285911
0.284579
0.283914
0.284031
0.285541
0.287905
0.290773
0.294502
0.298942
0.302834
0.305386
3.00001
3.00001
3.00001
3
2.99999
2.99997
2.99985
2.99969
2.99913
2.99836
2.99585
2.99348
2.98365
2.96622
2.85368
2.60772
1.95805
1.1449
0.509431
0.3506
0.383939
0.409765
0.408587
0.39648
0.380653
0.368412
0.359828
0.35264
0.345671
0.339067
0.33316
0.327752
0.322788
0.31843
0.314663
0.311369
0.308713
0.306858
0.305619
0.305014
0.305597
0.307057
0.309288
0.312801
0.31717
0.321852
0.327314
0.333142
0.338235
0.342149
3.00001
3.00001
3.00001
3
2.99999
2.99993
2.99986
2.99949
2.9991
2.99711
2.99487
2.98273
2.98035
2.95449
2.86734
2.60299
2.12101
1.20515
0.591618
0.350494
0.387506
0.420022
0.420709
0.408078
0.391849
0.378673
0.369151
0.361214
0.353755
0.346983
0.341215
0.336245
0.332038
0.328726
0.3262
0.324411
0.323451
0.323432
0.324336
0.326008
0.328752
0.332431
0.337052
0.343076
0.350144
0.35754
0.365502
0.373974
0.381471
0.385917
3.00001
3.00001
3.00001
3.00001
3
2.99998
2.99991
2.99983
2.99947
2.99901
2.99763
2.99327
2.98945
2.95717
2.87607
2.67228
2.24516
1.39367
0.699757
0.381966
0.421605
0.457431
0.458349
0.443542
0.425172
0.408505
0.395758
0.385113
0.375372
0.366505
0.358975
0.352695
0.347674
0.344052
0.341733
0.340622
0.340751
0.342177
0.344833
0.348689
0.353918
0.360394
0.367999
0.376948
0.387524
0.399008
0.411007
0.423824
0.435901
0.445543
3.00001
3.00001
3.00001
3.00001
3
2.99999
2.99993
2.99988
2.99962
2.99929
2.99835
2.99508
2.99106
2.96336
2.89237
2.72986
2.35531
1.63264
0.807352
0.410417
0.450281
0.487188
0.494218
0.481388
0.463267
0.444436
0.42952
0.417104
0.405673
0.395102
0.385784
0.37789
0.371415
0.366566
0.363481
0.362076
0.362389
0.36449
0.368398
0.374142
0.381697
0.391175
0.40231
0.415418
0.430479
0.447611
0.466535
0.487864
0.510373
0.531403
3.00001
3.00001
3.00001
3.00001
3
2.99999
2.99997
2.99994
2.99984
2.99949
2.99893
2.99531
2.99463
2.97038
2.92429
2.77189
2.44028
1.71644
0.869278
0.410123
0.440689
0.478938
0.498026
0.493799
0.481615
0.466186
0.453237
0.442751
0.432874
0.423215
0.414246
0.406268
0.399473
0.394103
0.390396
0.388425
0.388446
0.390901
0.395724
0.402908
0.412388
0.424654
0.439463
0.457259
0.478914
0.50407
0.534426
0.572034
0.622998
0.710341
3.00001
3.00001
3.00001
3.00001
3
3
2.99999
2.99997
2.99982
2.99961
2.9983
2.99719
2.988
2.98567
2.92893
2.79029
2.4498
1.83021
0.905046
0.462854
0.422933
0.457359
0.48131
0.484339
0.478562
0.469455
0.462054
0.456918
0.452213
0.447206
0.442252
0.437655
0.433657
0.430385
0.428133
0.427595
0.428939
0.432417
0.438314
0.446851
0.458691
0.473957
0.493695
0.51773
0.547944
0.586285
0.634515
0.700014
0.796825
0.925418
3.00001
3.00001
3.00001
3.00001
3.00001
3.00001
2.99999
2.99997
2.99987
2.99966
2.99876
2.99779
2.98907
2.98747
2.93969
2.82621
2.53388
1.99396
1.06246
0.555391
0.418968
0.447367
0.474407
0.480775
0.477061
0.470827
0.46601
0.463819
0.462646
0.461592
0.46067
0.459969
0.459653
0.460019
0.461643
0.464302
0.46854
0.474228
0.482306
0.493145
0.507236
0.52556
0.548439
0.577867
0.613934
0.660227
0.719304
0.793902
0.901301
1.01317
3.00001
3.00001
3.00001
3.00001
3.00001
3
3
2.99999
2.99992
2.99978
2.99915
2.99835
2.99177
2.98968
2.95074
2.85903
2.63453
2.17948
1.30461
0.694643
0.446496
0.471556
0.500436
0.509029
0.505097
0.49831
0.491524
0.487682
0.485821
0.48487
0.484524
0.485101
0.486922
0.489838
0.493776
0.499002
0.505528
0.514161
0.524542
0.538136
0.554421
0.575144
0.600347
0.631328
0.669903
0.715803
0.774105
0.840667
0.929248
1.00903
3.00001
3.00001
3.00001
3.00001
3.00001
3
2.99999
2.99997
2.99984
2.9997
2.99859
2.99692
2.9871
2.98586
2.96507
2.9047
2.73964
2.37706
1.65524
0.84507
0.456281
0.482896
0.517213
0.537767
0.537393
0.530594
0.52341
0.518487
0.515725
0.514059
0.513658
0.514894
0.517384
0.521015
0.525873
0.532323
0.540325
0.550453
0.562771
0.577627
0.59586
0.617095
0.643389
0.673342
0.710482
0.751966
0.802975
0.858106
0.926405
0.988376
3.00001
3.00001
3.00001
3.00001
3.00001
3.00001
3
3
2.99996
2.99989
2.99956
2.99906
2.99621
2.99455
2.97602
2.93569
2.7972
2.47551
1.76747
0.934722
0.469247
0.473354
0.513167
0.542002
0.547931
0.54468
0.540597
0.537907
0.536915
0.536757
0.538263
0.541267
0.544972
0.549748
0.555702
0.563142
0.572344
0.583209
0.596496
0.611709
0.630257
0.651035
0.676332
0.70407
0.737755
0.774012
0.817132
0.863891
0.917713
0.967752
3.00001
3.00001
3.00001
3.00001
3.00001
3
3
2.99998
2.99996
2.99979
2.99943
2.99815
2.99651
2.98562
2.98352
2.92936
2.81697
2.51919
1.96403
1.04453
0.564922
0.465844
0.497062
0.527102
0.539121
0.541096
0.541434
0.542137
0.544235
0.547175
0.552016
0.557909
0.564211
0.570919
0.578903
0.587805
0.598512
0.610333
0.624427
0.639849
0.658216
0.678073
0.701699
0.726928
0.756563
0.788448
0.824617
0.86405
0.906672
0.947393
3.00001
3.00001
3.00001
3.00001
3.00001
3.00001
3
2.99999
2.99999
2.99991
2.99976
2.99912
2.99837
2.99185
2.99039
2.9517
2.8607
2.63511
2.17952
1.30346
0.719498
0.490725
0.508846
0.534574
0.5495
0.55244
0.552052
0.552361
0.554289
0.558285
0.564523
0.571404
0.578927
0.586833
0.596145
0.606212
0.618042
0.630703
0.645373
0.661158
0.679082
0.698615
0.720255
0.744106
0.769834
0.798387
0.82898
0.86182
0.896669
0.929749
3.00001
3.00001
3.00001
3.00001
3.00001
3.00001
3
2.99999
2.99998
2.99987
2.99976
2.99877
2.9973
2.98876
2.98686
2.96839
2.91164
2.75072
2.398
1.68091
0.885347
0.503455
0.51519
0.545886
0.571209
0.576219
0.574506
0.573245
0.573659
0.576975
0.582357
0.588393
0.595294
0.602941
0.612072
0.62209
0.633824
0.646482
0.660812
0.676393
0.693523
0.712207
0.73241
0.754296
0.777751
0.803154
0.830032
0.857767
0.88718
0.91471
3.00001
3.00001
3.00001
3.00001
3.00001
3.00001
3.00001
3
2.99999
2.99996
2.99992
2.99958
2.99913
2.99626
2.99396
2.97905
2.95161
2.82193
2.51413
1.81525
0.999694
0.520005
0.498153
0.535115
0.568003
0.580181
0.582514
0.583524
0.585776
0.590293
0.596607
0.603068
0.610214
0.617894
0.626839
0.63668
0.647835
0.660115
0.673557
0.688348
0.704234
0.721606
0.740029
0.760074
0.781389
0.804174
0.827323
0.85156
0.876759
0.900226
3.00001
3.00001
3.00001
3.00001
3.00001
3.00001
3
3
2.99998
2.99995
2.99977
2.99956
2.99785
2.99526
2.97897
2.97744
2.94316
2.84422
2.56216
2.04584
1.14068
0.636506
0.492389
0.520092
0.55271
0.572535
0.580036
0.583338
0.587656
0.593691
0.601437
0.609282
0.617666
0.626429
0.636045
0.646414
0.657661
0.669851
0.68285
0.696966
0.711891
0.727972
0.745002
0.763371
0.782529
0.802214
0.822505
0.843581
0.865497
0.885767
3.00001
3.00001
3.00001
3.00001
3.00001
3.00001
3.00001
3
2.99999
2.99997
2.99986
2.99974
2.99861
2.99693
2.98681
2.98466
2.96308
2.89934
2.70747
2.3253
1.5407
0.829597
0.520236
0.536095
0.567171
0.592023
0.598818
0.599117
0.600736
0.605001
0.611054
0.617971
0.625669
0.634101
0.643325
0.653471
0.664299
0.676135
0.688548
0.701986
0.716022
0.731175
0.747112
0.76379
0.780697
0.798198
0.816272
0.834946
0.854201
0.871976
3.00001
3.00001
3.00001
3.00001
3.00001
3.00001
3.00001
3
3
2.99997
2.99995
2.99976
2.99949
2.99776
2.9965
2.98339
2.98229
2.91169
2.75858
2.38896
1.71843
0.859372
0.495513
0.504267
0.546913
0.582207
0.596269
0.601265
0.605145
0.610327
0.616653
0.623801
0.631398
0.639781
0.648711
0.658526
0.668916
0.680167
0.691991
0.704623
0.718032
0.732195
0.746717
0.761522
0.776837
0.792714
0.809069
0.82576
0.842941
0.858671
3.00001
3.00001
3.00001
3.00001
3.00001
3.00001
3.00001
3.00001
3
2.99999
2.99995
2.99988
2.99948
2.9989
2.99528
2.99404
2.9723
2.96829
2.83062
2.55939
1.86908
1.06914
0.557283
0.495676
0.529459
0.564993
0.584157
0.592722
0.598546
0.604993
0.612519
0.620861
0.629553
0.638741
0.648308
0.658437
0.669007
0.680147
0.691871
0.704194
0.716962
0.729958
0.743301
0.757102
0.771361
0.785995
0.800973
0.816144
0.831668
0.845858
3.00001
3.00001
3.00001
3.00001
3.00001
3.00001
3.00001
3
3
2.99998
2.99996
2.99984
2.99971
2.99839
2.99642
2.98341
2.98205
2.95289
2.8688
2.61589
2.14748
1.25199
0.698645
0.498636
0.522774
0.556629
0.580794
0.591203
0.596907
0.602879
0.610135
0.618398
0.627188
0.636427
0.646032
0.656103
0.666667
0.677699
0.68921
0.700937
0.712927
0.725219
0.737918
0.750978
0.764365
0.777989
0.791828
0.805785
0.81998
0.832962
3.00001
3.00001
3.00001
3.00001
3.00001
3.00001
3.00001
3.00001
3
2.99999
2.99998
2.9999
2.99982
2.99895
2.99771
2.98985
2.98772
2.96726
2.9191
2.74897
2.38451
1.64933
0.861672
0.491409
0.517365
0.557396
0.593726
0.607528
0.611448
0.614573
0.619422
0.625704
0.63291
0.640733
0.649187
0.658134
0.667681
0.677566
0.687897
0.698596
0.709743
0.72127
0.733157
0.745325
0.757732
0.770337
0.783078
0.795927
0.808935
0.820857
3.00001
3.00001
3.00001
3.00001
3.00001
3.00001
3.00001
3.00001
3
3
2.99997
2.99993
2.99973
2.9995
2.99731
2.99411
2.97227
2.97114
2.92534
2.77927
2.41108
1.76408
0.852207
0.468434
0.474667
0.5263
0.571745
0.593065
0.601954
0.608149
0.615116
0.622951
0.631298
0.639865
0.648667
0.657658
0.666936
0.676523
0.686433
0.69667
0.707204
0.718033
0.729096
0.740384
0.751862
0.763498
0.77524
0.787057
0.799014
0.809954
3.00001
3.00001
3.00001
3.00001
3.00001
3.00001
3.00001
3.00001
3
3
2.99998
2.99996
2.9998
2.99965
2.99796
2.99552
2.97846
2.97841
2.94126
2.82192
2.51306
1.93654
1.0254
0.563195
0.475105
0.513628
0.555563
0.579372
0.589992
0.59707
0.604772
0.613614
0.622975
0.632501
0.642075
0.651775
0.661602
0.671627
0.681778
0.692113
0.702569
0.713153
0.723861
0.734679
0.74558
0.756556
0.767593
0.778656
0.789811
0.800001
3.00001
3.00001
3.00001
3.00001
3.00001
3.00001
3.00001
3.00001
3.00001
3
3
2.99996
2.99994
2.99969
2.9994
2.99731
2.99522
2.97536
2.97618
2.85592
2.63654
2.03401
1.27918
0.6267
0.451527
0.487934
0.533599
0.562051
0.574667
0.58255
0.590955
0.60063
0.610968
0.621462
0.631965
0.642391
0.652846
0.66326
0.673714
0.684171
0.694683
0.705253
0.71584
0.726479
0.737103
0.747752
0.758371
0.768973
0.779609
0.789305
3.00001
3.00001
3.00001
3.00001
3.00001
3.00001
3.00001
3.00001
3.00001
3
3
2.99997
2.99995
2.99974
2.99953
2.99775
2.99625
2.9811
2.97721
2.88736
2.68988
2.17424
1.44227
0.682315
0.426193
0.466057
0.515853
0.548006
0.562399
0.570666
0.579115
0.589025
0.599731
0.61061
0.621455
0.632174
0.642827
0.653433
0.663996
0.674527
0.685016
0.695461
0.705885
0.716263
0.72663
0.736936
0.747223
0.757422
0.767652
0.77697
3.00001
3.00001
3.00001
3.00001
3.00001
3.00001
3.00001
3.00001
3.00001
3
3
2.99999
2.99993
2.99988
2.99939
2.99871
2.99424
2.99441
2.97744
2.95183
2.79233
2.43685
1.68205
0.875749
0.452846
0.472371
0.513882
0.551719
0.56675
0.572811
0.578902
0.586826
0.596007
0.605681
0.615488
0.625394
0.635305
0.645303
0.655311
0.665372
0.675458
0.685545
0.69564
0.705698
0.715743
0.725732
0.735677
0.745546
0.755386
0.764364
3.00001
3.00001
3.00001
3.00001
3.00001
3.00001
3.00001
3.00001
3.00001
3
2.99999
2.99996
2.99979
2.99977
2.99929
2.99848
2.99265
2.99436
2.96684
2.96887
2.82267
2.4988
1.80631
0.991156
0.481136
0.452684
0.494833
0.537432
0.557399
0.565903
0.572493
0.580163
0.589014
0.598372
0.607829
0.617349
0.626841
0.636397
0.646007
0.655652
0.665356
0.67505
0.68477
0.694446
0.70412
0.713735
0.723308
0.732828
0.742353
0.751044
3.00001
3.00001
3.00001
3.00001
3.00001
3.00001
3.00001
3.00001
3.00001
3.00001
3
2.99999
2.99998
2.99987
2.99978
2.99886
2.99799
2.98907
2.99
2.93669
2.83384
2.55266
2.00808
1.0971
0.577805
0.429942
0.468948
0.519067
0.550279
0.563965
0.571578
0.579138
0.587668
0.596783
0.605925
0.61502
0.62405
0.633004
0.641965
0.650902
0.659866
0.668822
0.677815
0.686791
0.695776
0.704739
0.713683
0.722611
0.731546
0.739721
3.00001
3.00001
3.00001
3.00001
3.00001
3.00001
3.00001
3.00001
3.00001
3.00001
3
3
2.99999
2.99992
2.99985
2.99925
2.9986
2.99223
2.99318
2.95342
2.87831
2.6534
2.19938
1.3467
0.697862
0.421273
0.469674
0.535771
0.576663
0.591076
0.595454
0.599368
0.604935
0.611639
0.618717
0.625933
0.6332
0.640519
0.647916
0.655406
0.66298
0.670679
0.678421
0.68629
0.694181
0.702165
0.710144
0.718146
0.726189
0.733522
3.00001
3.00001
3.00001
3.00001
3.00001
3.00001
3.00001
3.00001
3.00001
3.00001
3
3
2.99999
2.99994
2.9999
2.99946
2.99894
2.99488
2.99339
2.96827
2.92379
2.74191
2.35598
1.57751
0.775621
0.374515
0.451112
0.534118
0.578441
0.593101
0.597624
0.601622
0.607402
0.614313
0.621433
0.628471
0.63551
0.642505
0.649655
0.656867
0.664156
0.67151
0.678872
0.686271
0.693646
0.701027
0.708385
0.71571
0.723069
0.729788
3.00001
3.00001
3.00001
3.00001
3.00001
3.00001
3.00001
3.00001
3.00001
3.00001
3
3
2.99997
2.99995
2.99974
2.9995
2.99765
2.99655
2.9825
2.98513
2.89775
2.73463
2.29912
1.61222
0.69707
0.32722
0.415111
0.497586
0.538735
0.555464
0.563558
0.571028
0.579849
0.589491
0.599124
0.608361
0.617342
0.626052
0.63466
0.643149
0.651516
0.659789
0.667894
0.675894
0.683745
0.691489
0.699125
0.706649
0.714115
0.720925
3.00001
3.00001
3.00001
3.00001
3.00001
3.00001
3.00001
3.00001
3.00001
3.00001
3
3
2.99998
2.99995
2.99977
2.9995
2.99769
2.99685
2.98401
2.98703
2.90888
2.75854
2.38387
1.71731
0.782667
0.390297
0.418277
0.469062
0.512162
0.531745
0.540682
0.548578
0.55786
0.568061
0.578471
0.588574
0.598447
0.608077
0.61752
0.626807
0.635894
0.644834
0.653569
0.662141
0.670509
0.678714
0.686758
0.694637
0.702437
0.709497
3.00001
3.00001
3.00001
3.00001
3.00001
3.00001
3.00001
3.00001
3.00001
3.00001
3
3
2.99998
2.99996
2.9998
2.99958
2.99804
2.99716
2.98549
2.98773
2.91733
2.78165
2.43733
1.8021
0.872131
0.445727
0.420659
0.467384
0.514036
0.536051
0.544811
0.551059
0.558557
0.567249
0.576547
0.58587
0.595105
0.604247
0.613231
0.622136
0.630875
0.639503
0.647973
0.656315
0.664516
0.672569
0.680492
0.68826
0.695958
0.702932
3.00001
3.00001
3.00001
3.00001
3.00001
3.00001
3.00001
3.00001
3.00001
3.00001
3.00001
3
2.99999
2.99996
2.99992
2.99951
2.99896
2.99483
2.99303
2.96628
2.96493
2.82929
2.54028
1.85086
1.05242
0.493328
0.424796
0.471135
0.52144
0.545517
0.553424
0.55733
0.562348
0.568858
0.576255
0.583888
0.591592
0.599393
0.607238
0.615229
0.623262
0.631341
0.639423
0.647434
0.6554
0.663226
0.670968
0.678582
0.686162
0.693059
3.00001
3.00001
3.00001
3.00001
3.00001
3.00001
3.00001
3.00001
3.00001
3.00001
3.00001
3
3
2.99995
2.99991
2.99951
2.99901
2.99533
2.99386
2.96996
2.96765
2.84063
2.56306
1.92039
1.12938
0.518849
0.40935
0.458147
0.512063
0.539673
0.548659
0.551922
0.555595
0.560666
0.56664
0.572847
0.579089
0.585385
0.591769
0.59841
0.605284
0.61245
0.619862
0.627435
0.635196
0.642993
0.65089
0.658743
0.666626
0.673865
3.00001
3.00001
3.00001
3.00001
3.00001
3.00001
3.00001
3.00001
3.00001
3.00001
3.00001
3
3
2.99995
2.99991
2.99955
2.99909
2.99582
2.99435
2.97282
2.97067
2.85326
2.5961
1.97557
1.19757
0.549028
0.3995
0.448128
0.503837
0.533495
0.542712
0.54514
0.54774
0.55176
0.556533
0.561506
0.566408
0.571293
0.576366
0.581833
0.587707
0.594054
0.6008
0.607867
0.615237
0.622753
0.630455
0.638238
0.646128
0.653431
3.00001
3.00001
3.00001
3.00001
3.00001
3.00001
3.00001
3.00001
3.00001
3.00001
3.00001
3
3
2.99996
2.99993
2.99961
2.99918
2.99622
2.99481
2.97509
2.97212
2.86423
2.62378
2.02637
1.26183
0.577229
0.391166
0.440418
0.497965
0.528691
0.537265
0.538406
0.539778
0.542794
0.546848
0.551181
0.555595
0.560181
0.565131
0.570549
0.576412
0.582758
0.589436
0.596393
0.603584
0.610887
0.618356
0.625851
0.633431
0.640407
3.00001
3.00001
3.00001
3.00001
3.00001
3.00001
3.00001
3.00001
3.00001
3.00001
3.00001
3
3
2.99997
2.99993
2.99967
2.99929
2.99676
2.99551
2.97724
2.98047
2.86882
2.65487
2.06386
1.32141
0.59947
0.381218
0.432236
0.491722
0.521914
0.528832
0.528843
0.529718
0.532799
0.537401
0.542533
0.548033
0.553869
0.560123
0.566692
0.573396
0.580247
0.587135
0.594105
0.601183
0.608302
0.615528
0.622775
0.630102
0.636844
3.00001
3.00001
3.00001
3.00001
3.00001
3.00001
3.00001
3.00001
3.00001
3.00001
3.00001
3
3
2.99996
2.99994
2.99969
2.99939
2.99715
2.99596
2.97924
2.98446
2.8743
2.67315
2.10295
1.37268
0.616272
0.369144
0.423156
0.484974
0.513749
0.51936
0.519488
0.521146
0.525663
0.532678
0.540233
0.547564
0.554647
0.561631
0.568679
0.575768
0.582852
0.590001
0.59713
0.60432
0.61153
0.61875
0.626004
0.633249
0.639917
3.00001
3.00001
3.00001
3.00001
3.00001
3.00001
3.00001
3.00001
3.00001
3.00001
3.00001
3
3
2.99996
2.99994
2.99968
2.99938
2.99727
2.9959
2.97997
2.98545
2.8805
2.69045
2.13895
1.42056
0.62765
0.352587
0.412641
0.479243
0.508359
0.51498
0.516998
0.520604
0.526784
0.535209
0.543874
0.551628
0.558994
0.566212
0.573514
0.58087
0.588191
0.595567
0.602867
0.610176
0.617453
0.624686
0.631926
0.639125
0.645777
3.00001
3.00001
3.00001
3.00001
3.00001
3.00001
3.00001
3.00001
3.00001
3.00001
3.00001
3
3
2.99997
2.99994
2.9997
2.99944
2.99736
2.99632
2.98174
2.98562
2.89016
2.71016
2.1989
1.49065
0.645578
0.337561
0.406093
0.478635
0.50863
0.516065
0.519151
0.523573
0.530388
0.538873
0.547363
0.555321
0.563139
0.570739
0.578449
0.585953
0.593576
0.600971
0.60842
0.615684
0.62292
0.630063
0.637124
0.644224
0.650622
3.00001
3.00001
3.00001
3.00001
3.00001
3.00001
3.00001
3.00001
3.00001
3.00001
3.00001
3
2.99998
2.9999
2.9999
2.9997
2.99944
2.99719
2.99612
2.98289
2.97939
2.90228
2.72415
2.26232
1.55618
0.664274
0.318858
0.397228
0.475433
0.507631
0.517048
0.521112
0.525904
0.532542
0.540621
0.549023
0.557178
0.565133
0.572814
0.580479
0.587879
0.595409
0.602594
0.609952
0.616977
0.624107
0.631071
0.638024
0.645101
0.651495
3.00001
3.00001
3.00001
3.00001
3.00001
3.00001
3.00001
3.00001
3.00001
3.00001
3.00001
3
2.99999
2.99998
2.99988
2.99982
2.99907
2.99827
2.99205
2.99506
2.96685
2.94927
2.7891
2.40161
1.64458
0.830184
0.37014
0.421666
0.487483
0.535543
0.552811
0.556271
0.55778
0.561225
0.566283
0.571917
0.577656
0.583185
0.588676
0.59405
0.599344
0.604635
0.609753
0.614884
0.619811
0.624739
0.629509
0.634234
0.638891
0.643121
3.00001
3.00001
3.00001
3.00001
3.00001
3.00001
3.00001
3.00001
3.00001
3.00001
3.00001
3
2.99999
2.99998
2.99987
2.99979
2.99898
2.99802
2.99052
2.99297
2.95532
2.9648
2.78784
2.44389
1.6809
0.863343
0.375187
0.411842
0.47217
0.52598
0.548631
0.554817
0.557384
0.561145
0.566309
0.572028
0.577736
0.583234
0.588535
0.59367
0.598669
0.603556
0.608318
0.612995
0.617523
0.621958
0.62615
0.630265
0.634006
0.637437
3.00001
3.00001
3.00001
3.00001
3.00001
3.00001
3.00001
3.00001
3.00001
3.00001
3.00001
3
2.99999
2.99993
2.99992
2.99976
2.99957
2.99784
2.99688
2.98402
2.9872
2.90794
2.75805
2.35622
1.6708
0.736122
0.336767
0.381994
0.444093
0.491969
0.515404
0.525333
0.53179
0.538922
0.547038
0.555437
0.563648
0.571562
0.5792
0.58666
0.593886
0.60105
0.607884
0.614803
0.62129
0.627952
0.63426
0.640673
0.64703
0.652812
3.00001
3.00001
3.00001
3.00001
3.00001
3.00001
3.00001
3.00001
3.00001
3.00001
3.00001
3
2.99999
2.99998
2.9999
2.99981
2.99907
2.9981
2.99114
2.9928
2.95829
2.9675
2.79444
2.45648
1.70714
0.884226
0.385283
0.404585
0.462704
0.516601
0.54063
0.548525
0.552534
0.557325
0.563236
0.569502
0.575591
0.581357
0.586856
0.592187
0.597418
0.602597
0.607714
0.612779
0.617726
0.622563
0.627165
0.631623
0.635732
0.639473
1.26759
0.898641
0.36542
0.260169
0.229406
0.34186
0.368817
0.374769
0.364009
0.355833
0.348891
0.343075
0.333677
0.317857
0.297789
0.274725
0.248976
0.221743
0.193457
0.164714
0.135799
0.10696
0.0783443
0.0501644
0.0259464
0.0200809
0.0438183
0.0708485
0.0976357
0.123868
0.149505
0.174661
0.199156
0.223303
0.246221
0.268062
0.289153
0.311473
0.334355
0.356581
0.377785
0.398369
0.418355
0.437831
0.456779
0.475284
0.493312
0.510865
0.527999
0.544692
0.560947
0.576774
0.592185
0.6072
0.621814
0.636052
0.649899
0.663343
0.676425
0.689082
0.701348
0.713228
0.724672
0.735739
0.746363
0.756556
0.766311
0.775573
0.784401
0.792717
0.800573
0.807891
0.814678
0.82091
0.826489
0.831513
0.8358
0.839444
0.842335
0.844469
0.845817
0.846309
0.846239
0.845969
0.845364
0.844171
0.841727
0.838428
0.834565
0.830741
0.826728
0.822956
0.819263
0.816008
0.813051
0.810672
0.80877
0.807586
0.806916
0.81022
1.17215
0.960986
0.685898
0.491601
0.410837
0.314538
0.236962
0.180196
0.120727
0.075844
0.0532481
0.0377072
0.0563347
0.068643
0.0848276
0.104961
0.125357
0.146728
0.16827
0.190151
0.212036
0.233937
0.255679
0.277162
0.297947
0.318019
0.338268
0.358725
0.379136
0.399324
0.419275
0.43893
0.458354
0.477501
0.496195
0.513959
0.531137
0.548706
0.567142
0.585283
0.60267
0.619532
0.636079
0.652362
0.668345
0.684018
0.699371
0.714409
0.729144
0.743584
0.757751
0.77166
0.785316
0.798723
0.811884
0.824801
0.837475
0.8499
0.862066
0.873979
0.885632
0.897003
0.908083
0.918862
0.929307
0.939398
0.949108
0.958385
0.967161
0.975431
0.983286
0.990654
0.997302
1.00325
1.00872
1.01351
1.0176
1.02101
1.02346
1.02531
1.02599
1.02606
1.02518
1.02445
1.02302
1.02139
1.01847
1.01468
1.01042
1.00609
1.00152
0.997324
0.992833
0.9892
0.985175
0.982436
0.979249
0.977532
0.975416
0.977089
1.10883
1.05328
0.940477
0.852554
0.788081
0.725379
0.667597
0.622379
0.586094
0.555291
0.534878
0.523376
0.517252
0.514626
0.514928
0.517915
0.522807
0.528843
0.536432
0.545189
0.554988
0.565511
0.57664
0.588152
0.599876
0.611684
0.623754
0.636169
0.648791
0.661512
0.674197
0.68678
0.699245
0.711692
0.723848
0.735352
0.746421
0.757706
0.770009
0.782687
0.794952
0.806928
0.818768
0.830606
0.84241
0.854189
0.86595
0.877648
0.889228
0.900655
0.911923
0.923081
0.934119
0.945052
0.955899
0.966623
0.977254
0.987749
0.998118
1.00831
1.01836
1.02821
1.03784
1.04734
1.05654
1.0656
1.07448
1.08308
1.09153
1.09967
1.10749
1.11503
1.12207
1.12879
1.13496
1.14056
1.14568
1.15009
1.15386
1.15701
1.15935
1.16087
1.16193
1.16287
1.16336
1.16339
1.16248
1.16095
1.15869
1.15628
1.15374
1.1511
1.14869
1.14627
1.14426
1.14237
1.14089
1.13974
1.13851
1.14005
1.08234
1.08674
1.05501
1.01792
0.986906
0.957321
0.92871
0.899528
0.874877
0.855881
0.841061
0.83371
0.830455
0.827904
0.825421
0.822882
0.821085
0.819537
0.819035
0.81929
0.82047
0.822644
0.825587
0.829087
0.833087
0.837566
0.842506
0.848004
0.854045
0.860552
0.8675
0.874818
0.882439
0.890431
0.898531
0.906375
0.913942
0.921805
0.930639
0.940244
0.949683
0.958896
0.968
0.977043
0.986007
0.994832
1.00347
1.01188
1.02012
1.02826
1.0364
1.04467
1.05312
1.06161
1.07018
1.07867
1.08725
1.09567
1.10414
1.11245
1.12071
1.12883
1.13679
1.14464
1.15225
1.15978
1.16707
1.17429
1.18131
1.18822
1.19496
1.20155
1.20789
1.21403
1.2198
1.2252
1.23019
1.23455
1.23844
1.24166
1.24405
1.24596
1.24696
1.24832
1.24898
1.24941
1.24902
1.24796
1.24649
1.24481
1.24292
1.24118
1.23937
1.23794
1.23655
1.23563
1.23478
1.23443
1.23363
1.23595
1.05658
1.08453
1.09082
1.08855
1.08313
1.07686
1.06823
1.05759
1.04619
1.03658
1.02981
1.02671
1.02414
1.0205
1.0156
1.01058
1.00558
1.00071
0.996152
0.99213
0.988647
0.985821
0.983834
0.982556
0.981748
0.981734
0.981932
0.98306
0.984746
0.986971
0.989812
0.993191
0.997181
1.00176
1.00676
1.01175
1.01677
1.02218
1.02861
1.03605
1.04375
1.05139
1.05903
1.06674
1.07462
1.08262
1.09083
1.09914
1.10762
1.11607
1.12451
1.13283
1.14113
1.14936
1.15752
1.16565
1.17364
1.18163
1.18941
1.19717
1.20468
1.21214
1.21933
1.22641
1.23322
1.23983
1.24613
1.25219
1.25793
1.26344
1.26869
1.27373
1.27858
1.28324
1.28767
1.29192
1.29585
1.29956
1.30284
1.3057
1.30803
1.30972
1.31098
1.31225
1.31312
1.31344
1.31323
1.31237
1.31101
1.30946
1.3076
1.30581
1.30385
1.30231