/*--------------------------------*- C++ -*----------------------------------*\
| =========                 |                                                 |
| \\      /  F ield         | OpenFOAM: The Open Source CFD Toolbox           |
|  \\    /   O peration     | Version:  2112                                  |
|   \\  /    A nd           | Website:  www.openfoam.com                      |
|    \\/     M anipulation  |                                                 |
\*---------------------------------------------------------------------------*/
FoamFile
{
    version     2.0;
    format      ascii;
    arch        "LSB;label=32;scalar=64";
    class       volScalarField;
    location    "7.9995";
    object      p;
}
// * * * * * * * * * * * * * * * * * * * * * * * * * * * * * * * * * * * * * //

dimensions      [1 -1 -2 0 0 0 0];

internalField   nonuniform List<scalar> 
7000
(
0.999999
1
1
1
1
0.999994
1.0001
1.00036
1.00125
1.00269
1.0077
1.01474
1.04345
1.06841
1.30573
1.53913
2.97156
5.97705
12.4495
11.6845
10.8444
10.6586
10.7163
10.8548
10.9846
11.0681
11.1321
11.1959
11.2633
11.3318
11.3993
11.4658
11.5311
11.5947
11.6572
11.7183
11.7772
11.8345
11.8901
11.9429
11.9935
12.0419
12.0866
12.1283
12.1671
12.2014
12.231
12.2566
12.2771
12.2929
1
1.00001
1.00001
1.00001
1
0.999998
1.0001
1.00036
1.00123
1.00262
1.0075
1.01435
1.04229
1.06701
1.29677
1.50815
2.9421
5.74948
12.3547
11.6622
10.8496
10.663
10.7161
10.8472
10.9761
11.0607
11.1255
11.1895
11.257
11.3255
11.3932
11.4598
11.5252
11.589
11.6517
11.7129
11.7721
11.8297
11.8854
11.9384
11.9893
12.038
12.0828
12.1248
12.1637
12.1982
12.2279
12.2536
12.2736
12.2888
1
1
1.00001
1.00001
1.00001
1
1.00011
1.00036
1.00121
1.00257
1.00736
1.01407
1.04153
1.06602
1.29226
1.49612
2.92395
5.68395
12.317
11.6419
10.8578
10.673
10.7222
10.8461
10.9732
11.0586
11.1239
11.188
11.2551
11.3233
11.3907
11.4571
11.5221
11.5857
11.6481
11.7089
11.7678
11.8251
11.8803
11.933
11.9835
12.0316
12.076
12.1174
12.1557
12.1892
12.2181
12.2426
12.2608
12.2741
1
1.00001
1.00001
1.00001
1.00001
1.00001
1.00011
1.00035
1.00119
1.0025
1.00717
1.01369
1.04046
1.06409
1.28636
1.48015
2.89088
5.56939
12.1731
11.6032
10.8519
10.671
10.7173
10.8351
10.9605
11.0469
11.1134
11.1778
11.2449
11.3129
11.3804
11.4468
11.5118
11.5753
11.6378
11.6985
11.7572
11.8145
11.8695
11.9219
11.9722
12.0197
12.0636
12.1045
12.1418
12.1742
12.2019
12.2249
12.2415
12.2531
1
1.00001
1.00001
1.00001
1.00002
1.00002
1.00012
1.00035
1.00116
1.00243
1.00696
1.01326
1.03932
1.06181
1.28159
1.46362
2.86423
5.47654
12.0723
11.5635
10.8508
10.6754
10.7181
10.8283
10.9514
11.0385
11.1055
11.1697
11.2363
11.3037
11.3706
11.4365
11.5009
11.5641
11.626
11.6862
11.7445
11.8012
11.8556
11.9075
11.9572
12.0039
12.0469
12.0869
12.123
12.1541
12.1805
12.2021
12.2172
12.2277
1
1
1.00001
1
1.00002
1.00002
1.00013
1.00035
1.00113
1.00236
1.00674
1.01281
1.03808
1.05945
1.27589
1.44663
2.83308
5.36916
11.9322
11.5089
10.8454
10.6723
10.7103
10.8121
10.9348
11.0239
11.0918
11.1561
11.2222
11.2892
11.3558
11.4212
11.4852
11.5479
11.6094
11.6691
11.727
11.7832
11.8369
11.8882
11.9372
11.983
12.025
12.064
12.0989
12.1286
12.1536
12.1738
12.1877
12.1972
1
1
1
1
1.00002
1.00003
1.00013
1.00034
1.00109
1.00227
1.00647
1.01228
1.03666
1.05666
1.26993
1.42793
2.80038
5.25715
11.7838
11.4452
10.8522
10.6702
10.7011
10.7927
10.9172
11.0086
11.0771
11.1408
11.2062
11.2724
11.3381
11.4028
11.466
11.528
11.5888
11.6477
11.7048
11.7603
11.8132
11.8637
11.9118
11.9565
11.9975
12.0354
12.0689
12.0974
12.1211
12.14
12.1528
12.1618
1
1
1
1
1.00002
1.00003
1.00013
1.00033
1.00105
1.00217
1.00617
1.01164
1.03511
1.05329
1.26359
1.40771
2.76492
5.13705
11.6144
11.3627
10.8673
10.6661
10.6878
10.7679
10.8955
10.9898
11.0588
11.122
11.1865
11.2517
11.3166
11.3802
11.4424
11.5034
11.5633
11.6213
11.6775
11.732
11.7838
11.8333
11.8805
11.924
11.9638
12.0005
12.0327
12.0598
12.0823
12.1001
12.1121
12.1204
1
1
1
1
1.00002
1.00003
1.00012
1.00032
1.00099
1.00204
1.00577
1.01068
1.03342
1.04872
1.25712
1.38476
2.72766
5.00991
11.4231
11.269
10.8807
10.6598
10.6727
10.7418
10.871
10.968
11.0376
11.1
11.1633
11.2274
11.2911
11.3534
11.4143
11.4741
11.5329
11.5895
11.6445
11.6977
11.7483
11.7965
11.8424
11.8846
11.9232
11.9586
11.9895
12.0154
12.0368
12.0536
12.0648
12.0729
1
1
1
1
1.00001
1.00003
1.00012
1.00031
1.00094
1.00193
1.00541
1.00982
1.03174
1.044
1.25003
1.3596
2.68925
4.87119
11.209
11.1707
10.883
10.649
10.656
10.7173
10.8433
10.9432
11.0133
11.0745
11.1365
11.1992
11.2614
11.3222
11.3814
11.4396
11.4969
11.5519
11.6054
11.657
11.706
11.7527
11.797
11.8376
11.8748
11.9088
11.9383
11.963
11.9832
11.9992
12.0098
12.0174
1
1
1
1
1.00001
1.00003
1.00011
1.00029
1.00086
1.00177
1.00486
1.00862
1.02877
1.03701
1.24142
1.32863
2.64771
4.71948
10.9527
11.1081
10.8603
10.6316
10.6367
10.694
10.8152
10.9155
10.9854
11.0455
11.1059
11.167
11.2274
11.2862
11.3435
11.3996
11.455
11.508
11.5594
11.609
11.6561
11.7009
11.7434
11.7822
11.8176
11.85
11.878
11.9015
11.9208
11.936
11.946
11.9537
1
1
1
1.00001
1
1.00004
1.00013
1.00045
1.00097
1.00275
1.00545
1.01634
1.02317
1.02235
1.23177
1.30101
2.59193
4.55185
10.6552
11.0583
10.8306
10.6091
10.6141
10.6694
10.7867
10.8853
10.9541
11.0128
11.0715
11.1306
11.1888
11.2454
11.3003
11.354
11.4068
11.4573
11.5062
11.5535
11.5981
11.6403
11.6805
11.7171
11.7505
11.781
11.8072
11.8291
11.847
11.8613
11.8708
11.878
1
1
1
1.00001
1.00001
1.00004
1.00012
1.00041
1.00086
1.00248
1.00475
1.01413
1.02025
1.024
1.20998
1.27595
2.52723
4.35938
10.3069
11.0146
10.8065
10.5845
10.5888
10.6425
10.7565
10.8527
10.9199
10.9768
11.0332
11.0899
11.1456
11.1995
11.2515
11.3022
11.3518
11.3991
11.445
11.4893
11.5309
11.5703
11.6073
11.641
11.6716
11.6995
11.7236
11.7437
11.7601
11.7733
11.7822
11.7897
1
1
1
1.00001
1.00001
1.00004
1.00012
1.00037
1.00079
1.00221
1.00438
1.01295
1.01785
1.01582
1.20126
1.24609
2.45295
4.1442
9.89362
10.9789
10.7901
10.5603
10.5626
10.6136
10.7239
10.8181
10.8831
10.9377
10.9915
11.0454
11.098
11.1487
11.1973
11.2444
11.2899
11.3336
11.3754
11.4158
11.4536
11.489
11.5223
11.5523
11.5793
11.6038
11.6247
11.642
11.6562
11.6678
11.6755
11.6822
1
1
1
1
1.00001
1.00002
1.00009
1.00022
1.0006
1.00125
1.00303
1.00668
1.01695
1.02119
1.17821
1.21572
2.37029
3.89725
9.39792
10.9591
10.7864
10.5372
10.5337
10.5819
10.6885
10.7808
10.8437
10.8956
10.9464
10.9969
11.0459
11.0928
11.1374
11.18
11.2212
11.2601
11.2973
11.3328
11.3654
11.3958
11.4238
11.4487
11.4707
11.4903
11.5067
11.5198
11.5304
11.5393
11.5458
11.553
1
1
1
1
1.00001
1.00004
1.0001
1.00026
1.00057
1.00121
1.00273
1.00485
1.01321
1.01377
1.15511
1.17717
2.26682
3.63945
8.79013
10.9878
10.8149
10.5274
10.5052
10.5507
10.6526
10.7419
10.8023
10.8514
10.8988
10.9453
10.99
11.0323
11.0722
11.1097
11.1454
11.1786
11.2097
11.2389
11.2653
11.2891
11.3102
11.328
11.3428
11.3551
11.3646
11.3708
11.3757
11.3798
11.3827
11.3881
1
1
1
1
1.00002
1.00004
1.00014
1.00029
1.00084
1.00165
1.00482
1.0095
1.02921
1.04002
1.03997
1.41725
1.70401
3.71145
7.81865
11.0799
10.8933
10.5284
10.4718
10.5147
10.6124
10.7003
10.7592
10.8054
10.8488
10.8909
10.9308
10.968
11.0024
11.034
11.0631
11.0894
11.1133
11.1345
11.1527
11.1675
11.1792
11.1876
11.1918
11.1929
11.1914
11.1865
11.1805
11.1752
11.1718
11.1755
1
1
1
1
1.00001
1.00003
1.00006
1.00016
1.00032
1.00089
1.00165
1.00481
1.00781
1.04152
1.05294
1.34476
1.56504
3.26735
6.67754
11.273
11.0391
10.5574
10.4404
10.4754
10.5627
10.6535
10.7133
10.7566
10.7957
10.8331
10.8681
10.8997
10.9277
10.9525
10.9741
10.9924
11.0074
11.0189
11.0268
11.03
11.0291
11.0242
11.0134
10.9978
10.9781
10.9541
10.9282
10.9035
10.883
10.8774
1
1
1
1
1.00001
1.00002
1.00004
1.00012
1.00023
1.00064
1.00108
1.00415
1.00481
1.03852
1.03997
1.29
1.45917
2.84483
5.42389
11.3556
11.1285
10.6477
10.4278
10.4412
10.5005
10.5961
10.6604
10.702
10.7365
10.7688
10.7985
10.8243
10.8458
10.8636
10.8772
10.8866
10.8915
10.8912
10.8873
10.8768
10.8589
10.8346
10.8026
10.7624
10.7137
10.6566
10.5918
10.5241
10.4608
10.4239
1
1
1
1
1
1.00001
1.00002
1.00007
1.0001
1.00049
1.0007
1.00317
1.00454
1.02583
1.02955
1.24637
1.32816
2.68919
4.82215
10.9415
10.9675
10.6686
10.3978
10.3905
10.4309
10.5208
10.5924
10.6345
10.6651
10.6925
10.7169
10.7373
10.7527
10.763
10.7684
10.768
10.7633
10.7511
10.7303
10.7019
10.6645
10.6168
10.556
10.4801
10.3867
10.2724
10.1345
9.97154
9.78974
9.60428
1
1
1
1
1
1
1.00002
1.00002
1.00017
1.00019
1.00135
1.00272
1.00702
1.00858
1.0732
1.07157
1.61396
2.08109
4.74557
9.9319
10.7594
10.5953
10.3475
10.3223
10.3563
10.4352
10.5055
10.5459
10.5718
10.5932
10.6114
10.6249
10.6328
10.634
10.6309
10.6207
10.5996
10.5693
10.5299
10.4791
10.4143
10.3321
10.2287
10.0968
9.9273
9.70419
9.39852
8.95367
8.25151
6.82602
1
1
1
1
1
1
1.00001
1.00001
1.00014
1.00014
1.00106
1.00202
1.00639
1.00772
1.06124
1.06049
1.50925
1.87719
4.15299
8.76128
10.763
10.626
10.3427
10.268
10.2912
10.3506
10.412
10.4469
10.4659
10.4788
10.4876
10.4908
10.4888
10.4806
10.4623
10.4328
10.3943
10.3451
10.2831
10.2052
10.1077
9.98571
9.83228
9.63781
9.38694
9.05798
8.61704
8.01294
7.2073
6.01123
1
1
1
1
1
1
1.00001
1.00001
1.00008
1.00008
1.00077
1.00119
1.00497
1.0077
1.04712
1.05988
1.3882
1.64429
3.50555
7.21871
10.9179
10.7732
10.4091
10.2434
10.2457
10.2713
10.3224
10.3521
10.3629
10.3647
10.3629
10.3561
10.3404
10.3142
10.2794
10.2352
10.1798
10.1117
10.0275
9.92475
9.79863
9.64432
9.45461
9.2204
8.92961
8.56748
8.11809
7.56149
6.91543
6.11276
1
1
1
1
1
1
1.00002
1.00002
1.00013
1.00013
1.00133
1.00173
1.00913
1.02195
1.0331
1.03213
1.28546
1.41182
2.79393
5.16147
10.9928
10.8858
10.5557
10.2394
10.177
10.1916
10.2269
10.2519
10.2557
10.2525
10.2424
10.2211
10.1906
10.1525
10.1056
10.0483
9.97813
9.89368
9.79223
9.67104
9.52659
9.35455
9.14985
8.90653
8.61854
8.27896
7.88473
7.43108
6.93488
6.35942
1
1
1
1
1
1
1
1.00001
1.00004
1.00004
1.00042
1.0006
1.00262
1.00485
1.01958
1.02376
1.22041
1.27962
2.59865
4.50267
10.4187
10.7637
10.5119
10.1828
10.0851
10.0957
10.1248
10.147
10.1469
10.1409
10.1234
10.0889
10.0482
10.0012
9.94497
9.8773
9.7965
9.70098
9.589
9.45808
9.30639
9.12995
8.92721
8.69359
8.42832
8.1274
7.79167
7.42217
7.00889
6.57459
1
1
1
1
1
1
1
1.00002
1.00003
1.0002
1.00023
1.00154
1.00292
1.00822
1.01124
1.06677
1.06763
1.53147
1.90456
4.25187
8.92737
10.5546
10.4245
10.1361
10.009
10.0106
10.0258
10.046
10.0451
10.0361
10.0115
9.96715
9.91846
9.86436
9.80113
9.72643
9.63897
9.53757
9.42112
9.2876
9.13645
8.96425
8.77189
8.55516
8.31475
8.0498
7.76086
7.44458
7.11716
6.76371
1
1
1
1
1
1
1
1.00001
1.00001
1.00008
1.00009
1.00078
1.00132
1.00476
1.00721
1.04558
1.05634
1.38828
1.63584
3.50164
7.16046
10.6077
10.5149
10.2181
10.0168
9.96578
9.96846
9.97374
9.96867
9.95073
9.91235
9.86167
9.80779
9.74809
9.6798
9.60045
9.50938
9.40584
9.28887
9.15751
9.01079
8.84774
8.66762
8.4699
8.25435
8.0216
7.77061
7.5016
7.22854
6.93631
1
1
1
1
1
1
1
1.00002
1.00002
1.00011
1.0001
1.00114
1.00142
1.00804
1.01949
1.02871
1.03086
1.27263
1.37198
2.74818
4.95918
10.6049
10.6563
10.4003
10.0537
9.9357
9.92264
9.91943
9.90766
9.87875
9.82865
9.77346
9.71579
9.65213
9.58052
9.49865
9.40652
9.30343
9.18868
9.06175
8.92215
8.76945
8.6034
8.42399
8.23152
8.02543
7.80296
7.57695
7.34426
7.09775
1
1
1
1
1
1
1
1.00001
1.00001
1.00004
1.00004
1.00037
1.00041
1.00279
1.00565
1.01481
1.02303
1.19353
1.22538
2.51109
4.22179
9.86683
10.5723
10.3678
10.0243
9.87337
9.84809
9.8453
9.83461
9.80675
9.75434
9.69759
9.63848
9.57384
9.50143
9.41977
9.32845
9.22745
9.11664
8.99566
8.86423
8.72221
8.56962
8.40723
8.23368
8.04602
7.85609
7.66056
7.4608
7.2507
1
1
1
1
1
1
1
1
1.00003
1.00005
1.00017
1.0002
1.00193
1.00232
1.01479
1.03538
1.05253
1.04876
1.48116
1.7738
3.94204
8.19894
10.489
10.3737
10.0638
9.85677
9.7888
9.77983
9.76738
9.7399
9.69165
9.63634
9.57688
9.51187
9.4396
9.35922
9.27049
9.17337
9.06782
8.95372
8.83109
8.69993
8.56058
8.4109
8.251
8.08936
7.92374
7.75287
7.57841
7.39644
1
1
1
1
1
1
1
1
1.00002
1.00003
1.0001
1.00014
1.00122
1.00147
1.00938
1.02262
1.03286
1.03473
1.31367
1.45693
2.978
5.79152
10.5879
10.5508
10.2617
9.92245
9.79221
9.76568
9.74759
9.71158
9.66035
9.60177
9.53916
9.47205
9.39912
9.31962
9.23321
9.13978
9.03932
8.93178
8.81719
8.69579
8.56534
8.42751
8.28825
8.14583
7.99851
7.8469
7.69274
7.53301
1
1
1
1
1
1
1
1
1.00001
1.00003
1.00004
1.00021
1.00023
1.00182
1.00327
1.0103
1.0105
1.08969
1.08867
1.70439
2.22319
5.06189
10.2205
10.5053
10.2751
9.92099
9.76744
9.72611
9.70475
9.67105
9.62364
9.56794
9.50696
9.44108
9.36986
9.29279
9.20975
9.12068
9.0256
8.92466
8.81742
8.70226
8.58262
8.46182
8.33719
8.20812
8.07512
7.93903
7.8013
7.65933
1
1
1
1
1
1
1
1
1.00001
1.00001
1.00004
1.00007
1.00048
1.00067
1.00319
1.00731
1.01403
1.02311
1.16554
1.18738
2.40516
3.89423
9.22823
10.4221
10.264
9.93654
9.75439
9.69132
9.66753
9.63915
9.59677
9.54409
9.48496
9.42069
9.35143
9.27706
9.19755
9.1129
9.02301
8.92693
8.82529
8.72081
8.61431
8.50378
8.38917
8.27097
8.14992
8.02673
7.90248
7.77488
1
1
1
1
1
1
1
1
1
1.00002
1.00004
1.0001
1.00015
1.00136
1.00155
1.01179
1.02838
1.04169
1.0356
1.42367
1.63781
3.6331
7.43271
10.4823
10.3829
10.0648
9.80183
9.69798
9.66149
9.63101
9.58857
9.53535
9.47562
9.41163
9.3438
9.27173
9.19517
9.11369
9.02707
8.93659
8.844
8.74872
8.64954
8.54651
8.44022
8.33132
8.22041
8.108
7.9949
7.87906
1
1
1
1
1
1
1
1
1
1.00001
1.00002
1.00008
1.00007
1.00094
1.00113
1.00711
1.01772
1.02753
1.02721
1.28044
1.36112
2.80421
5.08024
10.7332
10.6504
10.3533
9.92164
9.72357
9.6626
9.63098
9.58965
9.53641
9.47626
9.41215
9.34471
9.27343
9.19844
9.12018
9.03911
8.95542
8.86807
8.77732
8.68342
8.58692
8.4881
8.3874
8.28522
8.18194
8.0782
7.97213
1
1
1
1
1
1
1
1
1
1.00001
1.00003
1.00007
1.00017
1.00026
1.00229
1.00262
1.01899
1.04836
1.07132
1.06459
1.68236
2.12262
4.98368
10.1536
10.536
10.2986
9.89579
9.69676
9.6357
9.61004
9.57535
9.52679
9.46995
9.4086
9.34383
9.27556
9.20428
9.12985
9.05238
8.9719
8.88847
8.80241
8.71406
8.62363
8.53145
8.43789
8.34328
8.24786
8.15213
8.05446
1
1
1
1
1
1
1
1
1
1
1.00002
1.00005
1.00013
1.00012
1.00176
1.00191
1.01469
1.03757
1.05508
1.04756
1.54963
1.88318
4.32023
8.9579
10.442
10.2855
9.92151
9.70082
9.62469
9.59863
9.56931
9.52544
9.47067
9.41017
9.34623
9.27978
9.21037
9.13808
9.06322
8.98608
8.90691
8.82576
8.74275
8.65806
8.572
8.48474
8.39656
8.30776
8.2188
8.12824
1
1
1
1
1
1
1
1
1
1
1
1.00003
1.00005
1.00024
1.00025
1.00235
1.00363
1.01502
1.0174
1.13615
1.13373
2.17879
3.2335
7.79964
10.5002
10.3519
9.98359
9.72273
9.6291
9.60059
9.5724
9.52935
9.47552
9.41586
9.35286
9.2874
9.21927
9.14879
9.07625
9.00184
8.92564
8.84794
8.769
8.689
8.60809
8.52642
8.44413
8.3614
8.27861
8.19445
1
1
1
1
1
1
1
1
1
1
1
1.00003
1.00005
1.00019
1.00022
1.00189
1.00304
1.01109
1.01812
1.10093
1.11812
1.97614
2.74986
6.77356
10.6485
10.4775
10.0565
9.75691
9.64056
9.60573
9.57747
9.53483
9.48042
9.42017
9.35714
9.29216
9.22527
9.15651
9.0862
9.01465
8.94208
8.86853
8.79405
8.71873
8.64267
8.566
8.48883
8.4113
8.33369
8.2548
1
1
1
1
1
1
1
1
1
1
1.00001
1.00001
1.00006
1.00009
1.00051
1.00058
1.00425
1.01036
1.01408
1.01636
1.22919
1.25454
2.73697
4.82855
10.6145
10.5862
10.2759
9.85972
9.67746
9.62187
9.5881
9.54271
9.48638
9.42501
9.36195
9.29795
9.23291
9.16668
9.09917
9.03048
8.96077
8.89021
8.81898
8.74717
8.67487
8.60214
8.52914
8.45612
8.38322
8.30917
1
1
1
1
1
1
1
1
1
1
1.00002
1.00002
1.00017
1.00042
1.00056
1.0006
1.00529
1.01289
1.01409
1.02155
1.17598
1.22637
2.48825
4.20689
9.91102
10.6102
10.3599
9.9267
9.70647
9.62589
9.58495
9.54053
9.4862
9.42647
9.36485
9.30268
9.23978
9.17578
9.11062
9.0444
8.97737
8.90985
8.84197
8.77383
8.70548
8.63699
8.56836
8.49948
8.43053
8.36045
1
1
1
1
1
1
1
1
1
1
1
1.00001
1.00002
1.0001
1.00012
1.00098
1.0015
1.00655
1.00794
1.05755
1.05698
1.50162
1.79246
4.09176
8.52031
10.6886
10.5044
10.0606
9.75185
9.62326
9.57481
9.53583
9.48685
9.43016
9.37004
9.30843
9.24609
9.18327
9.12003
9.05646
8.99259
8.92842
8.86398
8.79933
8.73455
8.66966
8.60459
8.53935
8.47405
8.40779
1
1
1
1
1
1
1
1
1
1
1
1.00001
1.00001
1.00007
1.00009
1.00066
1.00091
1.00477
1.006
1.04021
1.0379
1.3872
1.58028
3.4277
7.01005
11.0816
10.8538
10.2533
9.80226
9.61788
9.56212
9.53012
9.48607
9.43152
9.37271
9.31268
9.25245
9.1922
9.13175
9.07101
9.00995
8.94858
8.88693
8.82503
8.76289
8.70051
8.63809
8.57575
8.51363
8.45092
1
1
1
1
1
1
1
1
1
1
1
1.00001
1.00001
1.00004
1.00006
1.00043
1.00049
1.00344
1.00619
1.02305
1.01887
1.29277
1.35729
2.94551
5.51203
11.4549
11.0764
10.2896
9.7916
9.60459
9.55143
9.52329
9.48307
9.43051
9.37358
9.31589
9.25851
9.20099
9.14319
9.08495
9.0263
8.96731
8.90806
8.8486
8.789
8.72937
8.6698
8.61033
8.5511
8.49144
1
1
1
1
1
1
1
1
1
1
1
1
1.00003
1.00004
1.0002
1.00021
1.00179
1.00329
1.00961
1.01064
1.09359
1.08834
1.82992
2.38758
5.69638
11.1431
10.7976
10.0898
9.71086
9.5707
9.53214
9.50992
9.47611
9.42872
9.37557
9.32113
9.26641
9.21143
9.15587
9.09978
9.04326
8.98641
8.92931
8.87204
8.81463
8.75719
8.69971
8.64231
8.5851
8.52747
1
1
1
1
1
1
1
1
1
1
1
1.00001
1.00003
1.00003
1.00021
1.00021
1.00166
1.00339
1.00835
1.00892
1.08539
1.08227
1.72045
2.18202
5.20755
10.4722
10.4534
10.12
9.74582
9.58067
9.53406
9.51128
9.47779
9.43193
9.38048
9.32733
9.27369
9.21978
9.16557
9.11109
9.05634
9.00138
8.94628
8.89106
8.83577
8.78042
8.72507
8.66978
8.61464
8.559
1
1
1
1
1
1
1
1
1
1
1
1
1.00002
1.00002
1.00017
1.00017
1.00148
1.00281
1.0079
1.0088
1.07682
1.07475
1.65016
2.04997
4.85481
9.92951
10.4917
10.2461
9.82531
9.61153
9.54127
9.51283
9.47985
9.43549
9.38498
9.33282
9.28061
9.22842
9.17606
9.12342
9.07054
9.01742
8.9641
8.91063
8.85707
8.80349
8.74994
8.69645
8.64307
8.58918
1
1
1
1
1
1
1
1
1
1
1
1.00001
1.00001
1.00003
1.00004
1.00038
1.00038
1.00364
1.00807
1.01743
1.0245
1.17207
1.16342
2.47016
3.97596
9.3908
10.6016
10.3634
9.88651
9.62431
9.53389
9.50326
9.47287
9.43096
9.3821
9.33123
9.28037
9.2299
9.17955
9.12907
9.07838
9.02741
8.97624
8.92487
8.87337
8.82171
8.77006
8.71847
8.66698
8.615
1
1
1
1
1
1
1
1
1
1
1
1.00001
1.00001
1.00004
1.00008
1.00039
1.00049
1.0033
1.00718
1.01527
1.02394
1.15258
1.17846
2.31859
3.66306
8.85024
10.6037
10.3788
9.9039
9.61824
9.51567
9.48533
9.45997
9.42246
9.37651
9.32787
9.27918
9.23076
9.18236
9.13383
9.08514
9.03627
8.98725
8.93813
8.88891
8.83963
8.79015
8.74043
8.69059
8.64003
1
1
1
1
1
1
1
1
1
1
1
1.00001
1.00001
1.00004
1.00007
1.00037
1.00046
1.00299
1.00646
1.01404
1.02238
1.1369
1.15536
2.23582
3.43472
8.35537
10.6022
10.3899
9.91796
9.61544
9.50631
9.47784
9.45616
9.42141
9.37721
9.32987
9.28252
9.23576
9.18926
9.14247
9.09533
9.04793
9.00036
8.95265
8.90478
8.85677
8.80865
8.76042
8.71204
8.66295
1
1
1
1
1
1
1
1
1
1
1
1.00001
1.00001
1.00004
1.00005
1.00034
1.00035
1.00273
1.00587
1.01304
1.02162
1.12399
1.13825
2.16228
3.23974
7.90658
10.6054
10.3963
9.91536
9.60176
9.4914
9.46762
9.45072
9.41946
9.37749
9.33182
9.28613
9.241
9.19583
9.15053
9.10483
9.05882
9.01254
8.966
8.91929
8.87244
8.82541
8.77823
8.731
8.68332
1
1
1
1
1
1
1
1
1
1
1
1
1.00001
1.00003
1.00005
1.00026
1.00036
1.0023
1.00484
1.01269
1.01223
1.12082
1.10236
2.14193
3.05369
7.52702
10.6128
10.3962
9.89722
9.5819
9.48083
9.46539
9.45261
9.42571
9.38429
9.3393
9.29518
9.25207
9.20868
9.16435
9.11919
9.0734
9.02726
8.98101
8.93466
8.88823
8.84175
8.79525
8.74879
8.70192
1
1
1
1
1
1
1
1
1
1
1
1
1
1.00003
1.00004
1.00025
1.00026
1.00216
1.00407
1.01122
1.01147
1.11178
1.09451
2.09316
2.904
7.19185
10.6187
10.386
9.86027
9.55502
9.47159
9.46665
9.45807
9.43684
9.3949
9.34795
9.30317
9.26039
9.21788
9.17432
9.12969
9.08433
9.03856
8.99258
8.94648
8.90034
8.85419
8.80807
8.76203
8.71569
1
1
1
1
1
1
1
1
1
1
1
1
1.00001
1.00003
1.00005
1.00024
1.0003
1.00203
1.00378
1.01113
1.01142
1.10454
1.08716
2.04789
2.77475
6.90804
10.6653
10.4034
9.83947
9.54555
9.47735
9.4771
9.47286
9.45498
9.41439
9.36254
9.31551
9.27227
9.2296
9.18602
9.14149
9.09625
9.05062
9.00478
8.95882
8.91281
8.8668
8.8208
8.77483
8.72844
1
1
1
1
1
1
1
1
1
1
1
1
1.00001
1.00003
1.00005
1.00024
1.00027
1.00195
1.00366
1.00993
1.01069
1.09656
1.08029
1.97522
2.6108
6.54271
10.7604
10.4599
9.84214
9.55432
9.49616
9.49588
9.4901
9.46948
9.42602
9.37616
9.32931
9.28456
9.24022
9.19546
9.15019
9.1045
9.05857
9.01251
8.96643
8.92035
8.87434
8.8284
8.78258
8.73644
1
1
1
1
1
1
1
1
1
1
1
1.00001
1.00001
1.00008
1.00018
1.00023
1.00027
1.00208
1.00381
1.00985
1.01632
1.08507
1.09341
1.8715
2.475
6.15932
10.9813
10.6181
9.91145
9.59299
9.51168
9.50205
9.49174
9.46888
9.42926
9.38362
9.3376
9.29217
9.24707
9.20191
9.15651
9.11088
9.06511
9.0193
8.97353
8.92781
8.88219
8.83664
8.7911
8.74495
1
1
1
1
1
1
1
1
1
1
1
1
1.00001
1.00001
1.00009
1.00014
1.00072
1.00095
1.00527
1.01242
1.01149
1.02256
1.21724
1.29601
2.75352
4.9806
11.0942
10.867
10.3148
9.79375
9.57101
9.51666
9.50216
9.47821
9.43885
9.3921
9.34401
9.29674
9.25033
9.2043
9.15838
9.11245
9.06658
9.02081
8.97521
8.92982
8.88468
8.83984
8.79534
8.75099
1
1
1
1
1
1
1
1
1
1
1
1
1.00001
1.00001
1.00011
1.00017
1.00078
1.00085
1.00682
1.0163
1.0186
1.02269
1.21847
1.23785
2.74031
4.7297
10.9041
10.8029
10.4182
9.88803
9.62833
9.54818
9.52248
9.49289
9.45023
9.40091
9.35069
9.30172
9.25402
9.20712
9.16069
9.11456
9.06872
9.02314
8.97785
8.93287
8.88823
8.84396
8.80018
8.75696
1
1
1
1
1
1
1
1
1
1
1
1.00001
1.00001
1.00006
1.00014
1.00019
1.00022
1.00163
1.003
1.00897
1.0099
1.08296
1.07609
1.75641
2.24097
5.39899
10.7922
10.6828
10.25
9.84341
9.63827
9.56328
9.53126
9.49737
9.45303
9.40311
9.35251
9.30318
9.25522
9.20824
9.16189
9.11601
9.07048
9.02521
8.98018
8.93546
8.89084
8.84624
8.80157
8.75627
1
1
1
1
1
1
1
1
1
1
1
1
1.00001
1.00002
1.00008
1.00014
1.00072
1.00093
1.00634
1.01582
1.01945
1.0162
1.21661
1.21672
2.70894
4.65058
10.7074
10.7995
10.4544
9.94266
9.67907
9.58571
9.54727
9.509
9.46097
9.4081
9.35528
9.30435
9.25529
9.20762
9.16093
9.11496
9.06954
9.0245
8.9798
8.9354
8.8913
8.84744
8.80383
8.76049
2.78522
2.64163
3.73033
4.02454
3.77949
3.71847
3.6973
3.70491
3.74275
3.77938
3.80565
3.83038
3.8666
3.92209
3.99237
4.07077
4.15464
4.24167
4.32894
4.41428
4.49656
4.5748
4.64861
4.7177
4.78112
4.84316
4.89771
4.9444
4.98409
5.01712
5.0439
5.0643
5.07909
5.08764
5.09122
5.09039
5.08666
5.07728
5.06038
5.03993
5.01686
4.99077
4.96185
4.9303
4.89641
4.86042
4.82264
4.78327
4.74253
4.70064
4.65781
4.61423
4.57008
4.52551
4.48069
4.43574
4.39081
4.34604
4.30155
4.25746
4.21391
4.171
4.12885
4.08759
4.04731
4.00814
3.97019
3.93357
3.8984
3.86481
3.83288
3.80278
3.77458
3.74851
3.72463
3.70307
3.68408
3.66782
3.65443
3.64414
3.63676
3.63284
3.6325
3.63287
3.63419
3.63744
3.64433
3.65685
3.67147
3.6869
3.70263
3.71828
3.73346
3.74773
3.76068
3.77199
3.78138
3.78867
3.79342
3.7969
3.75322
3.6781
3.9873
3.93729
3.78401
3.70358
3.69044
3.71368
3.77537
3.81053
3.82755
3.83219
3.85408
3.91024
3.97851
4.05664
4.14297
4.23121
4.31921
4.40488
4.4874
4.56574
4.63966
4.70873
4.77321
4.83473
4.88942
4.93635
4.9762
5.00951
5.0365
5.0573
5.07213
5.0811
5.08445
5.08392
5.08115
5.07349
5.05718
5.03484
5.01117
4.98555
4.95714
4.92592
4.89219
4.8563
4.81861
4.7793
4.73866
4.69687
4.65415
4.6107
4.56668
4.52225
4.47757
4.43277
4.388
4.34337
4.29902
4.25508
4.21166
4.16888
4.12685
4.0857
4.04553
4.00645
3.96858
3.93204
3.89693
3.86338
3.8315
3.80145
3.77323
3.74732
3.72339
3.70163
3.68274
3.6665
3.65307
3.64265
3.6354
3.63153
3.63158
3.63201
3.63334
3.63649
3.64322
3.65553
3.6702
3.68595
3.70208
3.71805
3.73348
3.74792
3.76105
3.7725
3.78211
3.78965
3.79512
3.79928
4.9252
4.41277
4.32295
4.13274
3.92967
3.80939
3.75898
3.75792
3.76619
3.78682
3.8117
3.83561
3.8719
3.92617
3.99449
4.07058
4.15255
4.23763
4.32302
4.40683
4.48767
4.56476
4.63791
4.7063
4.76993
4.82933
4.88299
4.92971
4.96944
5.00253
5.02924
5.04975
5.06428
5.07294
5.07574
5.07521
5.07284
5.0664
5.05232
5.02881
5.0039
4.97787
4.94964
4.91875
4.88535
4.84969
4.81226
4.77315
4.73269
4.69106
4.64851
4.60526
4.56143
4.5172
4.47273
4.42814
4.38357
4.33916
4.29502
4.25128
4.20806
4.16547
4.12363
4.08265
4.04265
4.00376
3.96607
3.9297
3.89476
3.86138
3.82967
3.79978
3.77178
3.7459
3.72218
3.70074
3.68188
3.6657
3.65235
3.642
3.63482
3.63125
3.63134
3.63187
3.63335
3.63667
3.64349
3.65511
3.66922
3.68488
3.7011
3.71726
3.73282
3.74741
3.76065
3.77229
3.78215
3.79032
3.79648
3.80354
5.49904
4.9395
4.64824
4.40988
4.18965
4.01995
3.9136
3.86769
3.86794
3.87387
3.88955
3.91605
3.93907
3.97427
4.02744
4.09331
4.16738
4.24639
4.32724
4.40765
4.48596
4.56083
4.63146
4.69798
4.7601
4.81779
4.87033
4.91638
4.95583
4.98873
5.01524
5.03561
5.05004
5.05866
5.06123
5.06079
5.05886
5.05364
5.04207
5.01912
4.99336
4.9665
4.93807
4.90745
4.87441
4.83916
4.80189
4.763
4.72287
4.68167
4.63937
4.5966
4.55311
4.50925
4.46517
4.42096
4.37678
4.33275
4.28899
4.24563
4.20277
4.16055
4.11906
4.07843
4.03877
4.00021
3.96284
3.92679
3.89214
3.85907
3.82767
3.79806
3.77035
3.74468
3.7212
3.70002
3.68133
3.66529
3.65205
3.64181
3.63471
3.63136
3.63148
3.63209
3.63371
3.63725
3.64439
3.65511
3.66833
3.68348
3.69928
3.71547
3.73102
3.74573
3.75904
3.77086
3.78089
3.78975
3.79549
3.80586
5.88867
5.38486
5.02437
4.7371
4.49094
4.28721
4.1396
4.04936
4.00513
3.98674
3.9871
3.9909
4.0028
4.02933
4.07681
4.13482
4.20007
4.27021
4.34322
4.41705
4.48989
4.56048
4.62811
4.69176
4.75143
4.80676
4.85745
4.90203
4.94081
4.97312
4.99919
5.01916
5.03323
5.04154
5.04365
5.04319
5.04138
5.03669
5.02644
5.00578
4.98
4.95243
4.92353
4.89289
4.86021
4.82545
4.78878
4.75044
4.71082
4.66998
4.62824
4.58582
4.54281
4.4994
4.45573
4.41196
4.36821
4.32463
4.28131
4.23839
4.19598
4.1542
4.11316
4.07299
4.03378
3.99568
3.95878
3.92319
3.88896
3.85635
3.82544
3.79632
3.7691
3.7439
3.72089
3.70013
3.68191
3.66628
3.6534
3.64346
3.63659
3.63352
3.63367
3.63436
3.63613
3.63988
3.64715
3.65691
3.66908
3.68309
3.69778
3.71335
3.72844
3.74285
3.756
3.76776
3.77789
3.78714
3.79323
3.80546
6.20726
5.77588
5.41228
5.09722
4.82514
4.59488
4.413
4.28154
4.1965
4.14742
4.12305
4.12069
4.12275
4.13084
4.15071
4.19124
4.2425
4.30124
4.36418
4.42925
4.4948
4.55984
4.62268
4.68288
4.73968
4.79231
4.84044
4.884
4.92193
4.95324
4.97888
4.99849
5.0123
5.02051
5.02255
5.0221
5.0204
5.01611
5.00684
4.98815
4.96349
4.93604
4.90685
4.87603
4.84346
4.80905
4.77287
4.73509
4.696
4.65574
4.61459
4.57271
4.53028
4.48744
4.44436
4.40118
4.35803
4.31504
4.27232
4.22999
4.18818
4.147
4.10657
4.06703
4.02839
3.99095
3.95472
3.91978
3.88632
3.85432
3.82394
3.79534
3.76868
3.74407
3.72164
3.70159
3.68392
3.66883
3.65644
3.64692
3.64031
3.63743
3.63759
3.6383
3.64008
3.64383
3.6508
3.65975
3.67059
3.68299
3.69636
3.71054
3.72471
3.73835
3.751
3.76251
3.77263
3.78202
3.78856
3.80187
6.47733
6.10888
5.77072
5.45201
5.16407
4.91412
4.7062
4.54223
4.42141
4.33814
4.28449
4.25457
4.24039
4.24075
4.24474
4.25743
4.28563
4.33336
4.38728
4.44412
4.50228
4.56078
4.6183
4.67395
4.72688
4.7765
4.82241
4.86366
4.90009
4.93079
4.95607
4.97528
4.98831
4.9964
4.99832
4.99789
4.99629
4.99227
4.98366
4.96635
4.94327
4.91663
4.8876
4.85675
4.82427
4.7902
4.75457
4.7175
4.67913
4.63963
4.59921
4.55803
4.51628
4.47412
4.4317
4.38918
4.34669
4.30435
4.26228
4.2206
4.17946
4.13893
4.09923
4.06043
4.02271
3.98598
3.95044
3.91625
3.8835
3.85227
3.82269
3.79491
3.76904
3.74524
3.72362
3.70434
3.68746
3.67316
3.66144
3.65244
3.64624
3.64357
3.64373
3.6444
3.6461
3.64967
3.65607
3.66402
3.67337
3.68403
3.69565
3.70797
3.72061
3.73297
3.74462
3.75565
3.7655
3.77482
3.78168
3.79568
6.71202
6.39641
6.08866
5.78015
5.49018
5.22862
5.00188
4.81355
4.66378
4.54993
4.46728
4.41115
4.3756
4.35642
4.35038
4.35206
4.35947
4.37799
4.41583
4.46177
4.51224
4.5639
4.61514
4.66525
4.71363
4.75955
4.80237
4.84134
4.87604
4.90574
4.93009
4.949
4.96207
4.96979
4.97152
4.97113
4.96963
4.96587
4.95782
4.94162
4.92
4.89452
4.86614
4.83557
4.8033
4.76955
4.73443
4.69801
4.66039
4.62167
4.58203
4.54163
4.50065
4.45924
4.41758
4.37581
4.33407
4.29248
4.25119
4.21023
4.16996
4.13041
4.09158
4.05365
4.01674
3.98092
3.94631
3.91302
3.88119
3.85092
3.82233
3.79553
3.77065
3.74785
3.72722
3.70894
3.69298
3.67959
3.66855
3.66013
3.65439
3.65178
3.65191
3.65249
3.65391
3.65695
3.66244
3.66919
3.67698
3.68571
3.69528
3.70542
3.71611
3.72677
3.73699
3.74721
3.75633
3.76562
3.7725
3.78674
6.92129
6.6475
6.36939
6.0773
5.79148
5.52598
5.28876
5.08329
4.9109
4.77132
4.66201
4.57998
4.52068
4.4808
4.45623
4.44281
4.44296
4.44618
4.45693
4.48093
4.52168
4.56613
4.61126
4.65614
4.70006
4.74205
4.78151
4.8179
4.85055
4.87888
4.90226
4.92072
4.93334
4.94122
4.94289
4.94248
4.94101
4.93739
4.9297
4.91431
4.89403
4.86979
4.84233
4.81237
4.78052
4.7472
4.71262
4.67686
4.64002
4.60214
4.56337
4.52383
4.48371
4.44316
4.40234
4.36141
4.3205
4.27975
4.23931
4.19942
4.16001
4.12135
4.08349
4.04654
4.0106
3.97579
3.94222
3.91
3.87925
3.8501
3.82266
3.79702
3.77336
3.75176
3.73234
3.71524
3.70035
3.6879
3.67769
3.67002
3.66473
3.66204
3.66211
3.6625
3.66354
3.66573
3.67011
3.67539
3.68142
3.68813
3.69547
3.70328
3.71174
3.7204
3.72891
3.73775
3.74588
3.75494
3.76168
3.77576
7.1104
6.86914
6.61726
6.34316
6.06612
5.80149
5.5583
5.34134
5.15292
4.99361
4.86266
4.75757
4.67565
4.61489
4.57131
4.54141
4.52408
4.51712
4.51837
4.52431
4.53937
4.57021
4.60724
4.64636
4.68605
4.72444
4.76064
4.79418
4.8244
4.85091
4.87294
4.89068
4.90302
4.91086
4.91265
4.91224
4.9108
4.90728
4.89982
4.88522
4.86606
4.84299
4.81656
4.78745
4.75628
4.72355
4.68956
4.65447
4.61836
4.5813
4.54339
4.50475
4.46553
4.42588
4.38596
4.34592
4.30591
4.2661
4.22667
4.18776
4.14944
4.11184
4.07507
4.03922
4.00441
3.97076
3.93838
3.90739
3.8779
3.85006
3.82392
3.79965
3.77737
3.75716
3.7391
3.72323
3.7097
3.69824
3.68889
3.68192
3.67708
3.67422
3.67392
3.67411
3.67469
3.67598
3.67859
3.68224
3.68632
3.69094
3.69601
3.70139
3.70751
3.71395
3.72054
3.72774
3.73455
3.74294
3.74939
3.76302
7.28122
7.0656
6.83557
6.57875
6.31242
6.05209
5.80734
5.58381
5.3845
5.21062
5.06221
4.93823
4.83726
4.75601
4.69344
4.64652
4.61292
4.59092
4.57775
4.57699
4.57925
4.58735
4.60575
4.63782
4.66981
4.70449
4.73825
4.76945
4.79736
4.82182
4.84237