/*--------------------------------*- C++ -*----------------------------------*\
| =========                 |                                                 |
| \\      /  F ield         | OpenFOAM: The Open Source CFD Toolbox           |
|  \\    /   O peration     | Version:  2112                                  |
|   \\  /    A nd           | Website:  www.openfoam.com                      |
|    \\/     M anipulation  |                                                 |
\*---------------------------------------------------------------------------*/
FoamFile
{
    version     2.0;
    format      ascii;
    arch        "LSB;label=32;scalar=64";
    class       surfaceScalarField;
    location    "7.9995";
    object      phi;
}
// * * * * * * * * * * * * * * * * * * * * * * * * * * * * * * * * * * * * * //

dimensions      [1 0 -1 0 0 0 0];

oriented        oriented;

internalField   nonuniform List<scalar> 
13790
(
0.00290515
5.6136e-09
0.00290514
3.03385e-09
0.00290514
7.44327e-10
0.00290514
-1.76327e-09
0.00290515
-4.77478e-09
0.00290515
-8.10986e-09
0.00290516
-1.21306e-08
0.00290518
-1.41752e-08
0.00290518
-9.40278e-09
0.00290518
-3.45412e-09
0.00290509
6.4911e-08
0.00290501
6.18542e-08
0.00290445
4.59981e-07
0.00290508
-6.10591e-07
0.0029029
1.15368e-06
0.00289397
5.26659e-06
0.00292539
-3.14205e-05
0.00288809
1.34232e-06
0.00294416
-5.43343e-05
0.00288312
6.30392e-05
0.0028095
7.31303e-05
0.00274524
6.33761e-05
0.00269189
5.25514e-05
0.00263523
5.5125e-05
0.00257461
5.96811e-05
0.0025114
6.35313e-05
0.0024446
6.62198e-05
0.00237568
6.83031e-05
0.00230635
7.04991e-05
0.00223388
7.29933e-05
0.00215835
7.54237e-05
0.00208204
7.79373e-05
0.00200219
8.07662e-05
0.00191863
8.34712e-05
0.00183398
8.62089e-05
0.00174547
8.93709e-05
0.00165295
9.2342e-05
0.00155886
9.53714e-05
0.00146052
9.90014e-05
0.00135745
0.000102321
0.00125236
0.000105736
0.00114293
0.000110169
0.00102646
0.000114581
0.000906319
0.00011885
0.00078029
0.000124876
0.000645013
0.000131994
0.000502789
0.000139347
0.000352411
0.000149818
0.000186889
0.000165905
0.000186619
0.00301309
6.36994e-09
0.00301309
5.16663e-09
0.00301309
2.24395e-09
0.00301309
-7.51874e-10
0.00301309
-5.68369e-09
0.00301309
-1.07755e-08
0.00301309
-1.7231e-08
0.0030131
-2.10088e-08
0.00301309
-1.5745e-08
0.00301309
-2.03807e-09
0.00301305
6.28094e-08
0.00301298
1.18318e-07
0.00301284
4.46818e-07
0.00301236
-2.36036e-07
0.00301145
8.9875e-07
0.00301435
7.27102e-07
0.00301314
-3.42595e-05
0.00304566
-5.00448e-05
0.0030118
-3.5569e-05
0.00294698
0.000124341
0.00287533
0.000143187
0.0028118
0.000125806
0.00275319
0.000110235
0.00269323
0.000113562
0.00262984
0.000122567
0.00256344
0.000130371
0.00249299
0.000135922
0.00242049
0.000140453
0.00234713
0.000145219
0.00226999
0.000150311
0.00219005
0.000155195
0.00210935
0.000160401
0.00202462
0.000166046
0.00193651
0.000171342
0.00184733
0.000176988
0.00175405
0.000183188
0.00165724
0.000189011
0.00155892
0.000195217
0.00145609
0.000202146
0.0013492
0.000208628
0.00124025
0.000215644
0.0011264
0.000224367
0.00100609
0.000232872
0.0008818
0.000242045
0.000751392
0.000253788
0.000612974
0.000266932
0.000468687
0.00028113
0.000318636
0.000299545
0.000162329
0.000322638
0.000348666
0.00312504
6.78142e-09
0.00312504
6.24002e-09
0.00312504
4.86685e-09
0.00312504
3.63793e-09
0.00312503
-4.56992e-09
0.00312503
-1.14657e-08
0.00312503
-1.91682e-08
0.00312503
-2.33033e-08
0.00312502
-1.61783e-08
0.00312502
-2.38565e-10
0.00312494
8.83488e-08
0.00312485
1.85966e-07
0.00312447
5.686e-07
0.00312388
1.78794e-07
0.00312298
8.52951e-07
0.00312221
-8.25639e-07
0.00310931
-2.60305e-05
0.00309183
-4.91967e-05
0.00303212
7.59271e-06
0.00298045
0.000171628
0.00292444
0.000197538
0.00286572
0.000183485
0.00280436
0.000170542
0.00274061
0.00017588
0.00267443
0.000188493
0.00260518
0.00019967
0.00253233
0.000207981
0.0024582
0.000215183
0.00238216
0.000222741
0.00230189
0.000230446
0.00221961
0.000237969
0.00213557
0.000246037
0.00204707
0.000254381
0.00195626
0.000262436
0.00186386
0.000271187
0.00176677
0.000280331
0.00166675
0.000289091
0.00156488
0.000298613
0.00145819
0.000308743
0.00134805
0.000318416
0.00123571
0.000329244
0.00111776
0.000341911
0.000994094
0.000354257
0.000866945
0.00036819
0.000733466
0.000385481
0.000593089
0.000403639
0.000448589
0.000423297
0.000301206
0.000446808
0.000150627
0.000473755
0.000499021
0.00324116
6.63313e-09
0.00324116
5.97012e-09
0.00324115
7.40663e-09
0.00324115
8.77172e-09
0.00324115
-1.79079e-09
0.00324114
-9.44545e-09
0.00324114
-1.75588e-08
0.00324113
-2.15199e-08
0.00324112
-1.21491e-08
0.0032411
1.15313e-08
0.00324102
1.12688e-07
0.00324093
2.50376e-07
0.00324053
7.01299e-07
0.00323975
7.6174e-07
0.00323864
1.04864e-06
0.00323516
3.88285e-07
0.00323228
-2.75502e-05
0.00322489
-5.64106e-05
0.00316589
4.85268e-05
0.00309887
0.000233123
0.00303548
0.000258888
0.00297493
0.000243103
0.00291115
0.000233394
0.00284186
0.000243875
0.00276952
0.00026072
0.00269425
0.000274808
0.00261575
0.000285719
0.00253609
0.000295651
0.00245388
0.000305987
0.00236748
0.000316272
0.00227964
0.000326482
0.00218967
0.000337457
0.00209524
0.000348493
0.00199902
0.000359377
0.00190086
0.00037119
0.00179786
0.000383226
0.00169234
0.00039487
0.00158477
0.000407591
0.00147249
0.000420723
0.0013574
0.000433514
0.00124005
0.000447877
0.00111697
0.000463941
0.000989177
0.000479687
0.000858684
0.000497725
0.000722758
0.000519307
0.000581075
0.000541589
0.000437373
0.000565082
0.000291249
0.00059301
0.000145172
0.000620412
0.000643868
0.00336158
6.48594e-09
0.00336158
6.13443e-09
0.00336158
7.43331e-09
0.00336158
8.76119e-09
0.00336158
4.58219e-09
0.00336157
-2.57125e-09
0.00336155
-8.36916e-09
0.00336154
-1.24031e-08
0.00336152
-1.90949e-09
0.0033615
2.7682e-08
0.00336141
1.39269e-07
0.00336133
3.05182e-07
0.00336093
8.21511e-07
0.00336043
1.03922e-06
0.00335888
1.60437e-06
0.00335547
1.49995e-06
0.00334502
-2.15516e-05
0.00331562
-4.14939e-05
0.00324146
0.000103574
0.00317167
0.000296421
0.00311679
0.000312033
0.00306126
0.000298277
0.00299856
0.000295471
0.00292668
0.000314549
0.00285191
0.000335493
0.00277422
0.000352195
0.0026934
0.000365845
0.00261133
0.000378805
0.00252594
0.000392177
0.00243619
0.000405294
0.00234513
0.000418523
0.00225129
0.00043263
0.00215277
0.000446571
0.00205254
0.000460597
0.00194977
0.000475757
0.0018418
0.000490942
0.00173129
0.000505847
0.00161818
0.000522028
0.00150012
0.000538339
0.0013794
0.000554433
0.00125629
0.000572318
0.00112729
0.000591443
0.000994617
0.00060998
0.000859772
0.000631699
0.000720013
0.000656671
0.000576196
0.000681576
0.000431391
0.000708074
0.000287367
0.000737173
0.000142143
0.00076609
0.000785756
0.00348648
6.24111e-09
0.00348648
6.10466e-09
0.00348648
7.0265e-09
0.00348648
7.67442e-09
0.00348648
8.04431e-09
0.00348647
2.88987e-09
0.00348646
-1.19002e-09
0.00348645
-2.91717e-09
0.00348642
1.73011e-08
0.00348639
5.37354e-08
0.00348627
1.87722e-07
0.00348615
4.01312e-07
0.00348565
1.02028e-06
0.00348492
1.5499e-06
0.00348315
2.31284e-06
0.00347882
3.46956e-06
0.0034695
-1.67776e-05
0.00344312
-2.94784e-05
0.00336328
0.000163496
0.00326857
0.000383674
0.00322027
0.000359795
0.00316307
0.000355377
0.00309667
0.000360859
0.00301916
0.000390448
0.00294003
0.000414806
0.00285847
0.000433919
0.00277412
0.000450039
0.00268828
0.000465676
0.00259894
0.000481726
0.00250598
0.000497519
0.00241187
0.000513674
0.00231444
0.000530816
0.00221254
0.000547718
0.00210927
0.000564982
0.00200311
0.000583808
0.00189141
0.000602403
0.00177695
0.000620941
0.00165928
0.000640949
0.00153644
0.000660711
0.00141077
0.000680489
0.00128212
0.000702257
0.00114725
0.000724394
0.00100923
0.000745723
0.000869434
0.00077066
0.000725338
0.000798091
0.00057849
0.000824497
0.000432473
0.000852455
0.000286281
0.000883602
0.000142658
0.000910169
0.000928195
0.00361602
5.88536e-09
0.00361602
5.99667e-09
0.00361602
6.49306e-09
0.00361602
6.71106e-09
0.00361602
8.47459e-09
0.00361602
5.79585e-09
0.00361601
4.04958e-09
0.003616
7.16246e-09
0.00361597
3.45256e-08
0.00361593
8.40812e-08
0.0036158
2.51264e-07
0.00361563
5.49655e-07
0.00361506
1.26756e-06
0.00361409
2.29232e-06
0.00361203
3.22302e-06
0.00360739
5.66614e-06
0.00359663
-1.07265e-05
0.00356843
-1.5521e-05
0.00348182
0.000229183
0.00338953
0.000466902
0.00333074
0.000420081
0.00326633
0.000420065
0.00319274
0.000433417
0.00311199
0.000470439
0.00302938
0.000498128
0.0029433
0.000519453
0.00285499
0.000537473
0.00276591
0.000555349
0.00267329
0.000573838
0.00257747
0.000591985
0.00248152
0.00061099
0.00238224
0.000631525
0.00227777
0.000651757
0.00217165
0.000672496
0.00206219
0.000695004
0.00194713
0.000717207
0.00182922
0.000739652
0.00170754
0.00076397
0.00158018
0.000787621
0.00144988
0.000811306
0.0013162
0.000837229
0.00117573
0.000862612
0.00103255
0.000886765
0.00088761
0.000914858
0.000738392
0.000944404
0.000587312
0.000971744
0.000437884
0.00100049
0.000291037
0.00103094
0.000143587
0.00105819
0.00107154
0.00375038
5.50588e-09
0.00375038
5.79942e-09
0.00375038
5.90977e-09
0.00375038
5.62976e-09
0.00375038
8.11508e-09
0.00375038
6.78313e-09
0.00375037
7.29325e-09
0.00375036
1.34148e-08
0.00375033
4.91057e-08
0.0037503
1.14054e-07
0.00375014
3.37482e-07
0.00374986
8.16232e-07
0.00374926
1.49751e-06
0.00374814
3.26277e-06
0.00374595
4.12032e-06
0.0037407
8.45848e-06
0.00373045
-5.40234e-06
0.00370173
-7.42291e-07
0.0036083
0.000299695
0.00352394
0.000542713
0.00345242
0.00049458
0.00337292
0.000500422
0.00328903
0.000517714
0.0032043
0.000553508
0.00311689
0.000584283
0.00302682
0.000607446
0.00293602
0.000626945
0.002845
0.000646958
0.00275043
0.000667773
0.00265307
0.000688454
0.00255559
0.00071053
0.00245473
0.000734271
0.00234905
0.000757996
0.00224084
0.000782824
0.00212799
0.000809252
0.00200941
0.000835255
0.00188812
0.000861855
0.00176273
0.00089063
0.00163143
0.000918563
0.00149664
0.000946843
0.00135792
0.000977006
0.00121239
0.00100578
0.00106402
0.00103316
0.00091371
0.00106423
0.00075921
0.00109552
0.000603258
0.00112371
0.000449696
0.00115286
0.000297251
0.00118402
0.000148245
0.00120755
0.0012195
0.00388972
5.15813e-09
0.00388972
5.54914e-09
0.00388972
5.31094e-09
0.00388972
4.59972e-09
0.00388972
7.81498e-09
0.00388972
6.70132e-09
0.00388972
7.23404e-09
0.00388972
1.25431e-08
0.00388971
4.28982e-08
0.00388972
1.022e-07
0.00388967
3.23821e-07
0.00388962
8.03768e-07
0.00388896
1.71155e-06
0.0038882
3.93669e-06
0.00388532
5.54735e-06
0.00387942
1.17556e-05
0.00386801
1.00233e-06
0.00383589
1.6336e-05
0.00372966
0.000381711
0.00366198
0.000606653
0.00357159
0.000588103
0.00347818
0.000593224
0.0033839
0.000610212
0.00329593
0.000638214
0.00320588
0.000672779
0.00311455
0.000697058
0.00302268
0.000718316
0.00293053
0.00074061
0.00283452
0.000763759
0.00273601
0.00078698
0.00263685
0.000812197
0.0025335
0.000839151
0.00242603
0.000866279
0.00231632
0.000895367
0.00220101
0.000926178
0.00207915
0.000956346
0.0019546
0.000987379
0.00182538
0.00102074
0.00169051
0.00105313
0.00155195
0.0010863
0.00140833
0.00112155
0.00125708
0.00115433
0.00110339
0.00118505
0.000947232
0.00121933
0.000786808
0.00125235
0.000625265
0.00128133
0.000465647
0.00131145
0.000309444
0.00134124
0.000152653
0.00136521
0.00137185
0.00403424
4.93294e-09
0.00403424
5.05757e-09
0.00403424
4.89517e-09
0.00403425
3.46864e-09
0.00403425
7.93391e-09
0.00403425
3.32885e-09
0.00403425
1.3904e-09
0.00403428
-1.66106e-08
0.00403431
-4.28492e-09
0.00403449
-8.34026e-08
0.0040347
4.34013e-08
0.00403596
-5.36595e-07
0.00403614
9.79118e-07
0.00403525
4.71223e-06
0.00403196
7.25561e-06
0.00402438
1.63541e-05
0.00401016
1.02472e-05
0.0039701
3.95862e-05
0.00382752
0.00050323
0.00378654
0.000641272
0.00368033
0.00069044
0.0035806
0.000691424
0.0034827
0.000708002
0.00339028
0.000729609
0.00330162
0.000760699
0.00321027
0.00078776
0.00311723
0.000811697
0.00302334
0.000836005
0.00292572
0.00086134
0.00282569
0.000887177
0.00272477
0.000915575
0.00261918
0.000945836
0.00250971
0.000976468
0.00239831
0.0010097
0.00228135
0.00104533
0.002157
0.00108003
0.00202939
0.00111603
0.00189666
0.00115425
0.00175782
0.00119156
0.00161522
0.0012298
0.00146783
0.00127004
0.00131199
0.00130745
0.00115229
0.00134298
0.000990042
0.00138084
0.000822788
0.00141627
0.000654525
0.00144598
0.000488678
0.00147617
0.000323332
0.00150759
0.000161323
0.00152757
0.00153287
0.00418414
4.69536e-09
0.00418414
4.41905e-09
0.00418414
5.29876e-09
0.00418414
2.39881e-09
0.00418414
7.25605e-09
0.00418414
-3.80675e-09
0.00418416
-1.26284e-08
0.00418423
-9.71036e-08
0.00418433
-1.12515e-07
0.00418482
-5.95165e-07
0.00418541
-6.17336e-07
0.00418887
-4.14744e-06
0.00418866
4.98551e-07
0.00418706
5.83179e-06
0.0041841
8.87643e-06
0.00418007
1.55747e-05
0.00416075
2.43517e-05
0.00411902
6.62965e-05
0.00397246
0.000624218
0.00387643
0.000728686
0.00379057
0.000775579
0.00369246
0.000788915
0.00359316
0.000806644
0.00349692
0.000825184
0.00340435
0.000852268
0.00331051
0.000880229
0.00321615
0.000906233
0.00312041
0.000932722
0.00302113
0.000960003
0.00292024
0.000988469
0.00281806
0.00102002
0.0027111
0.00105356
0.00260031
0.00108797
0.00248754
0.00112534
0.00236929
0.00116586
0.00224364
0.00120536
0.00211408
0.00124692
0.00197823
0.00129058
0.00183627
0.00133298
0.00168974
0.00137753
0.00153661
0.00142363
0.00137616
0.00146513
0.0012119
0.00150585
0.00104256
0.00154927
0.000867528
0.00158728
0.000690539
0.00161887
0.000515596
0.00165009
0.000343501
0.00168004
0.000169759
0.00170191
0.00170256
0.0043396
3.92999e-09
0.0043396
4.58272e-09
0.0043396
5.50402e-09
0.0043396
2.8777e-09
0.0043396
1.67281e-09
0.0043396
-1.74745e-09
0.00433959
-2.13549e-09
0.00433949
-9.79745e-09
0.00433935
9.63244e-09
0.00433882
-2.01648e-08
0.00433785
1.24063e-07
0.0043287
-1.20246e-07
0.00433018
1.41579e-06
0.00437594
2.67032e-06
0.0043369
1.08488e-05
0.0043242
1.48881e-05
0.00431582
3.35062e-05
0.00427098
9.65582e-05
0.00410737
0.000755428
0.00398946
0.000843493
0.00389263
0.000870764
0.003795
0.000885179
0.00369737
0.000902906
0.00360067
0.000920805
0.00350544
0.000946524
0.00340954
0.000974223
0.00331435
0.00100121
0.00321838
0.00102958
0.00311864
0.00105893
0.00301765
0.00108986
0.0029153
0.00112458
0.00280796
0.00116158
0.00269701
0.00119989
0.00258366
0.00124182
0.00246462
0.00128704
0.00233829
0.00133187
0.0022079
0.00137936
0.00207008
0.00142923
0.00192542
0.00147734
0.00177633
0.0015272
0.00161979
0.00158057
0.00145268
0.00162957
0.0012821
0.00167501
0.00110644
0.00172388
0.000923052
0.00176697
0.000737327
0.00180097
0.000551904
0.00183447
0.000366772
0.00186641
0.000183713
0.0018852
0.00188586
0.00450084
3.4391e-09
0.00450084
3.76987e-09
0.00450084
3.94713e-09
0.00450084
4.65123e-09
0.00450084
3.00317e-09
0.00450083
5.35058e-09
0.00450081
1.14672e-08
0.00450075
4.13778e-08
0.00450069
9.68953e-08
0.00450017
3.0605e-07
0.00449981
5.86455e-07
0.00450264
1.86082e-06
0.00449795
3.29228e-06
0.00443483
3.8723e-06
0.00449318
9.77509e-06
0.00448266
1.67683e-05
0.00447023
4.27907e-05
0.00443042
0.000125053
0.00425104
0.000901309
0.00411115
0.000980349
0.00400021
0.00098063
0.00389851
0.000985501
0.00380011
0.000999917
0.00370244
0.00101728
0.00360533
0.00104267
0.00350845
0.00106934
0.00341284
0.00109655
0.00331723
0.00112596
0.00321834
0.00115705
0.00311844
0.00119024
0.0030174
0.00122794
0.00291129
0.00126838
0.00280159
0.00131075
0.00268916
0.00135733
0.00257056
0.00140743
0.00244504
0.00145801
0.00231473
0.00151221
0.00217638
0.00156914
0.00202802
0.00162472
0.001875
0.00168048
0.00171624
0.00174031
0.00154609
0.00179704
0.00136884
0.00185113
0.00118521
0.00190681
0.000992165
0.00195625
0.000794191
0.00199486
0.000596773
0.00203059
0.000398398
0.00206523
0.000197355
0.0020865
0.00208296
0.00466807
3.02323e-09
0.00466807
2.92056e-09
0.00466807
2.38269e-09
0.00466807
5.0727e-09
0.00466806
4.94799e-09
0.00466806
1.1168e-08
0.00466805
1.78911e-08
0.004668
8.33802e-08
0.00466795
1.44198e-07
0.00466771
5.65994e-07
0.0046672
9.65366e-07
0.00466141
3.69666e-06
0.00466347
2.93581e-06
0.00471522
1.68797e-06
0.00466992
1.15613e-05
0.0046541
1.91957e-05
0.00464039
5.59193e-05
0.0045894
0.000159594
0.00438389
0.00107041
0.00422197
0.00113973
0.00410305
0.00109876
0.00399863
0.00108861
0.00389813
0.00109913
0.00380011
0.00111441
0.00370342
0.00113834
0.00360658
0.00116433
0.00351132
0.00119152
0.00341633
0.00122143
0.00331893
0.00125358
0.0032211
0.00128883
0.00312204
0.00132927
0.00301833
0.00137284
0.00291132
0.00141929
0.00280095
0.00147065
0.00268437
0.00152553
0.00256157
0.00158207
0.00243332
0.00164264
0.00229714
0.00170726
0.00214984
0.00177084
0.00199489
0.00183662
0.00183028
0.00190467
0.00165607
0.00196849
0.00147412
0.00203222
0.00128249
0.00209774
0.00107918
0.00215509
0.000868659
0.00220113
0.000654588
0.00224413
0.000438745
0.00228207
0.000221185
0.00230488
0.00230381
0.00484151
2.60272e-09
0.00484151
2.71071e-09
0.00484151
2.43018e-09
0.00484151
2.82832e-09
0.00484151
1.79252e-10
0.00484153
-4.95725e-09
0.00484155
-7.41039e-09
0.00484166
-1.90262e-08
0.00484184
-1.5764e-08
0.00484215
5.68583e-09
0.00484445
-3.38671e-08
0.00484386
4.43177e-07
0.0048532
-1.38482e-07
0.0048017
-2.5338e-06
0.00484708
1.46408e-05
0.00486067
-5.69997e-07
0.00481083
0.000100431
0.00475611
0.000201879
0.00451161
0.00127364
0.00432186
0.00132752
0.00419902
0.00122099
0.00409275
0.00119345
0.00399023
0.0012004
0.00389313
0.00121083
0.00379808
0.00123281
0.00370279
0.00125838
0.00360986
0.00128469
0.00351748
0.00131422
0.00342331
0.00134675
0.00332948
0.00138373
0.00323426
0.00142671
0.00313433
0.00147349
0.00303144
0.00152405
0.00292535
0.0015802
0.00281202
0.00164077
0.00269168
0.00170354
0.00256582
0.00177114
0.00243191
0.00184313
0.00228757
0.00191532
0.00213482
0.00199034
0.00197069
0.00206924
0.00179198
0.0021453
0.00160414
0.00221916
0.00140483
0.00229623
0.00119021
0.00236587
0.000964672
0.00242224
0.000732824
0.00247482
0.000492918
0.00252298
0.000245792
0.00255228
0.00254908
0.00502139
2.0902e-09
0.00502139
2.43179e-09
0.00502139
1.812e-09
0.0050214
1.93429e-09
0.0050214
-7.68117e-10
0.00502141
-1.86886e-09
0.0050214
-1.22889e-08
0.00502155
-9.71989e-09
0.00502148
-5.21914e-08
0.0050225
-8.82239e-08
0.0050222
-4.55767e-07
0.00503114
-1.23995e-06
0.00503104
-3.80049e-06
0.0050561
-1.27513e-05
0.00502151
3.88276e-05
0.00509523
-7.79197e-05
0.00494872
0.000230931
0.00499419
0.000134894
0.00464877
0.0015749
0.00443639
0.0015411
0.00430819
0.00135019
0.00420453
0.0012955
0.0041024
0.00130087
0.00400247
0.00130953
0.00390381
0.00133066
0.00380646
0.00135448
0.00371357
0.00137801
0.00362288
0.00140539
0.0035319
0.00143696
0.00344239
0.00147428
0.00335263
0.00151863
0.00325912
0.00156796
0.00316244
0.00162215
0.00306232
0.00168266
0.00295614
0.00174864
0.00284265
0.00181864
0.0027223
0.00189396
0.00259336
0.0019745
0.00245124
0.00205748
0.00229976
0.00214217
0.0021378
0.00223195
0.00195991
0.00232162
0.00176836
0.00240965
0.00156187
0.00250182
0.00133617
0.00258848
0.00109325
0.00266064
0.000837801
0.00272896
0.000570023
0.00279082
0.000290637
0.00283339
0.00283967
0.00520796
1.66323e-09
0.00520796
1.4135e-09
0.00520796
1.97332e-09
0.00520796
2.28967e-09
0.00520796
5.42246e-09
0.00520794
1.20751e-08
0.00520789
4.2366e-08
0.00520779
8.77164e-08
0.00520746
2.76277e-07
0.00520692
5.10565e-07
0.00520471
1.57612e-06
0.00520035
2.62137e-06
0.00518004
9.12877e-06
0.00517116
2.53406e-06
0.00523166
7.0834e-06
0.00513611
6.00209e-06
0.00525847
8.12169e-05
0.00501145
0.000361886
0.00491156
0.00162445
0.0047201
0.00174154
0.00456895
0.00150773
0.00446321
0.0014034
0.00435367
0.00141168
0.00424725
0.00141757
0.00413405
0.00144578
0.00402154
0.00146834
0.00391367
0.00148772
0.00380848
0.00151058
0.00370547
0.00153866
0.00360758
0.0015732
0.00351266
0.00161582
0.00341705
0.00166458
0.00332112
0.00171977
0.00322369
0.00178261
0.00312196
0.00185192
0.0030146
0.00192712
0.00290112
0.00200905
0.00278046
0.00209754
0.00264786
0.00219118
0.00250207
0.00228869
0.00234322
0.00239166
0.00216789
0.00249544
0.00197652
0.0026001
0.00176761
0.0027097
0.00153386
0.0028195
0.00127231
0.00291736
0.000991236
0.00300821
0.00068461
0.0030978
0.000349047
0.00316886
0.00318843
0.00540147
1.17342e-09
0.00540147
9.72359e-10
0.00540147
1.24563e-09
0.00540147
1.13082e-09
0.00540147
2.81894e-09
0.00540147
7.23913e-09
0.00540149
2.15264e-08
0.00540152
5.49906e-08
0.00540165
1.43096e-07
0.00540188
3.16794e-07
0.00540204
7.8753e-07
0.00540548
1.52278e-06
0.00538928
3.83293e-06
0.00541662
6.55385e-06
0.00529768
7.62399e-06
0.00537379
3.47004e-05
0.00537396
7.00694e-05
0.0053762
0.000343723
0.00560412
0.0013241
0.00547364
0.00189386
0.00521266
0.00178446
0.00504981
0.00157209
0.00490295
0.00156182
0.00476164
0.00156117
0.00460982
0.00159898
0.00445983
0.0016194
0.00431588
0.00163401
0.00417764
0.00165073
0.00404311
0.0016731
0.00391542
0.00170231
0.00379401
0.00173948
0.0036766
0.00178326
0.00356385
0.00183428
0.00345529
0.0018941
0.0033474
0.00196255
0.00323818
0.00203876
0.00312616
0.00212328
0.00300906
0.00221682
0.00288486
0.00231683
0.0027503
0.0024241
0.00260225
0.00254085
0.00243422
0.00266357
0.00224513
0.0027875
0.00203665
0.00291753
0.00180156
0.00305283
0.00152815
0.00318547
0.00122019
0.00331384
0.000869772
0.00344754
0.000467043
0.00357281
0.00365532
0.00560216
5.64278e-10
0.00560216
6.69266e-10
0.00560216
5.42531e-10
0.00560216
7.17457e-10
0.00560216
1.78408e-09
0.00560216
6.25665e-09
0.00560216
1.56006e-08
0.00560218
4.17575e-08
0.00560225
9.32494e-08
0.00560246
1.55735e-07
0.00560221
2.95313e-07
0.00560264
6.47686e-07
0.00561665
5.55318e-07
0.00560259
5.90323e-06
0.00562137
4.25245e-06
0.00562015
2.95543e-05
0.00561063
5.42023e-05
0.00575045
0.000184356
0.00638677
0.000612029
0.00623841
0.00202982
0.00594642
0.00207177
0.00571443
0.00181201
0.00552101
0.00175557
0.0053351
0.00174522
0.00516572
0.00176483
0.00498964
0.00179317
0.00481823
0.00180553
0.00465238
0.00181773
0.00449123
0.00183469
0.00433691
0.00185799
0.00418971
0.00188876
0.0040483
0.0019265
0.00391207
0.00197114
0.00378352
0.00202487
0.00366018
0.00208823
0.00353973
0.00216097
0.00342326
0.00224189
0.00330834
0.00233432
0.0031867
0.00244018
0.00305673
0.00255526
0.0029193
0.00267911
0.00276811
0.00281517
0.00259688
0.00295827
0.0024013
0.00311206
0.00217523
0.00327708
0.00190689
0.00344822
0.00158838
0.00362998
0.00119956
0.00383568
0.000695633
0.00407726
0.00435077
0.00581031
7.03876e-11
0.00581031
2.05162e-10
0.00581031
2.8611e-10
0.00581031
8.42896e-10
0.00581031
1.50431e-09
0.00581031
5.06428e-09
0.00581031
8.1134e-09
0.00581033
2.94244e-08
0.0058104
2.09095e-08
0.00581039
1.48199e-07
0.00581074
-7.7086e-09
0.00581125
2.73934e-07
0.00581287
-3.80349e-07
0.00580983
5.7112e-06
0.00583576
-7.18801e-06
0.00578342
5.46587e-05
0.00589238
-3.17429e-05
0.00582304
0.000230356
0.00606432
0.000325182
0.00608557
0.0019684
0.00610077
0.00204385
0.0058996
0.00200726
0.00576575
0.00188911
0.00563048
0.00188214
0.005503
0.00189353
0.00537083
0.00192409
0.00522682
0.00194948
0.00507699
0.00196892
0.00492381
0.00198867
0.00477122
0.00201214
0.00462098
0.00204151
0.00447337
0.00207661
0.00432852
0.00211783
0.00418835
0.00216698
0.00405492
0.00222349
0.00392822
0.002289
0.00380367
0.00236792
0.0036808
0.00245913
0.00356232
0.00256095
0.00344338
0.00267562
0.00332051
0.00280318
0.00319041
0.00294584
0.00304592
0.00310175
0.00288555
0.00327099
0.00269762
0.00346336
0.00246871
0.00367348
0.00218465
0.00391051
0.00181708
0.00420155
0.00131241
0.00458348
0.00566353
0.00840003
5.77878e-12
0.00840003
3.32608e-11
0.00840003
1.26045e-10
0.00840003
2.93797e-10
0.00840003
8.98524e-10
0.00840004
1.95661e-09
0.00840004
4.26568e-09
0.00840007
9.42924e-09
0.00840007
1.82254e-08
0.00840033
4.59395e-08
0.00840009
1.06451e-07
0.00839815
3.27612e-07
0.00840324
4.41887e-07
0.00841285
1.49831e-06
0.00839784
2.06061e-06
0.00847763
1.27895e-05
0.00840826
3.18453e-05
0.0085026
0.000107888
0.00822901
0.000535364
0.00810971
0.00198939
0.00798083
0.00216792
0.00793901
0.00204823
0.00784742
0.00198231
0.00775915
0.00197158
0.00767216
0.00198291
0.00757711
0.00201941
0.00746733
0.00205893
0.00734307
0.00209319
0.0072053
0.00212515
0.00705865
0.00215824
0.00690633
0.00219511
0.00674925
0.00223576
0.00658971
0.00227977
0.00643126
0.00232765
0.00627268
0.00238516
0.00611218
0.00245177
0.00595641
0.00252512
0.00581052
0.00260681
0.00567192
0.00270111
0.00554213
0.00280667
0.00542067
0.00292556
0.00530941
0.00305803
0.00520595
0.00320539
0.00510888
0.00336655
0.00503254
0.00353762
0.00497792
0.00372374
0.00498143
0.00390207
0.00513064
0.0040474
0.00560442
0.00410732
0.00375795
0.00751042
0.00840003
2.32203e-12
0.00840003
1.1438e-11
0.00840003
3.60835e-11
0.00840003
9.09236e-11
0.00840003
2.05163e-10
0.00840003
2.88752e-10
0.00840003
1.4947e-09
0.00840007
1.19454e-09
0.00840013
1.6388e-08
0.00840006
2.60445e-08
0.00839975
8.18751e-08
0.00839928
2.57487e-07
0.008394
3.13746e-07
0.00844
-4.41291e-07
0.00839347
3.67821e-06
0.00845693
6.31023e-06
0.00842256
4.89447e-05
0.00835601
0.000124229
0.00830254
0.000544996
0.0080658
0.00212606
0.00789709
0.00233928
0.00776936
0.00218193
0.00771784
0.00204111
0.00764216
0.0020489
0.00757781
0.00204837
0.00750985
0.00208689
0.00744051
0.00212747
0.0073681
0.0021648
0.00728951
0.00220162
0.00720514
0.00224143
0.00711643
0.00228361
0.00702526
0.00232783
0.00692927
0.0023776
0.00682553
0.00243369
0.00671989
0.00249382
0.00661806
0.00255681
0.00651923
0.00262707
0.00642399
0.00270397
0.00633974
0.00278748
0.00626667
0.0028818
0.00621163
0.00298104
0.00617754
0.00309246
0.00617567
0.0032075
0.00621195
0.00332997
0.00629839
0.00345004
0.00646509
0.00355451
0.00672217
0.00364073
0.00711767
0.00364708
0.00761592
0.0036039
0.00319432
0.00817551
0.00840003
9.64983e-13
0.00840003
4.36155e-12
0.00840003
1.97267e-11
0.00840003
4.84833e-11
0.00840003
-7.33225e-13
0.00840003
1.28959e-10
0.00840004
-1.15899e-09
0.00839998
-2.89004e-09
0.00840005
-1.5915e-09
0.00840008
1.49684e-09
0.00840017
-3.31689e-08
0.00840035
2.3594e-08
0.00840196
-2.79112e-07
0.00837723
-2.09547e-06
0.00841499
4.14975e-06
0.00822278
9.37797e-06
0.00840499
4.6421e-05
0.00839293
0.000113387
0.00841205
0.000482223
0.00875905
0.00164023
0.00862412
0.00249725
0.00839345
0.00243568
0.00823782
0.00220968
0.0081296
0.00216481
0.00800487
0.0021795
0.00789948
0.00219739
0.00780067
0.00223256
0.00770639
0.00226475
0.00761632
0.0022962
0.00753273
0.00232819
0.00745375
0.00236414
0.00737469
0.00240721
0.00729763
0.00245541
0.00722664
0.00250594
0.0071621
0.00256004
0.00710227
0.0026189
0.00705214
0.00268025
0.0070106
0.00274852
0.00698238
0.00281838
0.0069715
0.00289506
0.0069803
0.00297367
0.0070196
0.00305393
0.00708982
0.00313717
0.00721004
0.00320944
0.00737671
0.0032825
0.00760887
0.00332088
0.00789735
0.0033494
0.00823331
0.00330757
0.0086091
0.0032235
0.00298553
0.00881261
0.00840003
1.7672e-12
0.00840003
6.30061e-12
0.00840003
3.17581e-11
0.00840003
5.42687e-11
0.00840003
3.90953e-10
0.00840003
5.23591e-10
0.00840002
3.58878e-09
0.00840009
5.23038e-09
0.00839994
2.36783e-08
0.00840053
2.5489e-08
0.00839981
2.26925e-07
0.00839956
3.03511e-07
0.00839754
1.50699e-06
0.00837367
3.71019e-06
0.00838014
5.84028e-06
0.00847665
6.53334e-06
0.00840934
3.11322e-05
0.00842907
6.29321e-05
0.00865055
0.000244202
0.00951588
0.000719737
0.00925614
0.00270918
0.0090629
0.0026113
0.00881748
0.00245446
0.00862746
0.00235441
0.00849768
0.00230769
0.00837198
0.00232097
0.00825704
0.00234549
0.00814896
0.00237121
0.00804877
0.00239557
0.00795573
0.00242015
0.00787184
0.00244826
0.00779694
0.0024826
0.00773189
0.00252069
0.0076746
0.00256283
0.00762705
0.00260733
0.00759105
0.00265508
0.00756751
0.0027046
0.00756162
0.00275621
0.00757153
0.0028106
0.0076057
0.00286339
0.00766093
0.00292052
0.00774765
0.00296886
0.00786323
0.00302201
0.00801746
0.00305515
0.00820829
0.00309083
0.00843679
0.0030911
0.00869896
0.00308547
0.00897316
0.00303044
0.00927156
0.00292199
0.00279999
0.00945274
0.00840003
2.12892e-12
0.00840003
1.3232e-12
0.00840003
2.94377e-11
0.00840003
6.75504e-12
0.00840003
1.94847e-10
0.00840003
5.9492e-11
0.00840004
1.13727e-09
0.00840001
4.78458e-10
0.00840005
1.00664e-08
0.0084001
-7.5272e-09
0.00840024
1.02653e-07
0.0084001
1.36315e-08
0.00840249
4.67835e-07
0.0083968
9.45957e-07
0.00841117
3.89812e-06
0.00829708
-4.34098e-06
0.0083993
4.27277e-05
0.00845492
-9.04534e-06
0.00843887
0.000248767
0.0086731
0.000452982
0.00880956
0.00248977
0.00877536
0.00262444
0.00868142
0.00253675
0.0086247
0.00240642
0.00855767
0.00237168
0.00850038
0.00237624
0.00843905
0.00240286
0.00837699
0.00242736
0.00831675
0.00245023
0.00825955
0.00247316
0.00820561
0.00249874
0.00815916
0.00252735
0.00811959
0.00255935
0.00808908
0.00259343
0.0080664
0.00262991
0.00805591
0.0026658
0.00805657
0.00270436
0.00807378
0.00273971
0.00810758
0.00277801
0.00816289
0.00280965
0.00824077
0.00284464
0.0083443
0.00286718
0.00847433
0.00289291
0.00863183
0.00289798
0.00881795
0.0029039
0.00902481
0.00288275
0.00925567
0.00285259
0.00950904
0.00277441
0.00971925
0.00270893
0.00258869
0.00992682
0.00840003
6.11349e-13
0.00840003
2.52076e-12
0.00840003
9.41871e-12
0.00840003
2.3346e-11
0.00840003
6.19719e-11
0.00840003
2.21975e-10
0.00840002
5.39981e-10
0.00840003
1.92555e-09
0.00840007
5.86216e-09
0.00839993
2.15539e-08
0.00840004
5.43931e-08
0.00840048
1.6629e-07
0.00839956
4.82952e-07
0.00839697
8.0913e-07
0.00841945
1.68969e-06
0.00838281
4.45316e-06
0.00857412
1.38693e-05
0.00839609
4.79804e-05
0.00847989
0.000132143
0.00830521
0.000615821
0.00836077
0.00233467
0.00829619
0.00267473
0.00829467
0.00252897
0.00833055
0.00236706
0.0083439
0.00235645
0.00834955
0.0023682
0.0083621
0.00238532
0.00836937
0.00241404
0.0083737
0.00243914
0.00837503
0.00246593
0.00837318
0.00249616
0.0083749
0.00252267
0.00838062
0.0025525
0.00839256
0.00258118
0.00840964
0.0026129
0.00843512
0.00264047
0.00846917
0.00267073
0.00851479
0.00269464
0.00857323
0.00272038
0.00864638
0.00273755
0.00873756
0.00275496
0.00884505
0.00276122
0.00897413
0.00276502
0.00911813
0.00275471
0.00928541
0.00273652
0.0094631
0.00270399
0.00966545
0.00264846
0.00985534
0.00258222
0.010049