/*--------------------------------*- C++ -*----------------------------------*\
| =========                 |                                                 |
| \\      /  F ield         | OpenFOAM: The Open Source CFD Toolbox           |
|  \\    /   O peration     | Version:  2112                                  |
|   \\  /    A nd           | Website:  www.openfoam.com                      |
|    \\/     M anipulation  |                                                 |
\*---------------------------------------------------------------------------*/
FoamFile
{
    version     2.0;
    format      ascii;
    arch        "LSB;label=32;scalar=64";
    class       volScalarField;
    location    "7.9995";
    object      T;
}
// * * * * * * * * * * * * * * * * * * * * * * * * * * * * * * * * * * * * * //

dimensions      [0 0 0 1 0 0 0];

internalField   nonuniform List<scalar> 
7000
(
1
1
1
1
0.999996
1.00001
1.00003
1.0003
1.00057
1.00235
1.00363
1.01275
1.02153
1.05223
1.1463
1.37047
1.83588
2.62794
2.74624
2.72531
2.69
2.68763
2.69591
2.7041
2.71288
2.71713
2.72039
2.72624
2.73
2.73198
2.73724
2.74057
2.7412
2.74607
2.74909
2.74895
2.75389
2.75667
2.75612
2.7616
2.76542
2.7637
2.76939
2.77862
2.78114
2.79076
2.81092
2.82016
2.81435
2.82238
1
1
1
1
0.999997
1.00001
1.00003
1.0003
1.00056
1.00229
1.00353
1.01243
1.0208
1.0515
1.14077
1.35753
1.82475
2.62748
2.74551
2.7258
2.69301
2.69062
2.69873
2.70674
2.71514
2.71895
2.7226
2.72847
2.73169
2.73403
2.7399
2.74289
2.74381
2.7495
2.75218
2.75256
2.75801
2.76007
2.75993
2.76583
2.76842
2.76678
2.774
2.78179
2.78435
2.79593
2.81481
2.82078
2.81444
2.82022
1
1
1
1
0.999999
1.00002
1.00003
1.0003
1.00055
1.00225
1.00346
1.01219
1.0204
1.05086
1.13808
1.35151
1.82096
2.63488
2.74606
2.72696
2.69524
2.69235
2.70004
2.70774
2.71547
2.71918
2.72359
2.72852
2.73033
2.73359
2.73899
2.74063
2.7432
2.74891
2.74995
2.75135
2.75711
2.75818
2.75911
2.76536
2.76679
2.7661
2.77519
2.78235
2.78507
2.79877
2.8171
2.82166
2.81396
2.82094
1
1
1
1
1
1.00002
1.00003
1.0003
1.00054
1.0022
1.00337
1.01187
1.01985
1.04945
1.13494
1.34277
1.81206
2.62789
2.74557
2.72573
2.69598
2.69282
2.70019
2.70765
2.71513
2.71908
2.72398
2.72862
2.73058
2.73485
2.74018
2.74146
2.74471
2.74987
2.75018
2.75202
2.75746
2.75787
2.75955
2.76523
2.7655
2.76603
2.77587
2.78223
2.78576
2.80022
2.81753
2.8189
2.81242
2.81868
1
1
1
1
1
1.00002
1.00003
1.0003
1.00053
1.00214
1.00327
1.01151
1.01928
1.04774
1.13241
1.33419
1.80645
2.62719
2.74551
2.72589
2.69791
2.69414
2.70077
2.70781
2.71489
2.71903
2.72428
2.72848
2.7304
2.73527
2.7403
2.74143
2.74539
2.75017
2.75014
2.75259
2.75762
2.75758
2.75992
2.76509
2.76467
2.76618
2.77658
2.78149
2.78541
2.80112
2.81711
2.81882
2.80961
2.81926
1
1
1
1
1
1.00002
1.00003
1.00029
1.00052
1.00207
1.00316
1.01113
1.01865
1.04605
1.12942
1.32537
1.79858
2.62245
2.74423
2.72521
2.69836
2.69407
2.70052
2.70758
2.71467
2.71868
2.72352
2.72725
2.72978
2.73513
2.73953
2.74109
2.74605
2.75071
2.75046
2.75316
2.75767
2.75734
2.76021
2.7644
2.76313
2.76582
2.77635
2.78039
2.78517
2.80171
2.8166
2.81549
2.80969
2.81487
1
1
1
1
1
1.00002
1.00003
1.00029
1.0005
1.00199
1.00303
1.01068
1.01793
1.04402
1.12639
1.3159
1.79056
2.61711
2.74283
2.72423
2.69982
2.69408
2.70058
2.70644
2.71263
2.71712
2.72283
2.72677
2.72957
2.7357
2.74006
2.74055
2.745
2.74987
2.74996
2.75326
2.75737
2.75673
2.75973
2.76365
2.76196
2.76508
2.77564
2.77867
2.78387
2.80124
2.81557
2.81507
2.8052
2.81536
1
1
1
1
1
1.00002
1.00003
1.00028
1.00048
1.0019
1.00287
1.01017
1.01712
1.04173
1.12326
1.30588
1.78158
2.60897
2.74109
2.72187
2.7013
2.69349
2.69903
2.70381
2.71143
2.71762
2.72395
2.72743
2.73023
2.73613
2.73964
2.74011
2.74375
2.7469
2.74746
2.75211
2.75635
2.75592
2.759
2.76209
2.76057
2.76479
2.7742
2.77656
2.78229
2.79937
2.81257
2.80975
2.80481
2.80953
1
1
1
1
1
1.00002
1.00003
1.00027
1.00046
1.00178
1.00268
1.00926
1.01618
1.03895
1.12031
1.29537
1.77243
2.59945
2.74023
2.71381
2.7004
2.69306
2.69796
2.7049
2.71303
2.71875
2.72468
2.72727
2.72962
2.7351
2.73749
2.73832
2.74256
2.74453
2.74422
2.74953
2.75425
2.75423
2.75804
2.76018
2.75785
2.76293
2.77305
2.77489
2.78165
2.79864
2.81002
2.80864
2.79945
2.81046
1
1
1
1
1
1.00002
1.00003
1.00026
1.00044
1.00167
1.00251
1.00835
1.01517
1.03584
1.11691
1.28421
1.76264
2.59419
2.73285
2.70314
2.70245
2.69644
2.6994
2.7052
2.71252
2.7181
2.72295
2.72573
2.72803
2.73316
2.73523
2.73624
2.74086
2.74252
2.74142
2.74644
2.75101
2.75187
2.75605
2.75872
2.75687
2.76047
2.7689
2.77172
2.77846
2.79555
2.8058
2.80059
2.79646
2.8022
1
1
1
1
1
1.00002
1.00004
1.00024
1.00041
1.00148
1.00225
1.0072
1.01368
1.03119
1.11328
1.27254
1.75255
2.58532
2.71991
2.71028
2.70212
2.69428
2.69723
2.70393
2.71049
2.71698
2.72169
2.72389
2.72719
2.73187
2.73337
2.73476
2.73893
2.7405
2.73902
2.7436
2.74676
2.74773
2.75287
2.75472
2.75302
2.76023
2.76651
2.76622
2.77443
2.79176
2.80305
2.79988
2.79097
2.80269
1
1
1
1
1.00001
1.00001
1.00011
1.00021
1.00084
1.00129
1.00487
1.00462
1.0147
1.02578
1.11086
1.25973
1.73677
2.56515
2.71395
2.71199
2.70186
2.69427
2.69698
2.7036
2.70982
2.71588
2.72113
2.7228
2.72609
2.73085
2.73204
2.73359
2.73758
2.73867
2.73764
2.74164
2.74408
2.7441
2.74984
2.75184
2.74881
2.75425
2.76367
2.76367
2.77042
2.78757
2.79619
2.79247
2.78716
2.79087
1
1
1
1
1.00001
1.00001
1.0001
1.00019
1.00076
1.00113
1.0043
1.0039
1.01322
1.02397
1.10192
1.24447
1.71599
2.54068
2.70542
2.71025
2.70233
2.69448
2.69703
2.70328
2.70956
2.71512
2.71993
2.72171
2.72456
2.72908
2.72997
2.73121
2.73477
2.73537
2.73446
2.73792
2.73904
2.73826
2.74332
2.74927
2.74822
2.74991
2.75653
2.75748
2.76377
2.78082
2.79216
2.78696
2.78017
2.79246
1
1
1
1
1.00001
1.00001
1.0001
1.00018
1.00068
1.00105
1.00378
1.00334
1.01206
1.01929
1.09675
1.22545
1.68977
2.5106
2.69111
2.71059
2.70258
2.69423
2.69659
2.70248
2.70832
2.7141
2.71844
2.72037
2.7235
2.7277
2.7286
2.73026
2.73329
2.73353
2.73367
2.73588
2.73598
2.73383
2.73689
2.74039
2.74063
2.74784
2.75194
2.75094
2.75733
2.77349
2.78285
2.78061
2.7741
2.77469
1
1
1
1
1
1.00001
1.00004
1.00017
1.00032
1.00089
1.00183
1.00387
1.01098
1.01661
1.08644
1.20633
1.65951
2.46787
2.67246
2.71188
2.70398
2.69449
2.69643
2.70202
2.70742
2.71276
2.71637
2.71751
2.72063
2.72411
2.72451
2.72632
2.72931
2.72939
2.72895
2.7322
2.73301
2.73164
2.73478
2.73532
2.73372
2.73801
2.74459
2.74401
2.74913
2.76468
2.77373
2.76906
2.76288
2.77483
1
1
1
1
1.00001
1.00001
1.00008
1.00014
1.00043
1.00075
1.00202
1.00268
1.00861
1.00884
1.07754
1.17797
1.62459
2.41229
2.64872
2.71167
2.70231
2.69166
2.69328
2.69996
2.70597
2.71187
2.71568
2.71684
2.71979
2.72266
2.72264
2.72334
2.72502
2.72494
2.72431
2.72533
2.72524
2.72383
2.72535
2.72943
2.72868
2.73002
2.73472
2.73431
2.73781
2.75327
2.76195
2.75963
2.75271
2.75153
1
1
1
1
1
1.00004
1.00007
1.00026
1.00041
1.00142
1.00231
1.00856
1.00771
1.02462
1.0543
1.21124
1.50093
2.14609
2.62242
2.72457
2.71275
2.69504
2.69069
2.69471
2.69815
2.70279
2.70627
2.70901
2.71425
2.71859
2.71958
2.72103
2.72287
2.72265
2.72241
2.72264
2.72191
2.72014
2.71831
2.7191
2.71867
2.72062
2.72527
2.72407
2.72454
2.73698
2.74673
2.74261
2.73266
2.74387
1
1
1
1
1
1.00001
1.00005
1.00008
1.00026
1.00047
1.00106
1.00356
1.00305
1.02206
1.05336
1.17022
1.41391
1.97168
2.53973
2.70697
2.6965
2.68482
2.6822
2.68901
2.69263
2.69791
2.70025
2.70072
2.7024
2.70556
2.70707
2.70984
2.71326
2.71442
2.71487
2.71554
2.71544
2.71434
2.71282
2.71141
2.70832
2.70741
2.71025
2.71186
2.71059
2.71637
2.72646
2.72442
2.71417
2.70696
1
1
1
1
1.00001
1.00001
1.00004
1.00006
1.00019
1.00034
1.0007
1.00256
1.00249
1.01875
1.04747
1.13714
1.34426
1.79106
2.54149
2.69809
2.67636
2.65982
2.65702
2.66744
2.67556
2.68595
2.69265
2.69539
2.69752
2.6991
2.69929
2.69957
2.70139
2.70272
2.703
2.70407
2.70488
2.70403
2.70282
2.70174
2.69947
2.6951
2.69361
2.6911
2.69057
2.69256
2.69777
2.69163
2.67425
2.67377
1
1
1
1
1
1.00001
1.00002
1.00003
1.00006
1.00026
1.00041
1.00252
1.00116
1.01587
1.02925
1.11914
1.28186
1.76525
2.56737
2.71029
2.68063
2.67762
2.66569
2.66763
2.67124
2.67816
2.68515
2.68859
2.69128
2.6936
2.69387
2.69342
2.69321
2.69295
2.69236
2.692
2.69232
2.69136
2.68995
2.68753
2.68564
2.68024
2.677
2.67296
2.66357
2.66164
2.65875
2.65042
2.61424
2.52099
1
1
1
1
1
1
1.00001
1.00001
1.0001
1.00014
1.00082
1.00109
1.00676
1.00283
1.03726
1.093
1.2987
1.7769
2.3354
2.66796
2.68223
2.67534
2.66648
2.66729
2.67074
2.67432
2.67851
2.68057
2.68208
2.68418
2.68472
2.68437
2.68356
2.68193
2.67992
2.67695
2.67521
2.67271
2.66912
2.66659
2.66154
2.65702
2.64684
2.64006
2.62749
2.60821
2.59266
2.55943
2.50996
2.39635
1
1
1
1
1
1
1.00001
1.00001
1.00007
1.00013
1.0006
1.00083
1.00615
1.00271
1.03149
1.07545
1.24883
1.61387
2.22812
2.61553
2.68316
2.67463
2.66419
2.66485
2.66875
2.67231
2.6758
2.67706
2.67754
2.67816
2.67814
2.67769
2.67631
2.67472
2.67055
2.66733
2.66053
2.65653
2.65017
2.64339
2.6371
2.62754
2.61907
2.60186
2.5875
2.5613
2.5272
2.48828
2.40963
2.34696
1
1
1
1
1
1
1.00001
1
1.00005
1.00009
1.00042
1.0006
1.00458
1.00247
1.02553
1.06162
1.1913
1.46165
2.04298
2.53834
2.67053
2.65729
2.64752
2.64448
2.64902
2.65269
2.65688
2.6588
2.66025
2.6612
2.66201
2.66269
2.6622
2.66088
2.65858
2.65396
2.64941
2.64012
2.63403
2.62132
2.61313
2.59876
2.5853
2.56919
2.54458
2.52341
2.48073
2.44741
2.37544
2.33374
1
1
1
1
1
1
1.00001
1.00001
1.00009
1.00009
1.00071
1.0012
1.00622
1.00523
1.01856
1.03953
1.13431
1.32988
1.78212
2.52731
2.67421
2.6458
2.63753
2.62585
2.62645
2.63128
2.63626
2.64028
2.6426
2.64397
2.64519
2.64481
2.64401
2.64278
2.64134
2.63782
2.6344
2.62738
2.61887
2.60886
2.59376
2.58152
2.55954
2.54458
2.51427
2.49416
2.45315
2.4234
2.37051
2.3323
1
1
1
1
1
1
1
1
1.00002
1.00004
1.00022
1.00037
1.00196
1.00169
1.01305
1.02368
1.10585
1.26073
1.73718
2.53741
2.67616
2.66897
2.64966
2.63062
2.62501
2.62639
2.62742
2.62977
2.63047
2.63118
2.63062
2.6288
2.62737
2.6244
2.62169
2.6184
2.61343
2.60907
2.60023
2.59325
2.57849
2.56803
2.54611
2.53184
2.50196
2.4825
2.44624
2.41674
2.37536
2.33842
1
1
1
1
1
1
1
1.00002
1.00001
1.00011
1.00022
1.00087
1.00134
1.00773
1.00407
1.03675
1.07889
1.25685
1.63971
2.24659
2.62767
2.6774
2.66365
2.65104
2.64032
2.63792
2.6348
2.63352
2.63083
2.62911
2.62598
2.6227
2.61743
2.61353
2.6067
2.60245
2.59419
2.58919
2.57893
2.57256
2.55866
2.55001
2.53088
2.51903
2.49542
2.47587
2.44904
2.41955
2.38829
2.35672
1
1
1
1
1
1
1
1.00001
1
1.00005
1.00009
1.00043
1.0006
1.00456
1.00213
1.02529
1.06055
1.19146
1.46252
2.04389
2.51443
2.65232
2.6399
2.63548
2.6294
2.6294
2.62945
2.62973
2.6286
2.62657
2.62231
2.61923
2.61299
2.60888
2.6004
2.59488
2.58426
2.57733
2.56528
2.55624
2.54313
2.53082
2.51647
2.50006
2.4842
2.46343
2.44412
2.42053
2.39619
2.37155
1
1
1
1
1
1
1
1.00001
1.00001
1.00008
1.00007
1.00063
1.00104
1.00536
1.00506
1.017
1.03579
1.12968
1.3156
1.76963
2.50926
2.64337
2.62706
2.62069
2.60684
2.60638
2.60903
2.6106
2.61344
2.61287
2.61104
2.6093
2.60522
2.60207
2.59508
2.59016
2.58042
2.57288
2.56187
2.55114
2.53876
2.52509
2.51067
2.49453
2.47783
2.45984
2.44048
2.42081
2.4
2.37984
1
1
1
1
1
1
1
1
1
1.00003
1.00002
1.00022
1.00032
1.00185
1.00234
1.01131
1.01498
1.09405
1.23685
1.71125
2.49463
2.65421
2.65136
2.63324
2.61343
2.60592
2.60506
2.60455
2.60336
2.60169
2.59788
2.5957
2.5913
2.58852
2.58292
2.57837
2.57155
2.56408
2.55584
2.54564
2.53558
2.52288
2.51047
2.49489
2.48015
2.46216
2.44536
2.42632
2.40775
2.38987
1
1
1
1
1
1
1
1
1.00001
1.00002
1.00013
1.00012
1.00111
1.00179
1.01016
1.00824
1.03072
1.06529
1.23594
1.57101
2.17542
2.58838
2.66694
2.65058
2.63632
2.62326
2.61576
2.61291
2.60757
2.60409
2.59753
2.59346
2.58752
2.58269
2.57642
2.57023
2.56336
2.55548
2.54782
2.53825
2.52912
2.51793
2.50693
2.49421
2.48074
2.46621
2.4515
2.43554
2.41909
2.40353
1
1
1
1
1
1
1
1
1.00001
1.00002
1.00008
1.00007
1.00073
1.00116
1.00628
1.0059
1.01991
1.0407
1.15368
1.36255
1.85864
2.44872
2.65343
2.63362
2.62682
2.61385
2.60732
2.60615
2.60361
2.59974
2.59506
2.5909
2.58578
2.5804
2.57471
2.5678
2.56149
2.55311
2.54588
2.53642
2.52782
2.5172
2.50703
2.49504
2.48329
2.47069
2.45785
2.44395
2.42976
2.41618
1
1
1
1
1
1
1
1
1
1.00002
1.00002
1.00013
1.00018
1.00111
1.00132
1.00946
1.00367
1.04672
1.10823
1.33665
1.91504
2.34692
2.6271
2.62328
2.61541
2.60496
2.60258
2.60137
2.59982
2.59635
2.59196
2.58648
2.58197
2.57594
2.57079
2.56402
2.55798
2.55035
2.54314
2.5348
2.52621
2.5168
2.50699
2.49708
2.4867
2.47562
2.46403
2.45211
2.43949
2.42796
1
1
1
1
1
1
1
1
1
1.00001
1.00003
1.00004
1.00026
1.00043
1.00233
1.00228
1.01606
1.00616
1.09313
1.2054
1.6908
2.44806
2.60859
2.6318
2.61746
2.60333
2.59685
2.59556
2.59487
2.59325
2.59033
2.58548
2.58086
2.5751
2.56951
2.56291
2.55642
2.54924
2.54181
2.53407
2.5259
2.51763
2.5089
2.49973
2.49006
2.48005
2.46952
2.45887
2.44763
2.4374
1
1
1
1
1
1
1
1
1
1.00001
1.00002
1.00009
1.00008
1.00086
1.00132
1.00797
1.00658
1.02591
1.05329
1.20664
1.48581
2.09884
2.54323
2.64806
2.62717
2.61145
2.59806
2.59399
2.5925
2.59039
2.58737
2.58314
2.57868
2.57344
2.56813
2.56226
2.5559
2.54938
2.54214
2.53503
2.52738
2.51962
2.51147
2.50304
2.49418
2.48511
2.47565
2.46605
2.45607
2.44687
1
1
1
1
1
1
1
1
1
1.00001
1.00001
1.00006
1.00005
1.00055
1.00087
1.00488
1.00475
1.01795
1.03009
1.13243
1.32602
1.79295
2.51505
2.66452
2.63337
2.61983
2.59689
2.58715
2.58344
2.58079
2.57737
2.57362
2.56943
2.56522
2.56041
2.55583
2.55013
2.54484
2.53877
2.53263
2.52595
2.51896
2.51149
2.50377
2.49581
2.48758
2.47922
2.4706
2.46185
2.45363
1
1
1
1
1
1
1
1
1
1
1.00002
1.00003
1.00016
1.00014
1.00142
1.00219
1.01352
1.01011
1.04043
1.09597
1.3285
1.85903
2.36221
2.6611
2.65634
2.63902
2.61591
2.60424
2.59847
2.59411
2.5885
2.58225
2.57531
2.56865
2.56211
2.55608
2.54994
2.54376
2.53744
2.531
2.5245
2.51772
2.51087
2.50381
2.49651
2.48894
2.48129
2.47348
2.46556
2.45823
1
1
1
1
1
1
1
1
1
1
1.00002
1.00002
1.00012
1.00009
1.00109
1.00166
1.0105
1.00733
1.03194
1.07635
1.26558
1.68312
2.23035
2.5936
2.64309
2.6273
2.61189
2.60187
2.59804
2.59563
2.59296
2.58909
2.58456
2.57912
2.57295
2.56598
2.55893
2.55139
2.54392
2.53607
2.52838
2.52082
2.51335
2.50592
2.49857
2.49121
2.48378
2.47628
2.46869
2.4617
1
1
1
1
1
1
1
1
1
1
1
1.00002
1.00002
1.00017
1.00019
1.00134
1.00173
1.01394
1.00359
1.0805
1.16137
1.58652
2.29592
2.57785
2.66669
2.64202
2.62136
2.6056
2.59963
2.59651
2.59332
2.58922
2.58461
2.5798
2.57446
2.56923
2.56341
2.55762
2.55133
2.54499
2.53827
2.53111
2.5238
2.5161
2.50849
2.50068
2.493
2.48523
2.47745
2.47035
1
1
1
1
1
1
1
1
1
1
1
1.00002
1.00002
1.00015
1.00015
1.00112
1.00137
1.0106
1.00575
1.06239
1.13508
1.493
2.18397
2.5293
2.66676
2.64266
2.62106
2.60156
2.59266
2.58751
2.58356
2.57929
2.57521
2.57139
2.56738
2.56352
2.55939
2.5549
2.55002
2.5447
2.53912
2.53339
2.52741
2.52135
2.51498
2.50862
2.50198
2.49542
2.48859
2.48231
1
1
1
1
1
1
1
1
1
1
1
1.00001
1.00004
1.00004
1.00033
1.00048
1.00272
1.00195
1.01315
1.01273
1.11265
1.289
1.79908
2.55952
2.67299
2.64783
2.63312
2.60667
2.59401
2.58717
2.58134
2.57593
2.57038
2.5651
2.56022
2.55519
2.55064
2.54588
2.54147
2.53691
2.53229
2.5276
2.52265
2.51769
2.51247
2.5072
2.50166
2.49595
2.49025
2.4849
1
1
1
1
1
1
1
1
1
1
1.00001
1.00002
1.0001
1.00009
1.0004
1.00054
1.0035
1.00166
1.02011
1.00471
1.0968
1.2485
1.72398
2.52297
2.68453
2.68013
2.66247
2.63659
2.6215
2.61283
2.60456
2.59622
2.58706
2.57812
2.56994
2.56193
2.55493
2.54833
2.54217
2.53644
2.53067
2.52516
2.5195
2.51409
2.50852
2.50311
2.49773
2.4924
2.48705
2.48214
1
1
1
1
1
1
1
1
1
1
1
1.00001
1.00001
1.00007
1.00006
1.00058
1.00072
1.00615
1.00145
1.0345
1.07092
1.24203
1.6117
2.18935
2.61862
2.68961
2.67015
2.6478
2.62851
2.61952
2.61347
2.60711
2.60036
2.59274
2.58556
2.57815
2.57053
2.56306
2.55537
2.54793
2.54052
2.53346
2.52638
2.51963
2.51295
2.50653
2.50035
2.49426
2.48841
2.48303
1
1
1
1
1
1
1
1
1
1
1
1.00001
1.00001
1.00005
1.00005
1.00039
1.0005
1.00432
1.00092
1.02587
1.0497
1.18395
1.45833
1.98824
2.5475
2.68887
2.6564
2.63286
2.61376
2.60893
2.60755
2.60426
2.59909
2.59247
2.58607
2.57966
2.57332
2.56706
2.56082
2.55456
2.54839
2.54193
2.53575
2.52913
2.5228
2.5161
2.50961
2.50301
2.49645
2.49059
1
1
1
1
1
1
1
1
1
1
1
1
1.00001
1.00004
1.00003
1.00029
1.00038
1.00261
1.00203
1.01807
1.02617
1.13809
1.34515
1.8435
2.57611
2.71077
2.67436
2.63313
2.61145
2.60817
2.60817
2.60633
2.60174
2.59554
2.5898
2.58457
2.57899
2.57385
2.56782
2.56176
2.55553
2.54914
2.54294
2.53661
2.53048
2.52425
2.51808
2.51198
2.50573
2.50004
1
1
1
1
1
1
1
1
1
1
1
1
1.00002
1.00002
1.00014
1.00018
1.00117
1.00129
1.01009
1.00144
1.05658
1.11551
1.4039
2.02394
2.4757
2.69112
2.66333
2.63067
2.61472
2.61157
2.61185
2.61107
2.60827
2.60391
2.59939
2.59576
2.59154
2.58741
2.58249
2.57716
2.5716
2.56566
2.55998
2.55413
2.54848
2.54278
2.53706
2.53136
2.52559
2.52014
1
1
1
1
1
1
1
1
1
1
1
1
1.00002
1.00002
1.00013
1.00018
1.00115
1.0012
1.00934
1.001
1.04979
1.10704
1.34544
1.91222
2.40453
2.66362
2.64095
2.63149
2.6101
2.60142
2.60025
2.59923
2.59712
2.5944
2.59103
2.58861
2.58572
2.58253
2.57877
2.57436
2.56979
2.56474
2.55974
2.55456
2.5496
2.54462
2.53964
2.53474
2.52961
2.52506
1
1
1
1
1
1
1
1
1
1
1
1
1.00001
1.00001
1.00011
1.00015
1.00098
1.00106
1.00838
1.00126
1.04508
1.09582
1.31196
1.81932
2.33669
2.64448
2.64396
2.62954
2.60724
2.5953
2.59168
2.58976
2.587
2.5841
2.58022
2.57671
2.57331
2.56983
2.56674
2.56323
2.5599
2.55622
2.55252
2.54855
2.54442
2.54021
2.53584
2.53153
2.52699
2.52297
1
1
1
1
1
1
1
1
1
1
1
1
1.00001
1.00003
1.00002
1.00027
1.00037
1.00254
1.00269
1.01966
1.0076
1.09439
1.217
1.70341
2.47597
2.65634
2.67286
2.65404
2.62665
2.61122
2.60549
2.6021
2.59763
2.59306
2.58804
2.58396
2.5805
2.57698
2.57379
2.56992
2.56604
2.56191
2.55763
2.55359
2.5494
2.54563
2.54179
2.53822
2.53443
2.531
1
1
1
1
1
1
1
1
1
1
1
1
1
1.00003
1.00003
1.00027
1.00037
1.0023
1.00236
1.01746
1.00746
1.08839
1.20615
1.65481
2.43687
2.64018
2.68494
2.66483
2.63972
2.62425
2.61885
2.61641
2.61393
2.61128
2.6075
2.60388
2.60062
2.59758
2.59478
2.59107
2.5869
2.58178
2.576
2.57015
2.56385
2.55817
2.55234
2.54723
2.54234
2.53798
1
1
1
1
1
1
1
1
1
1
1
1
1
1.00003
1.00003
1.00025
1.00033
1.00205
1.00218
1.01569
1.00685
1.08208
1.18634
1.62006
2.38761
2.61705
2.68429
2.66235
2.63916
2.62334
2.61791
2.61636
2.61495
2.61303
2.61098
2.60845
2.60623
2.60438
2.60222
2.59867
2.59394
2.58759
2.58034
2.57281
2.56497
2.55791
2.55103
2.54488
2.5392
2.53408
1
1
1
1
1
1
1
1
1
1
1
1
1
1.00003
1.00002
1.00021
1.0003
1.00185
1.00201
1.0143
1.007
1.07621
1.17044
1.58734
2.33592
2.59686
2.68373
2.65988
2.63745
2.62027
2.6154
2.61504
2.61482
2.614
2.61247
2.61093
2.60905
2.60642
2.60225
2.59642
2.58964
2.58163
2.57357
2.56563
2.55789
2.5511
2.54445
2.53873
2.53342
2.5288
1
1
1
1
1
1
1
1
1
1
1
1
1
1.00002
1.00002
1.00018
1.00027
1.0016
1.00171
1.01323
1.00233
1.07496
1.15093
1.56958
2.28339
2.57975
2.68196
2.65784
2.63531
2.61844
2.61505
2.61558
2.6154
2.61423
2.61257
2.60974
2.6044
2.59755
2.58934
2.5809
2.57353
2.56663
2.56087
2.55569
2.55068
2.54623
2.54161
2.53731
2.53293
2.52897
1
1
1
1
1
1
1
1
1
1
1
1
1
1.00002
1.00002
1.00017
1.00022
1.00142
1.00152
1.01205
1.00036
1.07207
1.14084
1.54622
2.24403
2.56428
2.68054
2.65704
2.63254
2.61802
2.61562
2.61555
2.61408
2.60986
2.60218
2.59438
2.58686
2.58016
2.57474
2.56978
2.56525
2.56124
2.55696
2.55311
2.54899
2.54491
2.5409
2.53668
2.53273
2.52891
1
1
1
1
1
1
1
1
1
1
1
1
1
1.00002
1.00002
1.00017
1.00022
1.00135
1.00154
1.01148
1.0002
1.06863
1.13135
1.52466
2.20427
2.55579
2.68114
2.65799
2.63097
2.61622
2.61005
2.60516
2.59853
2.59233
2.58662
2.58156
2.5783
2.57485
2.57201
2.56856
2.56467
2.56091
2.55641
2.55234
2.54802
2.54385
2.53995
2.53593
2.53239
2.52882
1
1
1
1
1
1
1
1
1
1
1
1
1
1.00002
1.00002
1.00016
1.0002
1.00132
1.00139
1.01053
1.00088
1.06271
1.12285
1.48227
2.13756
2.54891
2.68358
2.6579
2.62267
2.60283
2.59603
2.59373
2.59177
2.59009
2.58775
2.58419
2.58119
2.5772
2.57425
2.56966
2.56623
2.56101
2.55701
2.55191
2.54783
2.54357
2.53974
2.53631
2.53258
2.52992
1
1
1
1
1
1
1
1
1
1
1
1.00001
1.00001
1.00005
1.00004
1.00017
1.00019
1.0014
1.00148
1.00955
1.00554
1.05445
1.11906
1.43358
2.07719
2.53478
2.68018
2.65457
2.61401
2.59511
2.59169
2.59206
2.59176
2.59064
2.58764
2.58348
2.58002
2.57636
2.57341
2.56909
2.56584
2.56038
2.55698
2.55143
2.54818
2.54374
2.54048
2.53727
2.53344
2.53096
1
1
1
1
1
1
1
1
1
1
1
1
1.00001
1.00001
1.00006
1.00005
1.0005
1.00063
1.00378
1.00109
1.02006
1.01378
1.11389
1.31518
1.81937
2.58652
2.7176
2.67993
2.65447
2.62805
2.6192
2.61659
2.61513
2.61163
2.60728
2.60317
2.59858
2.59483
2.5904
2.58627
2.58229
2.5778
2.57427
2.57013
2.56723
2.56387
2.56137
2.55884
2.5566
2.55461
1
1
1
1
1
1
1
1
1
1
1
1
1.00001
1.00001
1.00007
1.00007
1.00056
1.0007
1.00451
1.00201
1.02739
1.00399
1.11773
1.27929
1.80923
2.58769
2.72406
2.69077
2.67851
2.65025
2.63591
2.6311
2.629
2.62635
2.62265
2.61824
2.61353
2.60894
2.60455
2.60042
2.59646
2.59245
2.58849
2.58417
2.57999
2.57547
2.57182
2.56762
2.5653
2.56237
1
1
1
1
1
1
1
1
1
1
1
1
1.00001
1.00004
1.00003
1.00014
1.00014
1.00109
1.00115
1.00919
1.00105
1.05131
1.10464
1.36635
1.97126
2.42988
2.68139
2.6575
2.64594
2.62283
2.6112
2.60732
2.60521
2.60232
2.59854
2.59441
2.5903
2.58621
2.58229
2.57816
2.5746
2.57022
2.56735
2.56253
2.56007
2.55507
2.55209
2.5475
2.54305
2.53948
1
1
1
1
1
1
1
1
1
1
1
1
1.00001
1.00001
1.00006
1.00006
1.00051
1.00069
1.00422
1.0022
1.02545
1.00283
1.11444
1.27166
1.79178
2.58548
2.71112
2.69657
2.67781
2.6487
2.63403
2.62866
2.62603
2.62284
2.61847
2.6136
2.60893
2.60481
2.60114
2.59761
2.59395
2.58985
2.58538
2.5804
2.5754
2.57022
2.56583
2.56146
2.55882
2.55593
2.144
2.65635
2.80206
3.19864
3.20969
3.14528
3.13066
3.12358
3.12274
3.12122
3.11915
3.11773
3.11638
3.11475
3.11038
3.10826
3.10734
3.10701
3.10695
3.10522
3.10298
3.09905
3.09491
3.08873
3.08343
3.07742
3.07092
3.06595
3.05939
3.0513
3.04421
3.03467
3.0282
3.01631
3.00893
2.99656
2.98789
2.97537
2.96497
2.95174
2.94044
2.92877
2.9179
2.90733
2.89756
2.88767
2.87814
2.86913
2.86009
2.85132
2.84295
2.83498
2.82739
2.82006
2.81308
2.8063
2.79987
2.79392
2.78811
2.78294
2.77811
2.77352
2.76951
2.76557
2.76211
2.75895
2.75606
2.75371
2.75138
2.7495
2.74757
2.746
2.74456
2.74327
2.74259
2.74159
2.74125
2.74076
2.74062
2.7407
2.74105
2.74178
2.74279
2.74372
2.74484
2.74605
2.74876
2.75119
2.75499
2.75757
2.76115
2.7635
2.76637
2.768
2.76996
2.77084
2.77174
2.77164
2.77152
2.76739
2.17476
2.45888
2.57615
2.81079
2.98923
3.10022
3.17261
3.21391
3.23328
3.29391
3.34285
3.41617
3.40515
3.37895
3.31216
3.2221
3.16412
3.12122
3.08879
3.05855
3.03111
3.00365
2.97798
2.95294
2.92892
2.90571
2.8836
2.86256
2.84243
2.82354
2.80524
2.7879
2.77034
2.75311
2.73526
2.7183
2.7016
2.68566
2.66959
2.65459
2.63998
2.62576
2.61174
2.59786
2.58437
2.57127
2.5586
2.54629
2.53429
2.52254
2.51092
2.49938
2.48795
2.47662
2.46538
2.45427
2.44329
2.43247
2.42189
2.4115
2.40135
2.39152
2.38205
2.37298
2.36441
2.3564
2.34902
2.34246
2.33699
2.33252
2.32852
2.32525
2.32366
2.32357
2.32392
2.32524
2.32742
2.33039
2.33524
2.34015
2.34755
2.35452
2.36387
2.37184
2.3818
2.39038
2.40097
2.41194
2.42331
2.43402
2.44551
2.45519
2.46671
2.47476
2.48589
2.49195
2.50191
2.50622
2.51422
2.51737
2.24082
2.30703
2.40249
2.47648
2.53113
2.60041
2.66952
2.72467
2.76133
2.79197
2.80935
2.81141
2.80659
2.79461
2.78114
2.76717
2.75238
2.74123
2.72784
2.71411
2.6992
2.68383
2.66814
2.65275
2.63721
2.62207
2.60764
2.59389
2.58143
2.57031
2.5609
2.55315
2.5468
2.54105
2.53606
2.532
2.52822
2.52449
2.51966
2.51432
2.50861
2.50231
2.49557
2.48809
2.48018
2.47175
2.4628
2.45358
2.44432
2.43518
2.42616
2.41703
2.40782
2.39843
2.38876
2.379
2.36898
2.35888
2.34865
2.33852
2.32821
2.31808
2.30807
2.29779
2.28789
2.27768
2.26729
2.25713
2.24657
2.23627
2.22621
2.21617
2.20701
2.1979
2.1897
2.18235
2.17539
2.16963
2.16467
2.1603
2.1571
2.1549
2.15322
2.15174
2.15139
2.15144
2.15271
2.15415
2.15718
2.16019
2.16354
2.16749
2.17104
2.1753
2.17887
2.183
2.1866
2.19003
2.19405
2.19706
2.26382
2.26528
2.29809
2.33641
2.36371
2.39281
2.41801
2.44499
2.46654
2.48091
2.49169
2.4927
2.49099
2.48741
2.48233
2.47865
2.47303
2.46948
2.46418
2.45913
2.45339
2.44642
2.4389
2.4314
2.42385
2.41621
2.4092
2.40256
2.39626
2.39053
2.38515
2.38015
2.37566
2.37126
2.36711
2.36331
2.36014
2.35666
2.35279
2.34842
2.34433
2.34038
2.33648
2.33281
2.32957
2.32699
2.32514
2.32406
2.32351
2.32309
2.32226
2.32044
2.31742
2.31372
2.3092
2.30458
2.29911
2.29386
2.28792
2.28217
2.27608
2.27003
2.26399
2.25779
2.25181
2.24543
2.23918
2.23236
2.2254
2.21789
2.21006
2.20179
2.19335
2.18459
2.17604
2.16763
2.15946
2.1522
2.14529
2.13922
2.13447
2.12964
2.127
2.123
2.12092
2.11851
2.11732
2.11703
2.11719
2.11752
2.11841
2.11896
2.1202
2.12076
2.12197
2.12246
2.12349
2.12388
2.12543
2.12404
2.27397
2.25902
2.2602
2.26595
2.27604
2.2848
2.29491
2.30456
2.31506
2.32216
2.3274
2.32879
2.32894
2.32937
2.3306
2.33183
2.33317
2.33446
2.33548
2.33571
2.33551
2.33473
2.33272
2.32997
2.32752
2.32384
2.32218
2.3193
2.31691
2.31525
2.31378
2.3126
2.31118
2.30963
2.30769
2.3057
2.30357
2.30107
2.29772
2.29356
2.28929
2.28513
2.28088
2.27643
2.27156
2.26649
2.26071
2.2546
2.24785
2.2412
2.23454
2.22826
2.22196
2.21579
2.20977
2.20368
2.19797
2.19207
2.1867
2.18115
2.17621
2.17115
2.16666
2.16214
2.15814
2.15428
2.15094
2.14776
2.145
2.14224
2.13955
2.13661
2.13337
2.1297
2.12566
2.12103
2.11626
2.11098
2.10581
2.10068
2.09577
2.09137
2.08758
2.08354
2.08031
2.07786
2.07595
2.0752
2.07526
2.07552
2.07651
2.0773
2.07906
2.08
2.0819
2.08289
2.08463
2.08538
2.08755
2.08646
2.29549
2.26847
2.25626
2.24401
2.2377
2.23335
2.23087
2.2312
2.23204
2.23445
2.23673
2.23839
2.23881
2.23892
2.24013
2.24273
2.24597
2.25009
2.25381
2.25691
2.25894
2.26008
2.26012
2.25982
2.25889
2.25779
2.25655
2.25627
2.25589
2.25673
2.25686
2.25747
2.25802
2.25788
2.25734
2.25673
2.25554
2.25396
2.25132
2.24781
2.24362
2.23892
2.23391
2.22876
2.22347
2.21821
2.21289
2.20768
2.20247
2.19732
2.19204
2.1868
2.18132
2.17588
2.1703
2.16476
2.15927
2.15374
2.14841
2.14303
2.13791
2.13288
2.12807
2.12351
2.11904
2.11493
2.11081
2.10719
2.1035
2.10037
2.09709
2.09426
2.09119
2.08832
2.08516
2.08197
2.07882
2.07529
2.07239
2.06891
2.06638
2.06393
2.06171
2.05986
2.05782
2.05664
2.05578
2.05518
2.05517
2.05527
2.05564
2.05595
2.05656
2.05695
2.05741
2.0577
2.05798
2.05812
2.05877
2.05663
2.3222
2.29121
2.26745
2.25034
2.23205
2.21877
2.20662
2.19897
2.1931
2.19002
2.18784
2.18751
2.18786
2.18894
2.18971
2.19171
2.19576
2.20087
2.20565
2.21007
2.21322
2.21577
2.21711
2.21787
2.21836
2.21883
2.2197
2.22114
2.22275
2.22538
2.22653
2.22923
2.2296
2.22949
2.22908
2.22816
2.2268
2.22466
2.22175
2.21795
2.21376
2.20922
2.20458
2.19977
2.19479
2.18986
2.18455
2.17945
2.17386
2.16848
2.16269
2.15706
2.15121
2.14544
2.1396
2.13379
2.12803
2.12228
2.11663
2.11104
2.10558
2.10017
2.09514
2.08996
2.0855
2.08086
2.07701
2.07328
2.07013
2.0674
2.06511
2.0632
2.06159
2.06017
2.05892
2.05754
2.05643
2.05485
2.05368
2.05221
2.05093
2.05007
2.04907
2.04811
2.0472
2.04686
2.04674
2.04683
2.04707
2.04751
2.04791
2.04847
2.04882
2.04917
2.04918
2.04908
2.04878
2.04823
2.04801
2.04488
2.33849
2.31256
2.28737
2.26468
2.24359
2.22599
2.20923
2.19481
2.18376
2.17538
2.16908
2.16574
2.16357
2.16346
2.16417
2.16501
2.16668
2.17055
2.17511
2.17974
2.18385
2.1872
2.18963
2.19198
2.19417
2.19681
2.19973
2.20297
2.20684
2.20977
2.21302
2.21521
2.21586
2.21527
2.21407
2.21195
2.20955
2.20627
2.20261
2.1981
2.1934
2.18832
2.18303
2.17761
2.1719
2.16627
2.16035
2.15462
2.14859
2.14274
2.13661
2.13059
2.1244
2.11823
2.1121
2.10601
2.10011
2.0943
2.08867
2.08312
2.07784
2.07255
2.06767
2.06276
2.05821
2.05377
2.04958
2.04565
2.04211
2.03884
2.03613
2.03379
2.03191
2.03048
2.02949
2.02877
2.02846
2.02852
2.02875
2.02929
2.03006
2.03152
2.03254
2.03421
2.03502
2.03666
2.03816
2.03963
2.04111
2.04245
2.04368
2.04471
2.04554
2.04586
2.04585
2.04562
2.04511
2.04384
2.04306
2.03786
2.35366
2.32828
2.30464
2.28016
2.25748
2.23618
2.21808
2.20128
2.18736
2.17543
2.16597
2.15845
2.15407
2.15086
2.1493
2.14954
2.15066
2.15191
2.15462
2.15881
2.16345
2.16806
2.1719
2.176
2.17997
2.18436
2.18863
2.19358
2.19815
2.20202
2.20578
2.20811
2.20818
2.20782
2.20629
2.20377
2.20089
2.19723
2.19291
2.18764
2.182
2.17584
2.16966
2.16316
2.15676
2.15024
2.14375
2.13725
2.13052
2.12388
2.11696
2.11022
2.10336
2.0967
2.09018
2.08388
2.07784
2.07202
2.0664
2.06091
2.0557
2.05047
2.04566
2.04082
2.03633
2.03195
2.02782
2.0239
2.02033
2.01699
2.01416
2.01171
2.00971
2.00841
2.00735
2.00714
2.00732
2.0078
2.00889
2.01027
2.01236
2.01457
2.01749
2.01992
2.02289
2.02534
2.0285
2.03127
2.03387
2.03616
2.03827
2.03994
2.04132
2.04206
2.0423
2.04216
2.04174
2.04034
2.03929
2.03301
2.37109
2.3471
2.32234
2.29799
2.27347
2.25107
2.23028
2.21141
2.19475
2.18059
2.16819
2.15905
2.15106
2.14566
2.1424
2.14041
2.14032
2.14083
2.14174
2.14354
2.14689
2.15153
2.15667
2.16194
2.16786
2.17328
2.17916
2.18507
2.18982
2.1942
2.19813
2.19999
2.19994
2.19929
2.1976
2.19459
2.19099
2.18671
2.18156
2.17581
2.16958
2.16316
2.15662
2.15015
2.1438
2.13751
2.13118
2.12481
2.11821
2.11163
2.10487
2.09831
2.0918
2.08547
2.07936
2.07338
2.0676
2.06201
2.05654
2.05125
2.04606
2.04104
2.03616
2.03155
2.02703
2.02284
2.01878
2.01489
2.01145
2.00808
2.00524
2.00288
2.00064
1.99914
1.99795
1.99695
1.99682
1.99701
1.99757
1.99863
2.00043
2.00245
2.00516
2.00795
2.01081
2.01387
2.01693
2.02026
2.02334
2.02613
2.02872
2.03077
2.03248
2.03345
2.03393
2.03385
2.03349
2.03198
2.03077
2.02407
2.38805
2.3653
2.3418
2.31605
2.29166
2.26729
2.2456
2.22515
2.20688
2.19085
2.17648
2.16435
2.15443
2.14645
2.14082
2.1371
2.13503
2.13435
2.13464
2.13548
2.13667
2.13936
2.14314
2.14852
2.15369
2.15905
2.1646
2.17003
2.17453
2.17851
2.18242
2.185
2.18532
2.18492
2.18376
2.18157
2.1783
2.17447
2.16956
2.16413
2.15817
2.15198
2.14566
2.13943
2.13323
2.12714
2.12109
2.1151
2.10911
2.10318
2.09722
2.09138
2.08553
2.07981
2.07415
2.06854
2.06306
2.05765
2.05237
2.04716
2.04206
2.03708
2.03226
2.02768