/*--------------------------------*- C++ -*----------------------------------*\
| =========                 |                                                 |
| \\      /  F ield         | OpenFOAM: The Open Source CFD Toolbox           |
|  \\    /   O peration     | Version:  2112                                  |
|   \\  /    A nd           | Website:  www.openfoam.com                      |
|    \\/     M anipulation  |                                                 |
\*---------------------------------------------------------------------------*/
FoamFile
{
    version     2.0;
    format      ascii;
    arch        "LSB;label=32;scalar=64";
    class       volVectorField;
    location    "7.9995";
    object      U;
}
// * * * * * * * * * * * * * * * * * * * * * * * * * * * * * * * * * * * * * //

dimensions      [0 1 -1 0 0 0 0];

internalField   nonuniform List<vector> 
7000
(
(3 -5.85001e-07 0.000805021)
(3 -1.34422e-06 0.000764324)
(3 -1.91669e-06 0.000723851)
(3 -2.48087e-06 0.000683613)
(3 -3.14862e-06 0.0006436)
(2.99999 -4.41781e-06 0.000604095)
(2.99995 -5.9718e-06 0.000565284)
(2.99981 -7.67209e-06 0.000528435)
(2.99953 -7.72985e-06 0.000493404)
(2.99876 -1.28306e-05 0.000469699)
(2.99735 -6.82892e-06 0.000452892)
(2.99305 -5.56104e-05 0.000510901)
(2.98678 1.95801e-05 0.000550028)
(2.955 -0.000780493 0.00140754)
(2.89909 -0.000691971 0.00217231)
(2.70657 -0.00163487 0.00722406)
(2.11818 -0.0175456 0.0149134)
(1.11105 -0.0162864 0.0236688)
(0.420121 -0.0234961 0.00803457)
(0.613379 -0.00893625 -0.00210442)
(0.736066 -0.0042444 -0.00148823)
(0.7512 -0.00428053 -0.000193466)
(0.725923 -0.00521772 0.00022334)
(0.69116 -0.00499688 0.000224417)
(0.662953 -0.00431865 1.19607e-05)
(0.642843 -0.00354744 -0.000219073)
(0.624875 -0.00285749 -0.000373771)
(0.60595 -0.00223955 -0.000491405)
(0.585895 -0.00163382 -0.000608158)
(0.565281 -0.00101022 -0.000733476)
(0.544297 -0.000376115 -0.000864638)
(0.522952 0.000270487 -0.000997098)
(0.501284 0.000940323 -0.00113072)
(0.479151 0.00161728 -0.00126728)
(0.456509 0.00230384 -0.00140411)
(0.433498 0.00302575 -0.00154209)
(0.409973 0.00376278 -0.00168443)
(0.385855 0.00451792 -0.0018263)
(0.361343 0.00533012 -0.00196898)
(0.336219 0.00616138 -0.00211763)
(0.310293 0.00702455 -0.00226579)
(0.283969 0.00798232 -0.0024125)
(0.256973 0.00900771 -0.00256769)
(0.228731 0.0101069 -0.00272704)
(0.199744 0.0114136 -0.00288286)
(0.169855 0.0130042 -0.00304912)
(0.137474 0.0150022 -0.00322912)
(0.102157 0.0175936 -0.00339972)
(0.0631306 0.0210084 -0.00355471)
(0.02959 0.0258512 -0.00372994)
(3 -6.43498e-07 0.000777211)
(3 -1.2684e-06 0.000737869)
(3 -2.24756e-06 0.000698749)
(3 -3.35976e-06 0.000659863)
(3 -4.89319e-06 0.000621201)
(2.99999 -7.49366e-06 0.000583029)
(2.99995 -1.02588e-05 0.00054551)
(2.99981 -1.14367e-05 0.000509857)
(2.99955 -6.85792e-06 0.000475912)
(2.99879 1.37498e-06 0.000452637)
(2.99742 4.41786e-05 0.000435845)
(2.99324 6.93139e-05 0.000489243)
(2.98712 0.000337579 0.000526636)
(2.95627 -0.000159286 0.00132649)
(2.90395 0.00112067 0.00198148)
(2.71351 0.00283868 0.00693741)
(2.14617 -0.00794767 0.0138072)
(1.15421 0.00559393 0.0233145)
(0.423116 0.00528943 0.00808382)
(0.604707 0.0236675 -0.00189194)
(0.724253 0.0259416 -0.00139434)
(0.739786 0.0231352 -0.000195134)
(0.715705 0.0203489 0.0001963)
(0.681715 0.0203073 0.000203447)
(0.653288 0.0210619 1.2004e-05)
(0.632801 0.0217096 -0.000207998)
(0.614535 0.0221121 -0.000358401)
(0.595352 0.0224153 -0.000472928)
(0.575023 0.022752 -0.000585651)
(0.554097 0.0231591 -0.000706281)
(0.532781 0.0235949 -0.000832528)
(0.51112 0.0240721 -0.000959918)
(0.489151 0.0246196 -0.00108861)
(0.466718 0.0251918 -0.00122022)
(0.443814 0.025803 -0.0013518)
(0.420568 0.0264976 -0.00148478)
(0.396819 0.0272249 -0.00162173)
(0.372542 0.0279942 -0.00175786)
(0.347916 0.0288722 -0.00189522)
(0.322698 0.0297887 -0.00203807)
(0.296772 0.0307698 -0.00217939)
(0.27051 0.0319396 -0.00232019)
(0.243529 0.0332221 -0.00247005)
(0.215343 0.0346338 -0.0026213)
(0.18649 0.0363867 -0.00277036)
(0.156733 0.0385558 -0.00293087)
(0.124626 0.0412243 -0.00310082)
(0.0903318 0.0445917 -0.00325882)
(0.053542 0.0488998 -0.00340318)
(0.0238674 0.0544443 -0.0035617)
(3 -7.30467e-08 0.000748287)
(3 7.48587e-08 0.000710359)
(3 -6.01724e-07 0.000672652)
(3 -1.4681e-06 0.000635175)
(3 -4.05387e-06 0.000597921)
(2.99999 -7.42089e-06 0.000561139)
(2.99995 -1.10049e-05 0.000524975)
(2.99981 -1.32663e-05 0.000490588)
(2.99955 -1.03132e-05 0.000457807)
(2.99882 -4.42025e-06 0.000435127)
(2.99747 3.2663e-05 0.00041856)
(2.99337 5.06622e-05 0.000468453)
(2.98735 0.000271743 0.000503972)
(2.95695 -0.000171277 0.00126147)
(2.90602 0.000309362 0.00186545)
(2.71702 -0.00130366 0.00663705)
(2.155 -0.0116706 0.0131721)
(1.1606 -0.0189179 0.022664)
(0.4082 -0.00993948 0.0078739)
(0.590279 0.0112561 -0.00176195)
(0.709339 0.0164424 -0.00129675)
(0.725659 0.0155934 -0.000190797)
(0.702902 0.0142742 0.000171298)
(0.669838 0.0154583 0.000181735)
(0.641344 0.0176544 1.01046e-05)
(0.620591 0.0197472 -0.000197697)
(0.602197 0.0215157 -0.000343438)
(0.58301 0.0231345 -0.00045467)
(0.562723 0.0247666 -0.000563195)
(0.541807 0.0264563 -0.000679038)
(0.520478 0.0281608 -0.00079973)
(0.498836 0.0299093 -0.000921539)
(0.476876 0.0317379 -0.00104541)
(0.454443 0.0335899 -0.00117133)
(0.431587 0.0354931 -0.00129675)
(0.408396 0.0374918 -0.0014245)
(0.384688 0.0395299 -0.00155549)
(0.360506 0.041628 -0.00168525)
(0.33599 0.0438545 -0.00181722)
(0.310873 0.0461473 -0.00195374)
(0.285149 0.0485477 -0.00208788)
(0.259123 0.0512186 -0.00222296)
(0.232327 0.0540793 -0.0023672)
(0.204459 0.0571856 -0.00251074)
(0.17609 0.0607879 -0.00265275)
(0.146833 0.0649473 -0.00280714)
(0.115455 0.0696771 -0.00296756)
(0.0826523 0.0750432 -0.00311515)
(0.0481938 0.0809909 -0.00324896)
(0.0207632 0.0876213 -0.00339828)
(3 -7.87096e-09 0.000718202)
(3 -1.30789e-08 0.00068175)
(3 2.39037e-07 0.000645514)
(3 5.78206e-07 0.000609512)
(3 -3.55377e-06 0.000573726)
(2.99999 -8.04093e-06 0.000538384)
(2.99995 -1.22659e-05 0.000503629)
(2.99982 -1.4242e-05 0.000470553)
(2.99957 -9.26879e-06 0.000438973)
(2.99885 8.65567e-07 0.000416852)
(2.99754 5.12724e-05 0.000400405)
(2.99355 9.63627e-05 0.000446183)
(2.98771 0.00038717 0.000477817)
(2.95788 0.000176133 0.00119166)
(2.90869 0.000708934 0.0017396)
(2.72255 -8.33227e-05 0.00628149)
(2.17194 -0.0084268 0.0124066)
(1.18896 -0.0113231 0.0217867)
(0.431499 0.00982521 0.00771986)
(0.595294 0.0319816 -0.00151141)
(0.708788 0.0370552 -0.00119068)
(0.724333 0.0358123 -0.000181368)
(0.702309 0.0342444 0.000150651)
(0.669869 0.0352117 0.000162586)
(0.640896 0.037215 9.05801e-06)
(0.619189 0.0390882 -0.000185633)
(0.599942 0.0406595 -0.000326204)
(0.580086 0.0421341 -0.000434154)
(0.559205 0.0436672 -0.000538585)
(0.537686 0.045293 -0.000649494)
(0.515752 0.0469865 -0.0007647)
(0.493534 0.0487787 -0.000881116)
(0.471 0.0506951 -0.000999718)
(0.448006 0.052694 -0.00111975)
(0.424644 0.0547989 -0.00123938)
(0.40097 0.0570493 -0.0013616)
(0.3768 0.059402 -0.00148639)
(0.352234 0.0618783 -0.00161001)
(0.327375 0.0645432 -0.00173639)
(0.301957 0.0673551 -0.00186607)
(0.276082 0.0703646 -0.00199336)
(0.24999 0.0737578 -0.00212293)
(0.22317 0.0775043 -0.00226057)
(0.195517 0.0816742 -0.00239643)
(0.167608 0.086506 -0.00253195)
(0.138948 0.0920466 -0.00267876)
(0.108466 0.098241 -0.00282923)
(0.0771756 0.104958 -0.00296486)
(0.0447733 0.111783 -0.00309153)
(0.0189116 0.118742 -0.00323066)
(3 2.74467e-08 0.000686908)
(3 6.69287e-08 0.000651992)
(3 7.59455e-07 0.000617289)
(3 1.57838e-06 0.000582834)
(3 -9.08562e-07 0.000548579)
(2.99998 -4.72185e-06 0.000514729)
(2.99994 -8.67382e-06 0.000481443)
(2.99982 -1.10799e-05 0.000449733)
(2.99958 -5.63268e-06 0.000419413)
(2.99888 5.33014e-06 0.000397882)
(2.99762 6.16258e-05 0.000381576)
(2.99374 0.00011877 0.000423276)
(2.98812 0.000435231 0.000450267)
(2.95872 0.000300081 0.00112574)
(2.91134 0.00076366 0.00161399)
(2.7275 8.4756e-05 0.00594353)
(2.1854 -0.00872313 0.0117039)
(1.2073 -0.0132936 0.0209604)
(0.436041 0.00555674 0.00749273)
(0.590651 0.0316965 -0.00132359)
(0.700698 0.037525 -0.0010788)
(0.716635 0.0372593 -0.000170549)
(0.696414 0.0369463 0.000127929)
(0.665532 0.0396092 0.000141297)
(0.636872 0.0429426 6.626e-06)
(0.615024 0.0459412 -0.000175033)
(0.595724 0.0486209 -0.000310377)
(0.575933 0.0512014 -0.000414736)
(0.555126 0.0538166 -0.000514728)
(0.533622 0.0564927 -0.000620325)
(0.511665 0.0592153 -0.000729745)
(0.489407 0.0620163 -0.00084048)
(0.466785 0.0649151 -0.000953373)
(0.443657 0.0678897 -0.0010673)
(0.420144 0.0709593 -0.00118095)
(0.396265 0.074159 -0.00129723)
(0.371834 0.0774532 -0.00141558)
(0.346997 0.0808628 -0.00153286)
(0.321827 0.0844554 -0.00165314)
(0.296066 0.0882025 -0.0017759)
(0.269928 0.0921502 -0.0018964)
(0.243619 0.0964978 -0.00202007)
(0.2166 0.101253 -0.00215086)
(0.188959 0.106497 -0.00227841)
(0.16128 0.112459 -0.00240691)
(0.132996 0.119186 -0.00254648)
(0.103237 0.126556 -0.002687)
(0.0731934 0.134197 -0.00281463)
(0.0424118 0.141507 -0.00293052)
(0.017618 0.148514 -0.00306464)
(3 5.33543e-08 0.00065435)
(3 1.68368e-07 0.00062104)
(3 5.8253e-07 0.000587937)
(3 9.85158e-07 0.000555078)
(2.99999 1.08784e-06 0.000522418)
(2.99998 -7.97346e-07 0.000490145)
(2.99994 -3.10244e-06 0.000458395)
(2.99982 -4.73128e-06 0.000428109)
(2.99959 2.41159e-06 0.000399107)
(2.99892 1.57191e-05 0.000378206)
(2.9977 8.05062e-05 0.000362079)
(2.99394 0.000155152 0.000399656)
(2.98855 0.000517615 0.000422362)
(2.95968 0.000468756 0.00105623)
(2.91414 0.00116905 0.00148903)
(2.73301 0.000769804 0.00558832)
(2.20157 -0.00663752 0.0109563)
(1.2336 -0.0087131 0.020022)
(0.455061 0.0174804 0.00725446)
(0.592492 0.046245 -0.00110249)
(0.695779 0.0486768 -0.000960712)
(0.711591 0.0485283 -0.000165355)
(0.692895 0.0492477 0.000103965)
(0.663008 0.0532951 0.000122807)
(0.633836 0.0570996 8.86343e-06)
(0.611302 0.0602815 -0.000162052)
(0.591617 0.0631859 -0.000293083)
(0.571669 0.0660583 -0.000393758)
(0.550809 0.0690076 -0.000489242)
(0.5293 0.0720594 -0.000589472)
(0.507395 0.0752119 -0.00069301)
(0.485243 0.0784946 -0.000798084)
(0.462738 0.0819199 -0.00090527)
(0.439727 0.0854766 -0.00101305)
(0.416326 0.0891916 -0.0011206)
(0.392508 0.093082 -0.00123074)
(0.368079 0.0971184 -0.00134238)
(0.343217 0.101313 -0.00145324)
(0.317958 0.105717 -0.00156725)
(0.292039 0.110308 -0.00168257)
(0.265763 0.115128 -0.00179599)
(0.239298 0.12036 -0.0019136)
(0.212098 0.126023 -0.00203703)
(0.184427 0.13221 -0.00215672)
(0.156871 0.139134 -0.00227848)
(0.12883 0.146835 -0.00241042)
(0.09958 0.155116 -0.00254133)
(0.0704398 0.163434 -0.00265833)
(0.0408491 0.171012 -0.00276987)
(0.0168172 0.177909 -0.00289115)
(3 5.31105e-08 0.000620474)
(3 2.05598e-07 0.000588839)
(3 5.78977e-07 0.000557407)
(3 9.07591e-07 0.000526211)
(2.99999 1.50345e-06 0.000495215)
(2.99998 5.2966e-07 0.000464583)
(2.99994 -4.03873e-07 0.000434436)
(2.99983 -1.59038e-07 0.000405634)
(2.9996 1.02942e-05 0.000378009)
(2.99896 2.89166e-05 0.000357768)
(2.99779 0.000107385 0.000341825)
(2.99418 0.000212457 0.000375141)
(2.98906 0.000625894 0.000393124)
(2.96073 0.000752399 0.000985978)
(2.9172 0.00155288 0.00136206)
(2.73891 0.00164116 0.00522701)
(2.21839 -0.0048654 0.0102018)
(1.26087 -0.00565181 0.0190388)
(0.47458 0.024258 0.00699156)
(0.592743 0.0564917 -0.000871604)
(0.687632 0.0552392 -0.000834882)
(0.705676 0.0559918 -0.000176566)
(0.689256 0.0582416 7.64426e-05)
(0.660285 0.0639004 0.00010602)
(0.630267 0.0684847 1.40988e-05)
(0.607092 0.0722498 -0.000149174)
(0.587202 0.0757682 -0.000276631)
(0.567286 0.0792944 -0.000373383)
(0.546551 0.0829182 -0.000463957)
(0.525204 0.086658 -0.000558671)
(0.503502 0.0905234 -0.000656317)
(0.481589 0.0945548 -0.000755104)
(0.459325 0.0987578 -0.000855824)
(0.436554 0.103119 -0.000957206)
(0.413378 0.107669 -0.00105857)
(0.38973 0.112417 -0.00116246)
(0.365424 0.117343 -0.00126724)
(0.340653 0.122464 -0.00137136)
(0.315422 0.127798 -0.00147858)
(0.289475 0.133323 -0.0015867)
(0.263173 0.139088 -0.00169307)
(0.236634 0.145246 -0.00180382)
(0.209324 0.151824 -0.00191961)
(0.181637 0.158913 -0.00203121)
(0.154124 0.166707 -0.00214564)
(0.126183 0.175238 -0.00226979)
(0.0972527 0.184242 -0.00239179)
(0.0687315 0.193008 -0.00250148)
(0.0398815 0.200752 -0.00260196)
(0.016192 0.207519 -0.00271989)
(3 3.54007e-08 0.000585223)
(3 2.44325e-07 0.000555337)
(3 4.72839e-07 0.000525649)
(3 6.1148e-07 0.000496186)
(2.99999 1.48293e-06 0.000466922)
(2.99998 1.07884e-06 0.000438002)
(2.99995 1.30111e-06 0.000409526)
(2.99984 3.50715e-06 0.000382273)
(2.99962 1.86768e-05 0.000356085)
(2.99901 4.60722e-05 0.000336533)
(2.9979 0.000148989 0.000320727)
(2.99444 0.000331625 0.000349975)
(2.98965 0.000777251 0.000362477)
(2.96187 0.00121855 0.000914651)
(2.92049 0.00207595 0.0012349)
(2.74531 0.00282434 0.00485671)
(2.23651 -0.00282734 0.00943106)
(1.29167 -0.00199644 0.0179798)
(0.498117 0.0334478 0.0067009)
(0.592915 0.0676672 -0.000626691)
(0.677716 0.0650895 -0.000696511)
(0.699236 0.0668876 -0.000199427)
(0.685286 0.0701912 4.72828e-05)
(0.657194 0.0764673 9.01153e-05)
(0.626248 0.0815677 2.09225e-05)
(0.602578 0.0857655 -0.000135842)
(0.582705 0.0896895 -0.000259938)
(0.563032 0.0936624 -0.000352522)
(0.542588 0.0977822 -0.000437958)
(0.521531 0.102064 -0.000526804)
(0.500142 0.106528 -0.00061831)
(0.47856 0.111223 -0.000711021)
(0.456613 0.116155 -0.000805049)
(0.434156 0.121313 -0.000899247)
(0.411277 0.126704 -0.00099418)
(0.387876 0.13235 -0.00109184)
(0.363787 0.138215 -0.00118986)
(0.339199 0.144323 -0.00128729)
(0.314081 0.150663 -0.00138743)
(0.288201 0.157213 -0.00148788)
(0.261953 0.163997 -0.0015873)
(0.235404 0.171139 -0.00169129)
(0.208048 0.178658 -0.00179855)
(0.18036 0.186631 -0.00190216)
(0.152843 0.195239 -0.00200912)
(0.124912 0.204514 -0.00212448)
(0.0961081 0.214118 -0.00223707)
(0.0678889 0.223243 -0.00233719)
(0.039482 0.231058 -0.00243459)
(0.0159293 0.237712 -0.00253972)
(3 3.01112e-08 0.000548536)
(3 2.59521e-07 0.000520477)
(3 3.85413e-07 0.000492608)
(3 3.86576e-07 0.000464954)
(2.99999 1.46355e-06 0.000437496)
(2.99998 1.25465e-06 0.000410359)
(2.99995 1.59995e-06 0.000383623)
(2.99984 4.0331e-06 0.000357975)
(2.99964 1.97554e-05 0.000333274)
(2.99907 4.82023e-05 0.000314388)
(2.99806 0.000160235 0.000298306)
(2.99475 0.000381418 0.000324237)
(2.9904 0.000845771 0.000329561)
(2.96317 0.00152562 0.000843237)
(2.92413 0.00251419 0.00110663)
(2.75222 0.00403118 0.00448349)
(2.25528 -0.00109228 0.0086534)
(1.32496 0.00200207 0.0168421)
(0.523059 0.0436097 0.00639223)
(0.592347 0.0771131 -0.000382533)
(0.666389 0.0766648 -0.000558156)
(0.692094 0.0797429 -0.000217827)
(0.680934 0.0835758 2.22063e-05)
(0.654105 0.0893651 7.4197e-05)
(0.62264 0.0949231 2.49551e-05)
(0.598586 0.0995088 -0.000122804)
(0.578824 0.103814 -0.000242791)
(0.559498 0.108246 -0.000331094)
(0.539414 0.112883 -0.000411122)
(0.518686 0.117735 -0.000493889)
(0.497632 0.122837 -0.000579036)
(0.476383 0.128235 -0.000665502)
(0.454761 0.133937 -0.000753082)
(0.432633 0.139941 -0.000840096)
(0.41009 0.146221 -0.000928019)
(0.386996 0.152833 -0.00101902)
(0.363189 0.159712 -0.0011101)
(0.338853 0.166871 -0.00120068)
(0.31392 0.17429 -0.00129383)
(0.288185 0.181935 -0.00138641)
(0.262042 0.189827 -0.00147807)
(0.235514 0.198055 -0.00157478)
(0.208137 0.2066 -0.00167442)
(0.180444 0.215504 -0.00177006)
(0.15287 0.224939 -0.00186969)
(0.124843 0.234928 -0.00197634)
(0.0960152 0.24508 -0.00207921)
(0.0678681 0.25449 -0.00217279)
(0.0395224 0.262392 -0.00225966)
(0.0157613 0.268935 -0.0023621)
(3 3.20158e-08 0.000510349)
(3 2.76502e-07 0.000484198)
(3 3.17566e-07 0.00045823)
(3 2.00017e-07 0.000432462)
(3 1.40751e-06 0.000406889)
(2.99998 1.28265e-06 0.000381617)
(2.99995 2.04465e-06 0.000356706)
(2.99985 4.51492e-06 0.000332758)
(2.99966 2.3069e-05 0.000309658)
(2.99913 5.47512e-05 0.000291591)
(2.99821 0.000191313 0.000275581)
(2.99505 0.000445898 0.000298005)
(2.99119 0.00113734 0.000296421)
(2.9646 0.00220415 0.000769599)
(2.9282 0.00354995 0.000976746)
(2.75968 0.00630378 0.00410844)
(2.2759 0.00197686 0.00785307)
(1.36218 0.00808678 0.0156652)
(0.548882 0.0581144 0.00605761)
(0.591693 0.0844385 -0.000153683)
(0.656682 0.0893517 -0.000432502)
(0.68566 0.0939972 -0.000222003)
(0.676565 0.0981046 6.47161e-06)
(0.65121 0.102992 5.79197e-05)
(0.61978 0.108536 2.3418e-05)
(0.595302 0.113428 -0.000109992)
(0.575699 0.118188 -0.000225262)
(0.556765 0.12312 -0.000309037)
(0.537055 0.128288 -0.000383322)
(0.516676 0.133729 -0.000459851)
(0.49598 0.139491 -0.000538691)
(0.475093 0.145621 -0.000618739)
(0.453829 0.152126 -0.000699639)
(0.43205 0.159006 -0.000779671)
(0.409875 0.166227 -0.000860491)
(0.387152 0.173851 -0.000944258)
(0.363686 0.18181 -0.00102797)
(0.339662 0.190091 -0.00111159)
(0.314975 0.198679 -0.00119731)
(0.289451 0.207515 -0.00128263)
(0.26348 0.216589 -0.00136708)
(0.237024 0.225983 -0.00145506)
(0.209639 0.235666 -0.0015455)
(0.181904 0.245606 -0.00163371)
(0.154207 0.255947 -0.0017251)
(0.12599 0.266688 -0.00182301)
(0.0969483 0.27738 -0.00191663)
(0.0685889 0.287087 -0.00199987)
(0.0400566 0.295047 -0.00208317)
(0.0159069 0.301542 -0.00217355)
(3 1.05073e-07 0.000470595)
(3 1.44361e-07 0.000446438)
(3 3.39359e-07 0.000422455)
(3 -1.60418e-07 0.000398657)
(3 1.89453e-06 0.000375049)
(2.99998 -1.39145e-06 0.000351717)
(2.99995 -4.1431e-06 0.000328709)
(2.99986 -3.19902e-05 0.000306509)
(2.99969 -3.83764e-05 0.000285065)
(2.99921 -0.000199655 0.000267691)
(2.99842 -0.000207975 0.000251664)
(2.99555 -0.00138839 0.000268939)
(2.9924 4.41269e-05 0.000259484)
(2.96645 0.00229713 0.000695427)
(2.9332 0.00428938 0.000843755)
(2.76817 0.00726032 0.00373685)
(2.29793 0.00641987 0.00704758)
(1.40541 0.0159077 0.0143851)
(0.57675 0.0758758 0.00573948)
(0.590996 0.0933868 5.99554e-05)
(0.651557 0.10258 -0.000357809)
(0.680717 0.108424 -0.000201054)
(0.672519 0.112869 4.6746e-07)
(0.648225 0.117298 4.49722e-05)
(0.617187 0.122413 1.78203e-05)
(0.592552 0.127596 -0.000100349)
(0.573088 0.13287 -0.000207873)
(0.554497 0.13831 -0.000285989)
(0.535188 0.144012 -0.000354652)
(0.515235 0.150052 -0.000424939)
(0.49499 0.15649 -0.000497292)
(0.474553 0.163368 -0.000570775)
(0.453739 0.170694 -0.000644723)
(0.432405 0.178469 -0.000717807)
(0.410677 0.186688 -0.000791492)
(0.388397 0.195363 -0.000867758)
(0.365357 0.204451 -0.000943519)
(0.341732 0.213923 -0.00101966)
(0.317379 0.223773 -0.00109797)
(0.292112 0.233935 -0.00117509)
(0.266328 0.244329 -0.00125187)
(0.239975 0.255012 -0.00133343)
(0.212612 0.265936 -0.00141452)
(0.184806 0.277027 -0.00149298)
(0.156883 0.288405 -0.00157664)
(0.128324 0.300048 -0.00166569)
(0.0988921 0.311414 -0.00175143)
(0.0700778 0.321489 -0.00182843)
(0.0409992 0.329617 -0.00190128)
(0.0161455 0.336079 -0.00198781)
(3 6.25053e-08 0.000429205)
(3 2.19744e-07 0.00040713)
(3 6.77638e-07 0.000385223)
(3 -2.1549e-07 0.000363479)
(2.99999 4.54767e-07 0.000341943)
(2.99998 -3.18537e-06 0.000320649)
(2.99993 -5.84131e-06 0.000299823)
(2.99983 -2.9757e-05 0.000279474)
(2.99956 -3.6009e-05 0.000261226)
(2.99904 -0.000177336 0.000244693)
(2.99745 -0.00019686 0.000242685)
(2.99538 -0.00125186 0.000231538)
(2.99461 0.000234696 0.0001904)
(2.96902 0.00178078 0.000626346)
(2.93764 0.00523009 0.000743583)
(2.77706 0.00675475 0.00332673)
(2.32462 0.010842 0.00621939)
(1.45592 0.0249206 0.0130105)
(0.607105 0.0953951 0.00543596)
(0.587952 0.107671 0.000266678)
(0.645733 0.116374 -0.000303934)
(0.674806 0.122706 -0.000177276)
(0.667264 0.127489 -1.36872e-06)
(0.643835 0.131932 3.60996e-05)
(0.613499 0.136825 1.17974e-05)
(0.589218 0.142206 -9.32023e-05)
(0.570109 0.147877 -0.000190687)
(0.551997 0.153776 -0.000262196)
(0.533257 0.159994 -0.000324972)
(0.513918 0.166631 -0.000388958)
(0.494311 0.173753 -0.000454669)
(0.474505 0.181397 -0.000521388)
(0.454312 0.189573 -0.000588367)
(0.433602 0.198284 -0.00065438)
(0.412466 0.207548 -0.000720978)
(0.390744 0.217338 -0.000789536)
(0.368249 0.227631 -0.00085749)
(0.34514 0.238367 -0.000925693)
(0.321256 0.249562 -0.000996357)
(0.296356 0.261134 -0.00106566)
(0.270812 0.273016 -0.00113388)
(0.244584 0.285198 -0.00120621)
(0.217227 0.297581 -0.00128017)
(0.189307 0.310033 -0.00135059)
(0.161123 0.322645 -0.00142492)
(0.132128 0.335372 -0.00150473)
(0.102087 0.347587 -0.00158027)
(0.0724906 0.358219 -0.00164914)
(0.0425376 0.366581 -0.00171681)
(0.0167145 0.373072 -0.0017901)
(3 -3.14716e-08 0.000386103)
(3 2.81956e-07 0.000366206)
(3 6.23802e-07 0.000346467)
(3 3.78201e-07 0.000326878)
(2.99999 -5.68822e-07 0.000307475)
(2.99998 -9.40246e-07 0.000288285)
(2.99994 9.24747e-07 0.000269497)
(2.99985 1.15242e-05 0.000251095)
(2.99961 3.47163e-05 0.000234445)
(2.99916 0.000111251 0.000218952)
(2.99775 0.000238986 0.000214705)
(2.99597 0.000714966 0.000203952)
(2.99534 0.00152454 0.000178219)
(2.97143 0.00159922 0.000528019)
(2.9427 0.00552615 0.000616964)
(2.7875 0.00715596 0.00291007)
(2.35831 0.0146772 0.00536174)
(1.51777 0.0345028 0.0115814)
(0.643804 0.117973 0.00511993)
(0.583778 0.125268 0.000470661)
(0.639475 0.131293 -0.000259284)
(0.669087 0.137365 -0.00016029)
(0.661905 0.142105 -2.93936e-06)
(0.639022 0.146599 2.87753e-05)
(0.609253 0.151523 6.60895e-06)
(0.585405 0.157008 -8.63396e-05)
(0.566754 0.162951 -0.000173341)
(0.549218 0.169254 -0.000237717)
(0.531169 0.175974 -0.000294236)
(0.512605 0.18321 -0.000351682)
(0.493818 0.191027 -0.000410526)
(0.47484 0.199463 -0.000470181)
(0.455477 0.208529 -0.000530014)
(0.435604 0.218225 -0.000588884)
(0.415261 0.228589 -0.000648129)
(0.394286 0.239575 -0.000708813)
(0.372492 0.25118 -0.000768583)
(0.350028 0.26331 -0.000828634)
(0.326738 0.276017 -0.000890999)
(0.302354 0.289179 -0.000953662)
(0.277187 0.302715 -0.00101465)
(0.251171 0.316568 -0.00107705)
(0.223876 0.330655 -0.00114114)
(0.195782 0.344765 -0.00120344)
(0.16719 0.358924 -0.00126869)
(0.137582 0.373045 -0.0013391)
(0.106696 0.386392 -0.00140714)
(0.0759984 0.397826 -0.0014674)
(0.0446653 0.406715 -0.00152677)
(0.0174159 0.413383 -0.0015967)
(3 -1.77231e-08 0.000341213)
(3 6.29453e-08 0.000323594)
(3 -5.00729e-10 0.000306117)
(3 8.92568e-07 0.00028878)
(2.99999 1.11164e-06 0.000271608)
(2.99998 3.95288e-06 0.000254623)
(2.99994 7.73671e-06 0.000237973)
(2.99986 3.6049e-05 0.000221655)
(2.99965 6.94294e-05 0.000206694)
(2.99923 0.000251074 0.000192891)
(2.99797 0.000449029 0.000188079)
(2.99641 0.00157427 0.000176812)
(2.99598 0.00194526 0.000145412)
(2.97356 0.00138578 0.00045111)
(2.94817 0.00555083 0.000508949)
(2.79969 0.00791606 0.00246132)
(2.39738 0.0186845 0.00450028)
(1.59096 0.0450404 0.0100819)
(0.685169 0.145162 0.00477956)
(0.575201 0.145776 0.000665715)
(0.630354 0.148032 -0.00022162)
(0.661915 0.153165 -0.000148293)
(0.655518 0.157627 -5.69024e-06)
(0.633434 0.161978 2.12505e-05)
(0.604303 0.166819 2.26384e-06)
(0.580964 0.172252 -7.85761e-05)
(0.562935 0.178295 -0.00015538)
(0.546129 0.184855 -0.000212375)
(0.528914 0.191972 -0.000262385)
(0.51128 0.199737 -0.000313051)
(0.493487 0.208212 -0.000364873)
(0.475529 0.217429 -0.000417362)
(0.4572 0.227401 -0.000469877)
(0.438389 0.238129 -0.000521675)
(0.419073 0.249635 -0.000573667)
(0.399083 0.26189 -0.00062625)
(0.378227 0.274878 -0.000678112)
(0.356638 0.288546 -0.000729896)
(0.334155 0.30293 -0.000783479)
(0.310452 0.317916 -0.000837029)
(0.285784 0.333362 -0.000890096)
(0.260073 0.349214 -0.000945742)
(0.232926 0.365319 -0.00100031)
(0.204719 0.381447 -0.00105338)
(0.175684 0.397575 -0.0011097)
(0.145298 0.413568 -0.00117013)
(0.113292 0.428557 -0.00122816)
(0.0810815 0.441246 -0.0012817)
(0.0479369 0.450904 -0.0013335)
(0.018711 0.457891 -0.00138921)
(3 -3.05379e-09 0.000294452)
(3 4.33939e-08 0.000279216)
(3 3.89794e-08 0.000264104)
(3 6.59276e-07 0.000249118)
(3 4.96902e-07 0.000234269)
(2.99999 9.30871e-07 0.000219589)
(2.99996 2.81916e-06 0.00020509)
(2.9999 1.62075e-05 0.000190963)
(2.99978 3.90632e-05 0.000177252)
(2.99949 0.00015201 0.000164893)
(2.99886 0.000313517 0.000154968)
(2.99719 0.00121437 0.000153328)
(2.99585 0.00154724 0.000141638)
(2.97576 0.000984359 0.000355515)
(2.95429 0.00683175 0.000385501)
(2.81332 0.0102716 0.00203311)
(2.44389 0.0266219 0.00363563)
(1.67978 0.0581867 0.00849546)
(0.733779 0.179939 0.00441599)
(0.56117 0.168116 0.000840715)
(0.617949 0.164028 -0.000192941)
(0.653529 0.167337 -0.000142713)
(0.648364 0.172027 -9.97842e-06)
(0.627034 0.176428 1.46523e-05)
(0.598553 0.181348 -9.97171e-07)
(0.575821 0.186952 -6.96818e-05)
(0.558559 0.193211 -0.000136116)
(0.542655 0.200056 -0.000185517)
(0.526462 0.20757 -0.000228838)
(0.509958 0.21586 -0.000272501)
(0.49337 0.224991 -0.000317011)
(0.476655 0.234998 -0.000362054)
(0.459603 0.245905 -0.000407181)
(0.442082 0.257716 -0.000451496)
(0.424035 0.270436 -0.000495723)
(0.405284 0.284075 -0.000540701)
(0.385634 0.298596 -0.00058494)
(0.365198 0.313969 -0.000629172)
(0.343791 0.330186 -0.000674606)
(0.321035 0.347181 -0.000719105)
(0.29714 0.364825 -0.000763343)
(0.271981 0.38305 -0.000809362)
(0.245103 0.40167 -0.000855836)
(0.216827 0.420373 -0.000900409)
(0.187354 0.439056 -0.000947206)
(0.156088 0.457586 -0.000997741)
(0.12264 0.474897 -0.00104632)
(0.0883141 0.489549 -0.00109046)
(0.0523707 0.500634 -0.00113448)
(0.0203239 0.508298 -0.00118664)
(3 -1.16028e-08 0.000245734)
(3 1.6641e-07 0.000232991)
(3 8.14087e-08 0.000220355)
(3 1.12431e-08 0.000207829)
(2.99999 -1.68076e-06 0.000195424)
(2.99998 -4.76317e-06 0.000183151)
(2.99995 -1.23123e-05 0.000171061)
(2.99989 -2.46807e-05 0.000159202)
(2.99976 -6.39059e-05 0.000147743)
(2.99946 -0.000133347 0.000137178)
(2.99887 -0.000400495 0.000127267)
(2.99748 -0.000840764 0.000123749)
(2.99646 -0.00246578 0.000111217)
(2.97929 -0.00607439 0.000269287)
(2.96221 0.0133019 0.000284234)
(2.83018 -0.021635 0.00159356)
(2.49453 0.0768362 0.00283084)
(1.7772 0.0592957 0.00681982)
(0.792613 0.243191 0.00401496)
(0.539354 0.205946 0.000983704)
(0.602503 0.187974 -0.000178322)
(0.645994 0.186114 -0.000146684)
(0.643165 0.189636 -1.88661e-05)
(0.622218 0.193048 8.70077e-06)
(0.594247 0.197366 -4.36147e-06)
(0.571896 0.202505 -6.03836e-05)
(0.555135 0.208419 -0.000115587)
(0.539961 0.215156 -0.000157146)
(0.524721 0.22282 -0.000193603)
(0.509346 0.231474 -0.000230135)
(0.494012 0.241146 -0.00026719)
(0.478649 0.25187 -0.000304504)
(0.463035 0.263671 -0.000341819)
(0.447009 0.276557 -0.000378579)
(0.430487 0.290553 -0.000415147)
(0.413272 0.305659 -0.000451886)
(0.395136 0.321855 -0.00048812)
(0.376131 0.339124 -0.000524232)
(0.356093 0.357424 -0.000561022)
(0.334635 0.376759 -0.00059815)
(0.311843 0.396965 -0.000634341)
(0.287596 0.417952 -0.000671038)
(0.261366 0.439644 -0.00070825)
(0.233228 0.461671 -0.000744115)
(0.203422 0.483768 -0.000781315)
(0.171258 0.505842 -0.000821971)
(0.136077 0.526669 -0.000860906)
(0.099067 0.544478 -0.000897229)
(0.0594745 0.558012 -0.00093275)
(0.023225 0.567071 -0.000971455)
(3 -1.14355e-08 0.000194968)
(3 6.24066e-08 0.000184835)
(3 8.25636e-08 0.000174789)
(3 2.65684e-07 0.000164835)
(2.99999 5.26748e-07 0.000154978)
(2.99998 2.32365e-06 0.000145246)
(2.99995 7.64485e-06 0.000135639)
(2.99987 2.18799e-05 0.000126376)
(2.99971 5.66759e-05 0.000117396)
(2.99923 0.000114777 0.000110242)
(2.99832 0.000280754 0.000104463)
(2.99546 0.000349206 0.000111178)
(2.99181 0.00120237 0.000108322)
(2.99063 -0.0026854 8.23895e-05)
(2.94413 0.010884 0.000464173)
(2.86468 -0.0210605 0.000705676)
(2.59772 0.0631231 0.0023623)
(1.76414 0.0687625 0.0046987)
(0.915046 0.283811 0.00343558)
(0.53244 0.226292 0.00114452)
(0.606311 0.199337 -0.000174051)
(0.66105 0.196128 -0.000159089)
(0.66001 0.201563 -2.93492e-05)
(0.63731 0.206344 4.32149e-06)
(0.607685 0.212147 -5.3438e-06)
(0.583266 0.217626 -4.8385e-05)
(0.564714 0.223355 -9.25166e-05)
(0.548248 0.229963 -0.000126247)
(0.532128 0.237711 -0.00015563)
(0.516228 0.246615 -0.000184751)
(0.500739 0.256695 -0.0002142)
(0.4856 0.268017 -0.000243854)
(0.47057 0.280637 -0.000273426)
(0.455462 0.294557 -0.000302537)
(0.440114 0.309807 -0.000331459)
(0.424271 0.326391 -0.000360247)
(0.407685 0.344323 -0.000388658)
(0.390297 0.363615 -0.000416838)
(0.371933 0.384207 -0.000444994)
(0.352143 0.406181 -0.000473331)
(0.330839 0.429386 -0.000501238)
(0.307972 0.45366 -0.00052963)
(0.282961 0.479095 -0.000558304)
(0.255472 0.505329 -0.000585425)
(0.225715 0.532054 -0.000612915)
(0.192969 0.559144 -0.000643062)
(0.156005 0.585322 -0.000672605)
(0.115508 0.608463 -0.000699393)
(0.0704612 0.626649 -0.000725594)
(0.027699 0.638656 -0.000758906)
(3 2.06326e-08 0.000142059)
(3 -5.13658e-08 0.000134658)
(3 1.99657e-07 0.000127323)
(3 3.14943e-07 0.000120055)
(3 1.69475e-06 0.000112858)
(2.99999 4.78853e-06 0.000105733)
(2.99997 1.81108e-05 9.87064e-05)
(2.99994 4.07055e-05 9.17727e-05)
(2.99986 0.000124024 8.51078e-05)
(2.99971 0.000253349 7.86263e-05)
(2.99921 0.000750813 7.35327e-05)
(2.99858 0.00141702 6.85047e-05)
(2.99399 0.00438178 8.34712e-05)
(2.98959 0.0043502 8.38645e-05)
(2.9518 0.00310331 0.000281417)
(2.89072 0.0181448 0.000407549)
(2.66942 0.0365977 0.00147526)
(1.95282 0.126864 0.00295519)
(1.06409 0.333619 0.00300015)
(0.56811 0.26868 0.0011279)
(0.649832 0.238792 -0.000165946)
(0.715665 0.222711 -0.000163056)
(0.716627 0.223448 -4.04129e-05)
(0.691209 0.226351 -1.99766e-06)
(0.657626 0.23297 -5.76721e-06)
(0.627198 0.238407 -3.35893e-05)
(0.603072 0.243368 -6.71002e-05)
(0.581801 0.249108 -9.28417e-05)
(0.561395 0.25615 -0.000114377)
(0.541692 0.264563 -0.000135483)
(0.523034 0.274366 -0.000156987)
(0.505472 0.28563 -0.000178775)
(0.488758 0.298471 -0.000200438)
(0.472659 0.312895 -0.00022173)
(0.456982 0.328955 -0.000242821)
(0.441437 0.346695 -0.000263748)
(0.425706 0.36615 -0.000284411)
(0.409551 0.387397 -0.000304806)
(0.392774 0.410252 -0.000325117)
(0.374889 0.43488 -0.000345237)
(0.355468 0.461389 -0.000364687)
(0.334567 0.489603 -0.000384419)
(0.311595 0.519555 -0.000404524)
(0.285745 0.551066 -0.000423892)
(0.256999 0.583962 -0.000442592)
(0.224471 0.618123 -0.000462149)
(0.186366 0.652563 -0.000482148)