/*--------------------------------*- C++ -*----------------------------------*\
| =========                 |                                                 |
| \\      /  F ield         | OpenFOAM: The Open Source CFD Toolbox           |
|  \\    /   O peration     | Version:  2112                                  |
|   \\  /    A nd           | Website:  www.openfoam.com                      |
|    \\/     M anipulation  |                                                 |
\*---------------------------------------------------------------------------*/
FoamFile
{
    version     2.0;
    format      ascii;
    arch        "LSB;label=32;scalar=64";
    class       volScalarField;
    location    "0.5";
    object      Ma;
}
// * * * * * * * * * * * * * * * * * * * * * * * * * * * * * * * * * * * * * //

dimensions      [0 0 0 0 0 0 0];

internalField   nonuniform List<scalar> 
5250
(
3.00001
3.00001
3
2.99999
2.99996
2.99991
2.9997
2.99942
2.99819
2.99639
2.98933
2.97687
2.93577
2.83602
2.59936
1.96395
1.03696
0.337248
0.158583
0.252359
0.239373
0.173414
0.123304
0.0668591
0.0281961
3.00001
3.00001
3
2.99999
2.99996
2.99991
2.99971
2.99942
2.99822
2.99645
2.98951
2.97726
2.93693
2.83884
2.60652
1.97751
1.05477
0.349247
0.163434
0.256939
0.244812
0.181334
0.134894
0.0855922
0.0561005
3.00001
3.00001
3
2.99999
2.99996
2.99991
2.99972
2.99944
2.99828
2.99656
2.98985
2.97804
2.9392
2.84476
2.62144
2.00964
1.09482
0.376436
0.176454
0.268329
0.259103
0.20072
0.160012
0.118774
0.0954355
3.00001
3.00001
3
2.99999
2.99996
2.99992
2.99973
2.99947
2.99835
2.99672
2.99032
2.97916
2.94236
2.85349
2.64309
2.06157
1.15776
0.417052
0.196415
0.285979
0.281508
0.229203
0.194302
0.158752
0.138448
3.00001
3.00001
3
2.99999
2.99996
2.99992
2.99974
2.9995
2.99844
2.99692
2.99088
2.98053
2.94627
2.86457
2.66969
2.13184
1.24395
0.469405
0.223103
0.309076
0.309965
0.263828
0.234483
0.203051
0.184933
3.00001
3.00001
3
2.99999
2.99997
2.99993
2.99976
2.99953
2.99855
2.99715
2.99145
2.98211
2.95068
2.87789
2.70153
2.21809
1.35224
0.534513
0.256637
0.337579
0.343538
0.303751
0.280999
0.253349
0.237502
3.00001
3.00001
3
3
2.99997
2.99994
2.99978
2.99957
2.99867
2.9974
2.99212
2.98389
2.9545
2.89391
2.73158
2.31628
1.48469
0.612652
0.297146
0.371997
0.381306
0.348879
0.333774
0.310591
0.299464
3.00001
3.00001
3
3
2.99998
2.99994
2.99981
2.99962
2.99882
2.99768
2.99292
2.98573
2.95845
2.90823
2.75562
2.40606
1.63287
0.700702
0.349923
0.41213
0.420564
0.398767
0.393095
0.377278
0.376759
3.00001
3.00001
3
3
2.99998
2.99995
2.99984
2.99968
2.99899
2.99802
2.9939
2.98772
2.96413
2.91986
2.78897
2.46935
1.7768
0.803628
0.421325
0.452861
0.459519
0.454733
0.46072
0.459363
0.482519
3.00001
3.00001
3
3
2.99999
2.99996
2.99987
2.99974
2.99917
2.99834
2.99495
2.98954
2.9703
2.93014
2.82229
2.53362
1.92857
0.947504
0.514099
0.49028
0.499431
0.51488
0.53694
0.567325
0.656486
3.00001
3.00001
3.00001
3
2.99999
2.99997
2.99993
2.99977
2.9995
2.99864
2.99671
2.99128
2.97766
2.94263
2.84574
2.63298
2.03342
1.15821
0.624142
0.53116
0.548533
0.58032
0.624069
0.698521
0.861288
3.00001
3.00001
3.00001
3
2.99999
2.99998
2.99993
2.99984
2.99952
2.99897
2.99713
2.99317
2.98178
2.9529
2.88195
2.67287
2.25414
1.36089
0.755121
0.584289
0.608247
0.649167
0.706052
0.804366
0.977076
3.00001
3.00001
3.00001
3
3
2.99998
2.99994
2.99987
2.99957
2.99915
2.9973
2.9947
2.98369
2.96622
2.90469
2.771
2.42413
1.6957
0.906628
0.653677
0.679682
0.716417
0.780487
0.879536
1.02927
3.00001
3.00001
3.00001
3
3
2.99999
2.99995
2.9999
2.99967
2.99935
2.998
2.996
2.98806
2.97451
2.92833
2.82235
2.5639
1.93557
1.08451
0.735457
0.743135
0.773735
0.835302
0.934703
1.06386
3.00001
3.00001
3.00001
3.00001
3
2.99999
2.99996
2.99992
2.99975
2.9995
2.99846
2.99694
2.99098
2.98055
2.94723
2.86538
2.67714
2.13995
1.34189
0.863268
0.795021
0.82071
0.874932
0.967925
1.08502
3.00001
3.00001
3.00001
3.00001
3
3
2.99998
2.99995
2.99982
2.99963
2.99885
2.99773
2.99306
2.9859
2.95942
2.90674
2.76126
2.3877
1.67192
1.01247
0.852977
0.872132
0.916657
0.994304
1.09888
3.00001
3.00001
3.00001
3.00001
3
3
2.99999
2.99996
2.99987
2.99975
2.9992
2.99843
2.99517
2.99029
2.97114
2.93683
2.82964
2.57615
2.00193
1.21623
0.936617
0.929129
0.964333
1.02463
1.11584
3.00001
3.00001
3.00001
3.00001
3.00001
3
2.99999
2.99998
2.99992
2.99983
2.99945
2.99892
2.99667
2.99331
2.98039
2.95636
2.88566
2.70131
2.30854
1.47485
1.08034
0.995917
1.01585
1.05997
1.13241
3.00001
3.00001
3.00001
3.00001
3.00001
3
3
2.99999
2.99995
2.99989
2.99966
2.99932
2.99791
2.99579
2.98747
2.97335
2.9253
2.81907
2.55002
1.95628
1.27859
1.08135
1.07888
1.10771
1.15981
3.00001
3.00001
3.00001
3.00001
3.00001
3.00001
3
2.99999
2.99998
2.99992
2.99983
2.99948
2.99894
2.99688
2.99325
2.9818
2.95469
2.88554
2.69837
2.29373
1.53982
1.20185
1.14011
1.15268
1.19109
3.00001
3.00001
3.00001
3.00001
3.00001
3.00001
3
3
2.99999
2.99995
2.9999
2.99968
2.99936
2.99799
2.99601
2.98781
2.9749
2.92831
2.83225
2.5737
2.0246
1.40097
1.22329
1.21262
1.23579
3.00001
3.00001
3.00001
3.00001
3.00001
3.00001
3.00001
3
3
2.99998
2.99993
2.99985
2.99954
2.99906
2.99719
2.99407
2.98323
2.96103
2.8989
2.74379
2.36893
1.71965
1.34475
1.27178
1.27952
3.00001
3.00001
3.00001
3.00001
3.00001
3.00001
3.00001
3
3
2.99999
2.99997
2.9999
2.99979
2.99934
2.99865
2.99593
2.99147
2.97529
2.9453
2.85052
2.65463
2.1221
1.58566
1.36998
1.33511
3.00001
3.00001
3.00001
3.00001
3.00001
3.00001
3.00001
3.00001
3
3
2.99998
2.99996
2.99986
2.99971
2.99911
2.99817
2.99463
2.98841
2.96865
2.92285
2.81289
2.5156
1.94524
1.50373
1.40388
3.00001
3.00001
3.00001
3.00001
3.00001
3.00001
3.00001
3.00001
3.00001
3
2.99999
2.99998
2.99993
2.99985
2.99952
2.99904
2.99703
2.99399
2.98225
2.96136
2.89479
2.74962
2.36827
1.79225
1.5218
3.00001
3.00001
3.00001
3.00001
3.00001
3.00001
3.00001
3.00001
3.00001
3.00001
3
3
2.99997
2.99993
2.99977
2.99953
2.99855
2.99708
2.99123
2.98142
2.94728
2.87495
2.68795
2.26738
1.73823
3.00001
3.00001
3.00001
3.00001
3.00001
3.00001
3.00001
3.00001
3.00001
3.00001
3.00001
3
2.99999
2.99996
2.99992
2.99974
2.99945
2.99831
2.99652
2.98957
2.97779
2.93715
2.85405
2.61921
2.17077
3.00001
3.00001
3.00001
3.00001
3.00001
3.00001
3.00001
3.00001
3.00001
3.00001
3.00001
3
3
2.99999
2.99996
2.99987
2.99974
2.99917
2.99834
2.99499
2.98945
2.97102
2.92973
2.83136
2.55424
3.00001
3.00001
3.00001
3.00001
3.00001
3.00001
3.00001
3.00001
3.00001
3.00001
3.00001
3.00001
3
3
2.99999
2.99995
2.99989
2.99964
2.99928
2.99776
2.99544
2.98634
2.97067
2.91706
2.81092
3.00001
3.00001
3.00001
3.00001
3.00001
3.00001
3.00001
3.00001
3.00001
3.00001
3.00001
3.00001
3.00001
3
3
2.99999
2.99995
2.99989
2.99964
2.99925
2.99773
2.99518
2.9859
2.96863
2.91251
3.00001
3.00001
3.00001
3.00001
3.00001
3.00001
3.00001
3.00001
3.00001
3.00001
3.00001
3.00001
3.00001
3.00001
3
3
2.99998
2.99996
2.99986
2.99971
2.99908
2.99811
2.99431
2.98772
2.96587
3.00001
3.00001
3.00001
3.00001
3.00001
3.00001
3.00001
3.00001
3.00001
3.00001
3.00001
3.00001
3.00001
3.00001
3.00001
3
3
2.99999
2.99995
2.9999
2.99966
2.9993
2.99781
2.99546
2.98626
3.00001
3.00001
3.00001
3.00001
3.00001
3.00001
3.00001
3.00001
3.00001
3.00001
3.00001
3.00001
3.00001
3.00001
3.00001
3.00001
3.00001
3
2.99999
2.99996
2.99991
2.99972
2.99938
2.99813
2.99596
3.00001
3.00001
3.00001
3.00001
3.00001
3.00001
3.00001
3.00001
3.00001
3.00001
3.00001
3.00001
3.00001
3.00001
3.00001
3.00001
3.00001
3.00001
3
3
2.99997
2.99993
2.99976
2.99949
2.99844
3.00001
3.00001
3.00001
3.00001
3.00001
3.00001
3.00001
3.00001
3.00001
3.00001
3.00001
3.00001
3.00001
3.00001
3.00001
3.00001
3.00001
3.00001
3.00001
3
3
2.99998
2.99993
2.99985
2.99951
3.00001
3.00001
3.00001
3.00001
3.00001
3.00001
3.00001
3.00001
3.00001
3.00001
3.00001
3.00001
3.00001
3.00001
3.00001
3.00001
3.00001
3.00001
3.00001
3.00001
3
3
2.99999
2.99996
2.99986
3.00001
3.00001
3.00001
3.00001
3.00001
3.00001
3.00001
3.00001
3.00001
3.00001
3.00001
3.00001
3.00001
3.00001
3.00001
3.00001
3.00001
3.00001
3.00001
3.00001
3.00001
3.00001
3
2.99999
2.99998
3.00001
3.00001
3.00001
3.00001
3.00001
3.00001
3.00001
3.00001
3.00001
3.00001
3.00001
3.00001
3.00001
3.00001
3.00001
3.00001
3.00001
3.00001
3.00001
3.00001
3.00001
3.00001
3.00001
3
3
3.00001
3.00001
3.00001
3.00001
3.00001
3.00001
3.00001
3.00001
3.00001
3.00001
3.00001
3.00001
3.00001
3.00001
3.00001
3.00001
3.00001
3.00001
3.00001
3.00001
3.00001
3.00001
3.00001
3.00001
3.00001
3.00001
3.00001
3.00001
3.00001
3.00001
3.00001
3.00001
3.00001
3.00001
3.00001
3.00001
3.00001
3.00001
3.00001
3.00001
3.00001
3.00001
3.00001
3.00001
3.00001
3.00001
3.00001
3.00001
3.00001
3.00001
3.00001
3.00001
3.00001
3.00001
3.00001
3.00001
3.00001
3.00001
3.00001
3.00001
3.00001
3.00001
3.00001
3.00001
3.00001
3.00001
3.00001
3.00001
3.00001
3.00001
3.00001
3.00001
3.00001
3.00001
3.00001
3.00001
3.00001
3.00001
3.00001
3.00001
3.00001
3.00001
3.00001
3.00001
3.00001
3.00001
3.00001
3.00001
3.00001
3.00001
3.00001
3.00001
3.00001
3.00001
3.00001
3.00001
3.00001
3.00001
3.00001
3.00001
3.00001
3.00001
3.00001
3.00001
3.00001
3.00001
3.00001
3.00001
3.00001
3.00001
3.00001
3.00001
3.00001
3.00001
3.00001
3.00001
3.00001
3.00001
3.00001
3.00001
3.00001
3.00001
3.00001
3.00001
3.00001
3.00001
3.00001
3.00001
3.00001
3.00001
3.00001
3.00001
3.00001
3.00001
3.00001
3.00001
3.00001
3.00001
3.00001
3.00001
3.00001
3.00001
3.00001
3.00001
3.00001
3.00001
3.00001
3.00001
3.00001
3.00001
3.00001
3.00001
3.00001
3.00001
3.00001
3.00001
3.00001
3.00001
3.00001
3.00001
3.00001
3.00001
3.00001
3.00001
3.00001
3.00001
3.00001
3.00001
3.00001
3.00001
3.00001
3.00001
3.00001
3.00001
3.00001
3.00001
3.00001
3.00001
3.00001
3.00001
3.00001
3.00001
3.00001
3.00001
3.00001
3.00001
3.00001
3.00001
3.00001
3.00001
3.00001
3.00001
3.00001
3.00001
3.00001
3.00001
3.00001
3.00001
3.00001
3.00001
3.00001
3.00001
3.00001
3.00001
3.00001
3.00001
3.00001
3.00001
3.00001
3.00001
3.00001
3.00001
3.00001
3.00001
3.00001
3.00001
3.00001
3.00001
3.00001
3.00001
3.00001
3.00001
3.00001
3.00001
3.00001
3.00001
3.00001
3.00001
3.00001
3.00001
3.00001
3.00001
3.00001
3.00001
3.00001
3.00001
3.00001
3.00001
3.00001
3.00001
3.00001
3.00001
3.00001
3.00001
3.00001
3.00001
3.00001
3.00001
3.00001
3.00001
3.00001
3.00001
3.00001
3.00001
3.00001
3.00001
3.00001
3.00001
3.00001
3.00001
3.00001
3.00001
3.00001
3.00001
3.00001
3.00001
3.00001
3.00001
3.00001
3.00001
3.00001
3.00001
3.00001
3.00001
3.00001
3.00001
3.00001
3.00001
3.00001
3.00001
3.00001
3.00001
3.00001
3.00001
3.00001
3.00001
3.00001
3.00001
3.00001
3.00001
3.00001
3.00001
3.00001
3.00001
3.00001
3.00001
3.00001
3.00001
3.00001
3.00001
1.10128
1.30267
1.38067
1.37699
1.32005
1.26795
1.21938
1.19475
1.19675
1.20961
1.22591
1.24902
1.2724
1.29017
1.30632
1.32251
1.33982
1.35878
1.37935
1.40097
1.42274
1.44375
1.46352
1.48196
1.49923
1.51568
1.53172
1.54752
1.56274
1.57679
1.58929
1.59978
1.60806
1.61493
1.62021
1.62253
1.622
1.62049
1.61931
1.61963
1.62182
1.62525
1.63084
1.64459
1.67309
1.71392
1.76423
1.82342
1.89019
1.96287
2.03956
2.11829
2.19721
2.27451
2.34865
2.41838
2.48288
2.54164
2.59445
2.64137
2.68265
2.71868
2.74992
2.77692
2.80037
2.82104
2.83968
2.8569
2.87314
2.88865
2.90354
2.91783
2.93145
2.94424
2.9559
2.96607
2.97452
2.98144
2.98729
2.9926
2.9976
3.00123
3.00483
3.00693
3.00753
3.00719
3.00633
3.00527
3.00423
3.0033
3.00242
3.00171
3.00118
3.0008
3.00054
3.00035
3.00022
3.00014
3.00008
3.00005
1.147
1.2743
1.35281
1.407
1.45759
1.50944
1.54802
1.56108
1.56262
1.56247
1.56381
1.56694
1.5734
1.5859
1.60264
1.6198
1.63585
1.65168
1.66801
1.6849
1.70216
1.71947
1.7363
1.75206
1.76649
1.77982
1.79256
1.80518
1.81783
1.83025
1.84201
1.85247
1.86084
1.86715
1.87239
1.87604
1.87708
1.87518
1.87209
1.86948
1.8687
1.87006
1.87287
1.87841
1.89193
1.9191
1.95656
2.00138
2.05268
2.10917
2.16934
2.23164
2.29458
2.35697
2.41786
2.47658
2.53258
2.58536
2.6345
2.6796
2.72041
2.75689
2.78921
2.81766
2.84259
2.86438
2.88344
2.90024
2.91526
2.92895
2.94161
2.95339
2.96423
2.97395
2.98231
2.98917
2.9945
2.99854
3.00172
3.00443
3.00675
3.00975
3.01186
3.01231
3.01164
3.01033
3.00874
3.00719
3.00571
3.00427
3.00312
3.00224
3.00157
3.00109
3.00074
3.00049
3.00032
3.00021
3.00014
3.00009
1.15623
1.26789
1.36827
1.46844
1.56143
1.64197
1.69951
1.72809
1.73325
1.73382
1.73388
1.73358
1.73831
1.74468
1.75232
1.76418
1.77849
1.79312
1.8083
1.82402
1.83988
1.85547
1.8704
1.88426
1.89678
1.90803
1.91844
1.92856
1.93871
1.94889
1.95891
1.96832
1.97628
1.98226
1.98681
1.99065
1.99361
1.99553
1.9968
1.99841
2.00073
2.00345
2.00807
2.01921
2.04111
2.07072
2.10637
2.14738
2.19294
2.24219
2.29417
2.34786
2.40228
2.45652
2.5098
2.56148
2.61106
2.6581
2.70211
2.74259
2.77915
2.81151
2.83972
2.86402
2.88482
2.90259
2.91779
2.93087
2.94226
2.95238
2.96167
2.97037
2.97844
2.98568
2.99181
2.99665
3.00022
3.00282
3.00486
3.00656
3.00844
3.01133
3.01281
3.01283
3.01188
3.0104
3.00873
3.00715
3.0056
3.00416
3.00302
3.00216
3.00151
3.00104
3.0007
3.00046
3.0003
3.00019
3.00012
3.00008
1.18194
1.2888
1.38764
1.48045
1.56539
1.64024
1.70246
1.7537
1.79499
1.82589
1.84623
1.85431
1.85773
1.85997
1.86081
1.86398
1.87121
1.88238
1.89852
1.91767
1.93573
1.95206
1.96618
1.97855
1.98917
1.99884
2.00777
2.01724
2.02686
2.03696
2.04636
2.05578
2.0643
2.0721
2.07821
2.0841
2.0897
2.09475
2.09887
2.1027
2.10665
2.11218
2.12206
2.13918
2.16209
2.19088
2.22524
2.26461
2.30811
2.35476
2.40346
2.45313
2.50279
2.55157
2.59873
2.64366
2.68593
2.72523
2.76142
2.79442
2.82421
2.85073
2.87395
2.894
2.91116
2.92584
2.93852
2.94963
2.95947
2.96832
2.97634
2.98374
2.99056
2.99672
3.00195
3.00597
3.00866
3.01033
3.01121
3.01202
3.01361
3.01564
3.01614
3.01539
3.01384
3.01191
3.00994
3.00805
3.00616
3.00458
3.00334
3.0024
3.00169
3.00117
3.0008
3.00053
3.00035
3.00023
3.00015
3.0001
1.19532
1.29539
1.38801
1.476
1.55787
1.63421
1.70392
1.76786
1.82484
1.87191
1.90701
1.92815
1.93716
1.94154
1.94274
1.94604
1.95161
1.95903
1.97008
1.98436
1.99933
2.01408
2.02747
2.03903
2.04955
2.05954
2.06944
2.07967
2.09036
2.10095
2.11087
2.12001
2.1285
2.13567
2.14135
2.14683
2.15346
2.16034
2.16707
2.17402
2.18295
2.1955
2.21245
2.23449
2.26156
2.29315
2.32854
2.36699
2.40779
2.45027
2.49375
2.5375
2.58091
2.62342
2.66449
2.70366
2.74053
2.77481
2.8063
2.83494
2.86075
2.88373
2.90385
2.92117
2.93583
2.94815
2.9585
2.96741
2.97522
2.98231
2.98876
2.99468
2.99998
3.00463
3.00837
3.0111
3.01263
3.01328
3.01343
3.01397
3.01528
3.01676
3.01681
3.01572
3.01395
3.01188
3.00985
3.00787
3.00595
3.00441
3.00321
3.00229
3.0016
3.0011
3.00075
3.0005
3.00033
3.00021
3.00013
3.00009
1.20723
1.30623
1.39532
1.47753
1.55482
1.6279
1.6968
1.76054
1.81813
1.8685
1.91046
1.94359
1.96912
1.98705
1.99944
2.0087
2.01638
2.0235
2.03097
2.03952
2.0498
2.0612
2.07339
2.08559
2.09769
2.11002
2.12219
2.1341
2.14568
2.15684
2.1671
2.17643
2.18521
2.1931
2.19941
2.20562
2.21369
2.2235
2.23421
2.24573
2.25914
2.27592
2.29683
2.32248
2.35257
2.3862
2.42228
2.45995
2.49862
2.53788
2.57734
2.61652
2.65499
2.69234
2.72816
2.76209
2.79382
2.82306
2.84958
2.87337
2.89453
2.91321
2.92954
2.94357
2.95544
2.96536
2.97366
2.98076
2.98704
2.99281
2.99821
3.00325
3.00782
3.01179
3.01488
3.01684
3.01753
3.01761
3.01747
3.01755
3.01811
3.01919
3.0188
3.01726
3.0151
3.01276
3.01052
3.00824
3.00622
3.00461
3.00336
3.0024
3.00169
3.00117
3.0008
3.00054
3.00035
3.00023
3.00015
3.0001
1.21232
1.30572
1.39282
1.47374
1.54976
1.62087
1.68796
1.75012
1.80811
1.86021
1.90614
1.94565
1.98017
2.01057
2.03644
2.05741
2.07309
2.08419
2.09247
2.09939
2.1059
2.11292
2.12094
2.13039
2.14151
2.15357
2.16629
2.17936
2.19226
2.20438
2.21534
2.22494
2.23382
2.24222
2.24948
2.25679
2.26644
2.2791
2.29413
2.31079
2.32951
2.35132
2.37673
2.406
2.43861
2.47341
2.50943
2.54557
2.58149
2.61682
2.65142
2.68518
2.71792
2.74928
2.77908
2.80743
2.83428
2.85937
2.88225
2.90253
2.92033
2.93594
2.94951
2.96118
2.9711
2.97942
2.98636
2.99221
2.99735
3.00209
3.00659
3.01086
3.01468
3.01778
3.01991
3.0207
3.02063
3.02028
3.01963
3.01921
3.01965
3.02027
3.01937
3.01748
3.0151
3.01267
3.01033
3.00798
3.006
3.00443
3.00321
3.00229
3.00161
3.00111
3.00075
3.0005
3.00033
3.00021
3.00014
3.00009
1.22082
1.30913
1.39329
1.47228
1.54666
1.61634
1.68166
1.74237
1.79745
1.84761
1.89337
1.9362
1.97679
2.0145
2.04862
2.07794
2.1015
2.11989
2.13344
2.14318
2.15097
2.15789
2.16471
2.17221
2.18142
2.19218
2.20421
2.21742
2.23093
2.24415
2.25624
2.26695
2.27655
2.28618
2.29594
2.30606
2.31854
2.33467
2.35436
2.37631
2.39974
2.4253
2.45336
2.48421
2.51738
2.55189
2.58672
2.62103
2.65415
2.68589
2.71633
2.74553
2.77356
2.80035
2.82575
2.84962
2.87194
2.89269
2.91155
2.92817
2.94272
2.95615
2.96742
2.97666
2.98443
2.99098
2.99656
3.00132
3.00547
3.00928
3.01302
3.01675
3.02019
3.02284
3.02412
3.02414
3.02394
3.0231
3.02217
3.02158
3.02217
3.02201
3.02051
3.01822
3.0156
3.01303
3.01048
3.00803
3.00603
3.00446
3.00324
3.00231
3.00162
3.00112
3.00076
3.00051
3.00034
3.00022
3.00014
3.0001
1.23528
1.31463
1.39383
1.46958
1.54144
1.60946
1.67314
1.73234
1.78709
1.8379
1.88528
1.92989
1.97215
2.01197
2.04909
2.08204
2.11144
2.13629
2.15706
2.17427
2.18861
2.20087
2.21135
2.22047
2.22945
2.23901
2.2491
2.25999
2.27179
2.28362
2.29503
2.30596
2.31674
2.32822
2.34122
2.35593
2.37306
2.39373
2.41731
2.44319
2.47038
2.49893
2.52904
2.56021
2.59244
2.62528
2.65802
2.68985
2.72002
2.74831
2.77468
2.79946
2.823
2.84546
2.86679
2.88651
2.90507
2.92237
2.93803
2.95181
2.9636
2.97324
2.98161
2.98974
2.99618
3.0011
3.0055
3.00945
3.01298
3.01611
3.01906
3.02195
3.02466
3.02657
3.02708
3.02729
3.02649
3.0252
3.02386
3.02332
3.02374
3.02283
3.02087
3.01828
3.01551
3.01285
3.01016
3.00774
3.00579
3.00426
3.00308
3.00219
3.00153
3.00106
3.00072
3.00048
3.00031
3.0002
3.00013
3.00009
1.25221
1.32614
1.39932
1.47092
1.53935
1.60344
1.6634
1.71987
1.77307
1.82339
1.87167
1.91827
1.96293
2.00463
2.04313
2.07803
2.10938
2.13776
2.16362
2.18783
2.20993
2.2293
2.24625
2.2605
2.2722
2.28317
2.29414
2.3046
2.31518
2.32612
2.3372
2.34878
2.36135
2.37536
2.39165
2.4106
2.43218
2.45626
2.48243
2.51011
2.53921
2.5691
2.59952
2.62997
2.66034
2.69087
2.72115
2.7504
2.77789
2.80315
2.82609
2.84705
2.86658
2.88481
2.9024
2.91959
2.93539
2.94954
2.9621
2.97311
2.98261
2.99037
2.99654
3.00177
3.00707
3.01101
3.01405
3.01714
3.02015
3.02285
3.0252
3.0272
3.02873
3.02932
3.03014
3.03004
3.02891
3.02736
3.02582
3.02538
3.02525
3.02382
3.02143
3.01855
3.01562
3.0128
3.00997
3.00757
3.00566
3.00416
3.00301
3.00214
3.0015
3.00103
3.0007
3.00047
3.00031
3.0002
3.00013
3.00009
1.27684
1.33842
1.40714
1.4746
1.53867
1.60005
1.6576
1.71162
1.76306
1.81243
1.86036
1.9067
1.95126
1.99326
2.0324
2.06878
2.10302
2.13608
2.16823
2.19898
2.22707
2.25223
2.27366
2.29241
2.30954
2.32492
2.33974
2.35413
2.36725
2.37979
2.39252
2.40538
2.41931
2.43484
2.45237
2.47274
2.49618
2.52168
2.54804
2.57535
2.60429
2.63411
2.66385
2.69259
2.72054
2.74832
2.77581
2.80229
2.82697
2.8491
2.8688
2.88618
2.90166
2.91658
2.93153
2.94581
2.95909
2.97101
2.98141
2.99028
2.99771
3.00385
3.00871
3.01248
3.01587
3.01918
3.02133
3.02373
3.02648
3.02909
3.03119
3.03259
3.0328
3.03286
3.03308
3.03226
3.03066
3.0288
3.02716
3.02646
3.02607
3.02423
3.02147
3.01836
3.01533
3.01237
3.00953
3.00721
3.00537
3.00393
3.00283
3.00201
3.0014
3.00096
3.00065
3.00044
3.00029
3.00019
3.00012
3.00008
1.31008
1.35742
1.41841
1.48115
1.54188
1.59899
1.65398
1.70637
1.75622
1.80411
1.8509
1.89638
1.94033
1.98238
2.02226
2.06123
2.0986
2.1363
2.17158
2.20559
2.23613
2.26328
2.28827
2.31136
2.33337
2.35543
2.37603
2.3954
2.414
2.43047
2.44621
2.46251
2.47919
2.49667
2.51577
2.53701
2.56075
2.58632
2.61238
2.63898
2.66655
2.69489
2.72255
2.74909
2.77484
2.79985
2.82424
2.84782
2.86981
2.88917
2.90519
2.91826
2.93074
2.94313
2.95499
2.96617
2.9767
2.98637
2.99484
3.00199
3.00797
3.01279
3.01665
3.01975
3.02233
3.0249
3.02657
3.02843
3.03102
3.03379
3.0359
3.03658
3.03674
3.03682
3.03589
3.03414
3.032
3.02986
3.02822
3.02788
3.0269
3.02446
3.02132
3.01805
3.01495
3.01189
3.00911
3.00688
3.00511
3.00373
3.00269
3.0019
3.00133
3.00091
3.00062
3.00041
3.00027
3.00018
3.00012
3.00008
1.34817
1.38239
1.43605
1.49292
1.54948
1.6036
1.6547
1.70454
1.75295
1.80041
1.84669
1.89109
1.93388
1.97539
2.01581
2.05594
2.09561
2.13408
2.17088
2.20487
2.23625
2.26602
2.29381
2.32185
2.34948
2.37644
2.40347
2.42873
2.45241
2.47531
2.49609
2.51599
2.53683
2.5575
2.5786
2.60146
2.62581
2.65076
2.67678
2.70286
2.72869
2.75456
2.78014
2.8047
2.82812
2.85012
2.87088
2.89137
2.91087
2.92689
2.93854
2.94854
2.95814
2.96717
2.97589
2.98435
2.99227
2.99935
3.00567
3.01129
3.01586
3.01939
3.0221
3.0242
3.0262
3.02839
3.02984
3.03128
3.03355
3.03641
3.03852
3.03966
3.04044
3.03966
3.03776
3.03526
3.03266
3.0305
3.02962
3.02925
3.02719
3.02419
3.02081
3.01747
3.01432
3.01122
3.00857
3.00644
3.00477
3.00347
3.00249
3.00176
3.00122
3.00084
3.00057
3.00038
3.00025
3.00016
3.00011
3.00007
1.39859
1.42101
1.45868
1.51093
1.5634
1.61427
1.66387
1.7104
1.75659
1.80233
1.84734
1.89179
1.93494
1.97662
2.01701
2.05607
2.09404
2.13088
2.16658
2.20072
2.23402
2.26567
2.29804
2.32906
2.36094
2.39233
2.42241
2.45239
2.48075
2.50772
2.53497
2.56028
2.58489
2.61047
2.63519
2.6596
2.68517
2.71079
2.73553
2.76124
2.78679
2.81128
2.83566
2.85883
2.88074
2.90087
2.91887
2.93698
2.95478
2.96793
2.97638
2.98403
2.99046
2.99627
3.00175
3.00681
3.0115
3.01549
3.01893
3.02184
3.02419
3.02634
3.0281
3.02932
3.03023
3.0315
3.0328
3.03378
3.03532
3.0376
3.03975
3.04216
3.04283
3.04139
3.03878
3.03577
3.03308
3.0316
3.03141
3.02977
3.02704
3.0237
3.02015
3.01677
3.01357
3.01051
3.008
3.00599
3.00442
3.00321
3.0023
3.00162
3.00113
3.00077
3.00052
3.00035
3.00023
3.00015
3.0001
3.00007
1.46059
1.46751
1.49214
1.53001
1.58025
1.63061
1.67875
1.72629
1.77176
1.81523
1.85739
1.8982
1.93813
1.97756
2.01656
2.05493
2.09267
2.12957
2.16561
2.20071
2.23499
2.26896
2.3026
2.33668
2.3705
2.40413
2.43765
2.46966
2.50157
2.53257
2.56242
2.59313
2.62266
2.65125
2.68044
2.70826
2.73461
2.76184
2.78779
2.81171
2.83592
2.86068
2.88318
2.90543
2.92717
2.94677
2.96376
2.9801
2.99724
3.00954
3.01629
3.0222
3.02657
3.03
3.03284
3.03509
3.03663
3.03748
3.0378
3.03773
3.03749
3.03711
3.03676
3.03653
3.03653
3.03671
3.03693
3.03746
3.03812
3.03924
3.04153
3.04424
3.0446
3.0427
3.03965
3.03633
3.03368
3.03273
3.03185
3.02966
3.02653
3.02292
3.01927
3.01589
3.01265
3.00972
3.00736
3.00549
3.00403
3.00292
3.00208
3.00146
3.00102
3.00069
3.00047
3.00031
3.00021
3.00014
3.00009
3.00006
1.55916
1.52522
1.53563
1.55984
1.59875
1.64665
1.69451
1.74094
1.78583
1.82915
1.86997
1.90891
1.94649
1.98331
2.02008
2.05727
2.09479
2.13203
2.16858
2.20415
2.23907
2.27374
2.30853
2.34368
2.37887
2.4141
2.44866
2.48316
2.51652
2.55
2.58294
2.61518
2.6478
2.67989
2.71081
2.74197
2.77081
2.79796
2.82536
2.85152
2.87488
2.89935
2.92263
2.94388
2.96466
2.98449
3.00031
3.01416
3.02983
3.04252
3.04865
3.05381
3.05743
3.05988
3.0615
3.06224
3.06191
3.06059
3.05859
3.05623
3.05371
3.05118
3.04884
3.04681
3.04509
3.04401
3.04341
3.04297
3.04265
3.0429
3.04443
3.04634
3.04628
3.04409
3.04071
3.03709
3.03433
3.03324
3.03188
3.02921
3.02571
3.02189
3.0182
3.01483
3.01161
3.00888
3.00669
3.00497
3.00364
3.00262
3.00187
3.00131
3.00091
3.00062
3.00042
3.00028
3.00019
3.00012
3.00008
3.00006
1.72535
1.60546
1.58464
1.59931
1.62391
1.66284
1.70883
1.75524
1.8001
1.84244
1.88249
1.92059
1.95734
1.99372
2.03039
2.06719
2.10376
2.13969
2.175
2.20982
2.24461
2.27963
2.31506
2.35079
2.38658
2.42229
2.45765
2.49283
2.52774
2.56243
2.59701
2.63131
2.66477
2.69813
2.7301
2.76119
2.79195
2.82093
2.84811
2.87578
2.90134
2.92478
2.9489
2.97127
2.98988
3.00905
3.02633
3.03941
3.05286
3.06674
3.07344
3.07755
3.08054
3.08225
3.08313
3.08305
3.08171
3.07919
3.07593
3.07235
3.06872
3.06502
3.0611
3.05766
3.05482
3.05262
3.05102
3.04978
3.04864
3.04801
3.04849
3.04917
3.04819
3.04545
3.04172
3.03787
3.0348
3.03356
3.03164
3.02842
3.02455
3.02058
3.01692
3.01358
3.0105
3.00799
3.00599
3.00443
3.00323
3.00232
3.00165
3.00115
3.0008
3.00054
3.00037
3.00025
3.00016
3.00011
3.00007
3.00005
2.08393
1.72635
1.65211
1.64413
1.66263
1.68772
1.7257
1.7693
1.81387
1.85699
1.89743
1.93541
1.97174
2.00719
2.04205
2.07681
2.11164
2.14669
2.18186
2.21711
2.25245
2.28788
2.32343
2.35898
2.3945
2.42995
2.46533
2.50077
2.5362
2.5717
2.60696
2.64185
2.67608
2.70911
2.74156
2.77236
2.80221
2.83167
2.85996
2.88759
2.91429
2.93946
2.96202
2.98465
3.00484
3.02115
3.03799
3.0522
3.06303
3.07647
3.0873
3.09086
3.09396
3.09586
3.09687
3.09688
3.09541
3.0925
3.08882
3.08495
3.08067
3.07587
3.07132
3.06719
3.0636
3.06063
3.05825
3.05627
3.05445
3.05322
3.05289
3.0521
3.04996
3.04641
3.0422
3.03827
3.03513
3.03378
3.031
3.02716
3.02298
3.01897
3.01542
3.01218
3.00936
3.00708
3.00529
3.00389
3.00283
3.00203
3.00143
3.001
3.00069
3.00047
3.00032
3.00021
3.00014
3.00009
3.00006
3.00005
2.49057
2.06463
1.76979
1.7074
1.70607
1.72446
1.75021
1.78792
1.82897
1.87131
1.91203
1.94984
1.98504
2.01881
2.05229
2.08634
2.12114
2.15652
2.19207
2.22754
2.26296
2.29818
2.3332
2.36804
2.4028
2.43759
2.47258
2.50779
2.54324
2.57874
2.61403
2.64884
2.68272
2.71567
2.74738
2.77819
2.80791
2.83682
2.86513
2.89193
2.91804
2.9432
2.96626
2.98712
3.00699
3.02447
3.03866
3.05318
3.06502
3.07425
3.08617
3.09383
3.09624
3.0986
3.10001
3.10047
3.09946
3.09686
3.09357
3.08996
3.0857
3.08103
3.07659
3.07253
3.06891
3.06581
3.06316
3.06071
3.05864
3.05733
3.05591
3.05384
3.05058
3.04637
3.04187
3.03805
3.03564
3.03347
3.02964
3.02526
3.02096
3.01708
3.01373
3.01073
3.0082
3.00617
3.00459
3.00336
3.00243
3.00174
3.00122
3.00085
3.00059
3.0004
3.00027
3.00018
3.00012
3.00008
3.00005
3.00004
2.80011
2.4568
2.07643
1.81818
1.76746
1.7676
1.78471
1.80951
1.84584
1.88475
1.92497
1.96346
1.99924
2.03296
2.06586
2.09897
2.13295
2.1678
2.20329
2.23899
2.27437
2.30919
2.34348
2.37742
2.41127
2.44525
2.47957
2.51422
2.5492
2.5842
2.61901
2.65318
2.68652
2.71885
2.75018
2.78066
2.81017
2.839
2.86651
2.89297
2.91786
2.94084
2.96241
2.98201
2.99994
3.01715
3.03202
3.04481
3.05723
3.06726
3.0753
3.08514
3.09012
3.0922
3.09429
3.09533
3.09511
3.09327
3.09061
3.08762
3.08403
3.08015
3.07632
3.07283
3.06968
3.06693
3.06436
3.06222
3.06041
3.05856
3.05627
3.05315
3.04909
3.04464
3.04066
3.03826
3.03592
3.03184
3.02729
3.02279
3.01864
3.01502
3.01195
3.00927
3.00704
3.00527
3.0039
3.00284
3.00205
3.00146
3.00103
3.00071
3.00049
3.00033
3.00023
3.00015
3.0001
3.00007
3.00005
3.00003
2.91781
2.79718
2.50558
2.10145
1.86588
1.82011
1.82554
1.84242
1.86645
1.90073
1.93782
1.97651
2.01327
2.04763
2.08055
2.11322
2.14645
2.18055
2.21533
2.25027
2.28496
2.31914
2.35278
2.38604
2.41922
2.45251
2.48614
2.52007
2.55427
2.58846
2.6224
2.65573
2.68834
2.72007
2.75104
2.78113
2.81034
2.83841
2.86505
2.89009
2.91319
2.9348
2.95451
2.9731
2.99003
3.00535
3.0197
3.03209
3.04295
3.05358
3.06147
3.06873
3.07637
3.07949
3.0818
3.08363
3.08397
3.08324
3.08139
3.07915
3.07659
3.0738
3.07112
3.06857
3.06613
3.0639
3.06214
3.06046
3.05867
3.05645
3.05348
3.04965
3.04579
3.04261
3.04125
3.03777
3.03341
3.02881
3.02428
3.02002
3.01617
3.01286
3.01012
3.0078
3.00588
3.00438
3.00322
3.00234
3.00168
3.00119
3.00084
3.00058
3.0004
3.00027
3.00018
3.00012
3.00008
3.00006
3.00004
3.00003
2.97035
2.91543
2.81086
2.48796
2.17736
1.92658
1.87989
1.88394
1.90015
1.92232
1.95329
1.98885
2.02601
2.06113
2.09413
2.12643
2.15917
2.1928
2.22709
2.26139
2.29519
2.32841
2.36116
2.39367
2.42616
2.45879
2.49167
2.52481
2.55811
2.59134
2.62433
2.65686
2.68885
2.72002
2.75033
2.77959
2.8077
2.83427
2.8593
2.88267
2.90457
2.92494
2.94388
2.96144
2.97746
2.99232
3.00549
3.01764
3.02817
3.0374
3.04581
3.05195
3.05813
3.06373
3.06577
3.06774
3.06902
3.06912
3.06836
3.0672
3.06562
3.06393
3.06226
3.06074
3.05935
3.05812
3.05688
3.05536
3.05346
3.05092
3.04801
3.0455
3.04489
3.04214
3.03837
3.03408
3.02957
3.02509
3.02086
3.01699
3.01357
3.01064
3.00826
3.00633
3.00475
3.00352
3.00258
3.00187
3.00134
3.00095
3.00066
3.00046
3.00032
3.00022
3.00015
3.0001
3.00007
3.00005
3.00003
3.00003
2.9881
2.97337
2.92569
2.82996
2.53937
2.25376
1.99366
1.93775
1.93866
1.95518
1.97591
2.00341
2.03788
2.07211
2.1052
2.13786
2.17082
2.20419
2.23777
2.27121
2.30416
2.33651
2.36852
2.40039
2.43229
2.46431
2.49643
2.52869
2.561
2.59332
2.62551
2.65716
2.688
2.71785
2.74671
2.7745
2.80117
2.82651
2.85042
2.87278
2.89367
2.91307
2.93114
2.94781
2.9632
2.97722
2.99002
3.00156
3.01165
3.02084
3.0285
3.03499
3.04011
3.04531
3.04917
3.05074
3.0526
3.05329
3.05339
3.05308
3.05247
3.05196
3.05128
3.05084
3.05034
3.04965
3.04872
3.04747
3.0458
3.04515
3.04514
3.04346
3.04085
3.03746
3.03352
3.0293
3.02503
3.02091
3.01712
3.01375
3.01087
3.00845
3.00647
3.0049
3.00368
3.00271
3.00198
3.00143
3.00102
3.00072
3.00051
3.00035
3.00024
3.00017
3.00011
3.00008
3.00005
3.00004
3.00003
3.00002
2.99663
2.98996
2.97774
2.93729
2.85631
2.6105
2.34176
2.06782
1.9955
1.98927
2.00677
2.0271
2.05306
2.08541
2.11711
2.14852
2.18053
2.21322
2.24619
2.27901
2.31134
2.34311
2.37447
2.4058
2.43717
2.4686
2.50003
2.53152
2.56312
2.59459
2.62556
2.65563
2.68478
2.71318
2.74076
2.76746
2.79302
2.81723
2.83997
2.86118
2.88097
2.89945
2.91668
2.93266
2.94745
2.96094
2.97326
2.98433
2.99422
3.00284
3.01055
3.01694
3.02196
3.02663
3.03071
3.03321
3.03494
3.03648
3.03725
3.03773
3.03826
3.03863
3.03896
3.03927
3.03937
3.03918
3.03921
3.04049
3.04077
3.04049
3.03948
3.03758
3.03485
3.03148
3.02773
3.02384
3.02003
3.01646
3.01328
3.01053
3.00822
3.00633
3.00482
3.00363
3.00269
3.00198
3.00145
3.00104
3.00074
3.00053
3.00037
3.00026
3.00018
3.00012
3.00008
3.00006
3.00004
3.00003
3.00002
3.00002
2.99897
2.99683
2.99319
2.9805
2.95476
2.88438
2.71662
2.42668
2.15352
2.05074
2.04279
2.06008
2.07971
2.10331
2.13022
2.15882
2.1889
2.2204
2.25267
2.28489
2.31677
2.34814
2.3791
2.40996
2.44093
2.47187
2.50273
2.53349
2.56407
2.59416
2.62352
2.6522
2.68012
2.70733
2.73374
2.75919
2.78348
2.80639
2.82786
2.8479
2.86668
2.88431
2.90085
2.91627
2.93053
2.94359
2.95546
2.96616
2.97572
2.98415
2.99156
2.99795
3.00321
3.00765
3.01207
3.0151
3.0169