/*--------------------------------*- C++ -*----------------------------------*\
| =========                 |                                                 |
| \\      /  F ield         | OpenFOAM: The Open Source CFD Toolbox           |
|  \\    /   O peration     | Version:  2112                                  |
|   \\  /    A nd           | Website:  www.openfoam.com                      |
|    \\/     M anipulation  |                                                 |
\*---------------------------------------------------------------------------*/
FoamFile
{
    version     2.0;
    format      ascii;
    arch        "LSB;label=32;scalar=64";
    class       volScalarField;
    location    "0.5";
    object      p;
}
// * * * * * * * * * * * * * * * * * * * * * * * * * * * * * * * * * * * * * //

dimensions      [1 -1 -2 0 0 0 0];

internalField   nonuniform List<scalar> 
5250
(
1
1
1.00001
1.00002
1.00003
1.0001
1.00021
1.00061
1.00124
1.00373
1.00734
1.02414
1.04312
1.16953
1.30945
2.27234
4.20038
11.0221
12.65
11.8585
11.8004
12.0372
12.3568
12.4207
12.56
1
1
1.00001
1.00002
1.00003
1.0001
1.0002
1.0006
1.00122
1.00366
1.00722
1.02371
1.04233
1.1665
1.30296
2.25224
4.13894
10.8859
12.6612
11.8507
11.7912
12.0293
12.3526
12.4181
12.5574
1
1
1.00001
1.00002
1.00003
1.0001
1.0002
1.00058
1.00118
1.00354
1.00698
1.02286
1.04079
1.16017
1.28994
2.20473
4.00847
10.5709
12.6817
11.8288
11.7544
11.9896
12.3169
12.3831
12.5234
1
1
1.00001
1.00002
1.00003
1.00009
1.00019
1.00056
1.00113
1.00337
1.00665
1.02164
1.03868
1.15097
1.27152
2.12838
3.81517
10.0627
12.7145
11.8016
11.6907
11.9169
12.2462
12.3122
12.4535
1
1
1
1.00001
1.00003
1.00009
1.00018
1.00052
1.00107
1.00316
1.00626
1.02013
1.03616
1.13931
1.25013
2.02793
3.56458
9.3554
12.7541
11.779
11.6078
11.8168
12.1456
12.2086
12.3475
1
1
1
1.00001
1.00003
1.00008
1.00017
1.00049
1.001
1.00294
1.00587
1.01838
1.03369
1.12492
1.22812
1.9036
3.27246
8.43319
12.7646
11.7524
11.5087
11.6856
11.9972
12.0545
12.1896
1
1
1
1.00001
1.00003
1.00007
1.00015
1.00045
1.00092
1.00269
1.00543
1.01647
1.03196
1.10745
1.2092
1.76188
2.94612
7.29231
12.7111
11.7304
11.3939
11.5215
11.7878
11.8319
11.9546
1
1
1
1.00001
1.00002
1.00007
1.00014
1.0004
1.00082
1.0024
1.00489
1.01467
1.02924
1.09342
1.18742
1.64736
2.60787
6.03771
12.4859
11.6674
11.2559
11.3192
11.5005
11.5178
11.6016
1
1
1
1.00001
1.00002
1.00006
1.00012
1.00034
1.0007
1.00207
1.00422
1.01271
1.02521
1.08207
1.15723
1.56862
2.35826
5.28743
11.7926
11.4955
11.0546
11.0385
11.1066
11.0645
11.0384
1
1
1
1.00001
1.00002
1.00005
1.0001
1.00028
1.00058
1.00173
1.00351
1.01078
1.02062
1.07114
1.12973
1.48666
2.14602
4.63279
10.7174
11.1364
10.8856
10.6754
10.6115
10.4201
10.0649
1
1
1
1
1.00001
1.00003
1.00008
1.00016
1.00052
1.00094
1.00342
1.00573
1.02307
1.03785
1.15629
1.28421
2.14481
3.82185
9.42822
10.9079
10.6553
10.2604
9.98751
9.389
7.80772
1
1
1
1
1.00001
1.00003
1.00006
1.00017
1.00034
1.00107
1.00198
1.00713
1.01207
1.04873
1.08052
1.33609
1.71063
3.41802
7.78596
10.7326
10.4443
9.86383
9.37592
8.55952
6.90781
1
1
1
1
1.00001
1.00002
1.00005
1.00015
1.0003
1.0009
1.00185
1.00557
1.0113
1.03516
1.06946
1.23407
1.52382
2.71195
5.8614
10.4259
10.1794
9.56097
8.89693
8.01746
6.64357
1
1
1
1
1.00001
1.00002
1.00004
1.00011
1.00023
1.00068
1.0014
1.00419
1.00834
1.02689
1.04926
1.18444
1.34879
2.32749
4.27928
9.67135
9.68189
9.3198
8.56295
7.67714
6.55836
1
1
1
1
1
1.00001
1.00003
1.00009
1.00018
1.00052
1.00107
1.00317
1.00626
1.02021
1.03599
1.13851
1.24577
2.00383
3.38227
7.97325
9.27173
9.00965
8.35231
7.46732
6.50288
1
1
1
1
1
1.00001
1.00002
1.00006
1.00013
1.00039
1.0008
1.00237
1.00482
1.01466
1.02874
1.09618
1.18426
1.67893
2.6409
5.94972
8.93865
8.77414
8.25035
7.36038
6.48434
1
1
1
1
1
1.00001
1.00002
1.00005
1.00009
1.00027
1.00056
1.00166
1.00339
1.01023
1.02049
1.06597
1.12815
1.45013
2.04733
4.10152
8.20948
8.40162
8.09887
7.36619
6.49494
1
1
1
1
1
1.00001
1.00001
1.00003
1.00006
1.00019
1.00039
1.00114
1.00233
1.00703
1.01387
1.04555
1.08287
1.30956
1.66552
3.16591
6.62771
8.06751
7.88838
7.35688
6.53463
1
1
1
1
1
1
1.00001
1.00002
1.00004
1.00012
1.00025
1.00073
1.00149
1.00446
1.00894
1.02831
1.05345
1.18758
1.38539
2.27103
4.16489
7.5181
7.58019
7.31295
6.65635
1
1
1
1
1
1
1.00001
1.00001
1.00003
1.00006
1.00019
1.00038
1.00113
1.00224
1.00708
1.01272
1.0475
1.08095
1.31688
1.66865
3.11401
6.22236
7.30639
7.18892
6.77321
1
1
1
1
1
1
1
1.00001
1.00002
1.00004
1.00011
1.00024
1.0007
1.00143
1.00429
1.00872
1.02685
1.05263
1.17491
1.36738
2.16729
3.83435
6.72627
6.94149
6.73443
1
1
1
1
1
1
1
1
1.00001
1.00003
1.00006
1.00016
1.00034
1.00101
1.00206
1.00631
1.01228
1.04094
1.07621
1.26925
1.59655
2.76873
5.33423
6.61945
6.57836
1
1
1
1
1
1
1
1
1.00001
1.00001
1.00004
1.00008
1.00024
1.00049
1.00146
1.003
1.0091
1.01854
1.05711
1.12033
1.36942
1.86349
3.2582
5.90759
6.36461
1
1
1
1
1
1
1
1
1
1.00001
1.00002
1.00005
1.00011
1.00032
1.00066
1.00197
1.00396
1.01235
1.02314
1.08086
1.15173
1.5302
2.2078
4.24174
5.9248
1
1
1
1
1
1
1
1
1
1
1.00001
1.00003
1.00006
1.00017
1.00036
1.00106
1.00217
1.00656
1.01322
1.04139
1.08408
1.26814
1.61318
2.68107
4.89546
1
1
1
1
1
1
1
1
1
1
1
1.00001
1.00003
1.00009
1.00018
1.00052
1.00107
1.00324
1.00653
1.02052
1.03943
1.13345
1.26706
1.8221
2.81897
1
1
1
1
1
1
1
1
1
1
1
1.00001
1.00002
1.00003
1.0001
1.00021
1.00062
1.00128
1.00388
1.00796
1.02426
1.04988
1.15415
1.34486
1.96327
1
1
1
1
1
1
1
1
1
1
1
1
1.00001
1.00002
1.00005
1.0001
1.0003
1.00062
1.00186
1.00377
1.01161
1.02229
1.07551
1.14392
1.48316
1
1
1
1
1
1
1
1
1
1
1
1
1
1.00001
1.00002
1.00004
1.00013
1.00028
1.00083
1.0017
1.00515
1.0106
1.03246
1.06897
1.20871
1
1
1
1
1
1
1
1
1
1
1
1
1
1
1.00001
1.00002
1.00005
1.00014
1.00029
1.00087
1.00179
1.00548
1.01135
1.03481
1.07535
1
1
1
1
1
1
1
1
1
1
1
1
1
1
1
1.00001
1.00002
1.00006
1.00012
1.00035
1.00072
1.0022
1.00447
1.01413
1.0273
1
1
1
1
1
1
1
1
1
1
1
1
1
1
1
1
1.00001
1.00002
1.00004
1.00013
1.00027
1.00084
1.00174
1.00536
1.01116
1
1
1
1
1
1
1
1
1
1
1
1
1
1
1
1
1
1.00001
1.00002
1.00004
1.00012
1.00024
1.00074
1.00154
1.00478
1
1
1
1
1
1
1
1
1
1
1
1
1
1
1
1
1
1
1
1.00002
1.00003
1.0001
1.0002
1.00063
1.00131
1
1
1
1
1
1
1
1
1
1
1
1
1
1
1
1
1
1
1
1
1.00001
1.00003
1.00006
1.0002
1.00042
1
1
1
1
1
1
1
1
1
1
1
1
1
1
1
1
1
1
1
1
1
1.00001
1.00002
1.00006
1.00012
1
1
1
1
1
1
1
1
1
1
1
1
1
1
1
1
1
1
1
1
1
1
1.00001
1.00001
1.00004
1
1
1
1
1
1
1
1
1
1
1
1
1
1
1
1
1
1
1
1
1
1
1
1
1.00001
1
1
1
1
1
1
1
1
1
1
1
1
1
1
1
1
1
1
1
1
1
1
1
1
1
1
1
1
1
1
1
1
1
1
1
1
1
1
1
1
1
1
1
1
1
1
1
1
1
1
1
1
1
1
1
1
1
1
1
1
1
1
1
1
1
1
1
1
1
1
1
1
1
1
1
1
1
1
1
1
1
1
1
1
1
1
1
1
1
1
1
1
1
1
1
1
1
1
1
1
1
1
1
1
1
1
1
1
1
1
1
1
1
1
1
1
1
1
1
1
1
1
1
1
1
1
1
1
1
1
1
1
1
1
1
1
1
1
1
1
1
1
1
1
1
1
1
1
1
1
1
1
1
1
1
1
1
1
1
1
1
1
1
1
1
1
1
1
1
1
1
1
1
1
1
1
1
1
1
1
1
1
1
1
1
1
1
1
1
1
1
1
1
1
1
1
1
1
1
1
1
1
1
1
1
1
1
1
1
1
1
1
1
1
1
1
1
1
1
1
1
1
1
1
1
1
1
1
1
1
1
1
1
1
1
1
1
1
1
1
1
1
1
1
1
1
1
1
1
1
1
1
1
1
1
1
1
1
1
1
1
1
1
1
1
1
1
1
1
1
1
1
1
1
1
1
1
1
1
1
1
1
1
1
1
1
1
1
1
1
1
1
1
1
1
1
1
1
1
1
3.18896
1.59387
1.04877
0.878783
0.889308
0.93168
1.02493
1.12101
1.15386
1.1506
1.1388
1.11239
1.08066
1.05982
1.04768
1.03769
1.02798
1.01707
1.00463
0.991045
0.976915
0.962846
0.94929
0.936492
0.924532
0.913435
0.90323
0.893853
0.885303
0.877788
0.871157
0.865134
0.860449
0.856977
0.853741
0.851009
0.849658
0.849325
0.849378
0.849599
0.850263
0.851706
0.853802
0.857711
0.862858
0.866726
0.871463
0.877004
0.883271
0.890166
0.897561
0.905298
0.913194
0.921024
0.928561
0.935615
0.942028
0.947742
0.952822
0.957439
0.961835
0.966267
0.970967
0.976117
0.981801
0.987989
0.994553
1.00128
1.00789
1.01402
1.01934
1.02357
1.02655
1.02829
1.029
1.02912
1.02909
1.02891
1.02837
1.02688
1.0236
1.01974
1.01544
1.01164
1.00858
1.00618
1.00434
1.00299
1.00199
1.00125
1.00081
1.00052
1.00032
1.00019
1.00011
1.00006
1.00003
1.00001
1.00001
0.999993
3.8676
2.37037
1.71229
1.41808
1.27412
1.1785
1.11334
1.08686
1.08783
1.09171
1.10002
1.10002
1.09706
1.08825
1.0695
1.04699
1.02764
1.01184
0.998524
0.986421
0.974652
0.962755
0.950607
0.938334
0.926191
0.914516
0.903625
0.893681
0.884757
0.877012
0.87043
0.864679
0.859917
0.856553
0.853796
0.851287
0.849542
0.849307
0.849375
0.849599
0.850237
0.851704
0.853475
0.856778
0.862404
0.866936
0.871196
0.876595
0.882787
0.889601
0.896898
0.904529
0.912311
0.920048
0.927532
0.934551
0.940979
0.946769
0.951968
0.956716
0.961234
0.965778
0.970571
0.975777
0.981491
0.987696
0.994275
1.00101
1.00763
1.01378
1.01913
1.02339
1.02637
1.02813
1.02889
1.02905
1.02903
1.02889
1.0284
1.02707
1.02414
1.01971
1.01529
1.01159
1.00859
1.00622
1.00439
1.00296
1.00191
1.00127
1.00082
1.00052
1.00032
1.00019
1.00011
1.00006
1.00003
1.00001
1.00001
0.999991
4.67194
3.29019
2.42213
1.87249
1.5162
1.28718
1.14392
1.06045
1.04062
1.04277
1.04942
1.06291
1.06855
1.06741
1.06314
1.05342
1.03451
1.01493
0.997863
0.983325
0.970461
0.958383
0.946641
0.935072
0.92366
0.912598
0.902121
0.892391
0.883549
0.87575
0.869062
0.863358
0.858615
0.855029
0.852388
0.850085
0.848599
0.848195
0.848278
0.848526
0.849233
0.850692
0.852783
0.856984
0.861451
0.865699
0.870621
0.876239
0.882504
0.889336
0.896633
0.904258
0.912044
0.919797
0.927307
0.93438
0.940877
0.94674
0.95201
0.956825
0.961392
0.965961
0.970778
0.976021
0.981771
0.988016
0.994626
1.00138
1.008
1.01414
1.01947
1.02369
1.02662
1.02832
1.02905
1.0292
1.02918
1.02905
1.02856
1.02725
1.02424
1.01946
1.01513
1.01149
1.00852
1.00616
1.00433
1.00289
1.00189
1.00126
1.00082
1.00052
1.00032
1.00019
1.00011
1.00006
1.00003
1.00001
1
0.999991
5.09245
3.84589
2.92981
2.29407
1.86229
1.56711
1.36765
1.23904
1.14906
1.09301
1.06208
1.04993
1.04792
1.04789
1.04745
1.04556
1.0409
1.03078
1.01385
0.994624
0.976824
0.961191
0.947511
0.935225
0.923952
0.913433
0.903458
0.894021
0.885232
0.877297
0.87031
0.864331
0.859374
0.855427
0.852483
0.850215
0.848605
0.848211
0.848251
0.848441
0.849204
0.850305
0.853354
0.856869
0.860921
0.8655
0.870606
0.876294
0.882579
0.889415
0.896706
0.904317
0.912079
0.919793
0.927252
0.934272
0.94073
0.946579
0.95187
0.956741
0.961393
0.966066
0.970996
0.976356
0.982232
0.988596
0.995329
1.00219
1.00889
1.01506
1.02038
1.02455
1.02743
1.02905
1.02968
1.02978
1.02975
1.02957
1.02902
1.0274
1.02422
1.0193
1.01501
1.01141
1.00847
1.00612
1.00424
1.0028
1.00189
1.00126
1.00082
1.00052
1.00032
1.00019
1.00011
1.00006
1.00003
1.00001
1.00001
0.99999
5.33521
4.24351
3.36197
2.69814
2.21154
1.85728
1.5969
1.40497
1.26336
1.16181
1.09268
1.04728
1.02578
1.01594
1.01384
1.01317
1.01167
1.00857
1.00295
0.992024
0.977916
0.96278
0.948049
0.934086
0.921448
0.910281
0.900103
0.890724
0.88221
0.874631
0.867968
0.862304
0.857551
0.853634
0.850737
0.84851
0.846873
0.846461
0.846516
0.846773
0.847473
0.848921
0.851809
0.855424
0.859647
0.864417
0.869744
0.875643
0.882105
0.889066
0.896423
0.904052
0.911793
0.919453
0.926832
0.93376
0.94013
0.945917
0.951191
0.956079
0.960776
0.965509
0.970516
0.975983
0.982
0.988525
0.995436
1.00246
1.00931
1.01558
1.02096
1.02512
1.02798
1.02957
1.03019
1.03026
1.03022
1.03003
1.02923
1.02758
1.02409
1.01907
1.01479
1.01122
1.00831
1.00598
1.00411
1.00273
1.00186
1.00124
1.0008
1.00051
1.00031
1.00018
1.0001
1.00006
1.00003
1.00001
1
0.999991
5.49764
4.53994
3.7162
3.05559
2.54243
2.14876
1.84769
1.61779
1.44193
1.3075
1.20512
1.1315
1.07634
1.03808
1.01533
1.00294
0.996457
0.993655
0.991967
0.988601
0.981821
0.971185
0.958179
0.944386
0.930362
0.916708
0.904357
0.893384
0.883971
0.876012
0.869235
0.863585
0.858882
0.854972
0.852048
0.849775
0.848044
0.847452
0.84747
0.847666
0.848253
0.849571
0.852256
0.855774
0.859889
0.864604
0.869926
0.875832
0.882293
0.889237
0.896549
0.904114
0.911789
0.919386
0.926704
0.93357
0.939874
0.945608
0.950879
0.955785
0.960528
0.965306
0.970358
0.975892
0.982011
0.988673
0.99572
1.00288
1.00983
1.01619
1.02161
1.02581
1.02867
1.03021
1.03075
1.03078
1.03064
1.03038
1.02975
1.02794
1.0243
1.01903
1.01465
1.01108
1.00819
1.00585
1.00397
1.0027
1.00185
1.00123
1.0008
1.0005
1.00031
1.00018
1.00011
1.00006
1.00003
1.00001
1.00001
0.999991
5.61638
4.77094
4.01397
3.37381
2.8518
2.43365
2.1019
1.83894
1.63056
1.46498
1.3333
1.22964
1.14811
1.08618
1.04014
1.00765
0.98691
0.974885
0.968217
0.963652
0.95993
0.955392
0.948916
0.940386
0.929783
0.917997
0.906162
0.894601
0.884282
0.875461
0.867875
0.861527
0.856403
0.852244
0.849234
0.847043
0.845416
0.844993
0.845035
0.845302
0.846022
0.847555
0.850393
0.853967
0.858243
0.863191
0.868785
0.874975
0.881702
0.888899
0.896434
0.904163
0.911961
0.919674
0.927106
0.93408
0.940472
0.946252
0.951557
0.956688
0.961643
0.966548
0.971688
0.977302
0.983458
0.990135
0.997182
1.00433
1.01123
1.01752
1.02281
1.02682
1.02943
1.03076
1.03114
1.03126
1.03136
1.03116
1.03038
1.0283
1.02399
1.01869
1.01437
1.01084
1.00797
1.00564
1.00382
1.00264
1.0018
1.00119
1.00077
1.00049
1.0003
1.00018
1.0001
1.00005
1.00003
1.00001
1
0.999991
5.71983
4.95686
4.26051
3.64969
3.13172
2.70154
2.34886
2.0615
1.82775
1.63788
1.48324
1.35789
1.25653
1.17503
1.10966
1.05919
1.02059
0.992071
0.972205
0.959245
0.951013
0.945469
0.940802
0.936199
0.930095
0.922128
0.912778
0.903051
0.89308
0.882988
0.873781
0.865946
0.859538
0.85441
0.850477
0.847797
0.845766
0.84491
0.844912
0.845119
0.845731
0.847076
0.84975
0.853273
0.857551
0.862537
0.868192
0.874459
0.881275
0.888551
0.896169
0.904008
0.911898
0.919714
0.92725
0.934342
0.9409
0.946859
0.952261
0.957515
0.962977
0.968012
0.973294
0.979119
0.985573
0.992576
0.999851
1.00709
1.01395
1.02008
1.0251
1.02874
1.03095
1.03197
1.03248
1.03288
1.0328
1.03245
1.03128
1.02859
1.02342
1.01837
1.01416
1.01066
1.00781
1.00547
1.00374
1.0026
1.00177
1.00118
1.00076
1.00048
1.0003
1.00018
1.0001
1.00006
1.00003
1.00001
1.00001
0.999991
5.85059
5.12857
4.47552
3.89354
3.38618
2.95247
2.58684
2.28143
2.02747
1.81689
1.64247
1.49791
1.37813
1.27884
1.19663
1.12911
1.07411
1.02999
0.995743
0.96992
0.950948
0.937139
0.92755
0.920385
0.914598
0.909205
0.903434
0.897047
0.889834
0.882499
0.875209
0.868144
0.861704
0.856113
0.851437
0.847882
0.845264
0.84342
0.843065
0.843155
0.843561
0.84457
0.846708
0.850274
0.854647
0.859708
0.865435
0.871785
0.87867
0.885993
0.893644
0.901482
0.909385
0.917119
0.924564
0.931845
0.938534
0.944511
0.950152
0.955604
0.961102
0.96712
0.973493
0.979486
0.986135
0.993674
1.00144
1.00903
1.01606
1.02216
1.02702
1.03045
1.03245
1.03349
1.03427
1.03429
1.0341
1.0334
1.03162
1.02784
1.02252
1.01777
1.0137
1.01029
1.00749
1.0052
1.0036
1.00251
1.0017
1.00113
1.00073
1.00046
1.00028
1.00017
1.0001
1.00005
1.00003
1.00001
1
0.999992
5.98969
5.28192
4.66516
4.10837
3.61424
3.18287
2.81132
2.49456
2.22597
1.99912
1.808
1.64699
1.51131
1.39682
1.30027
1.21897
1.15086
1.09409
1.04702
1.00848
0.977732
0.953854
0.935464
0.921558
0.911278
0.903559
0.897447
0.892186
0.887236
0.882291
0.877176
0.871862
0.866531
0.861431
0.856756
0.85275
0.849534
0.847059
0.845732
0.845625
0.845749
0.846234
0.847485
0.850147
0.854187
0.858923
0.864387
0.870546
0.877267
0.884442
0.891916
0.899519
0.907125
0.914886
0.922482
0.929383
0.935815
0.941824
0.947492
0.95305
0.958774
0.964921
0.971637
0.978769
0.985717
0.993473
1.00186
1.00992
1.01724
1.02349
1.02838
1.0318
1.03395
1.03548
1.03582
1.03572
1.03536
1.03428
1.03195
1.02732
1.02202
1.01731
1.0133
1.00996
1.00719
1.00499
1.00351
1.00244
1.00166
1.0011
1.00071
1.00045
1.00028
1.00017
1.0001
1.00005
1.00003
1.00001
1.00001
0.999993
6.21058
5.48199
4.84953
4.30766
3.82537
3.39768
3.02311
2.69826
2.4187
2.17907
1.97439
1.79971
1.65066
1.52328
1.41425
1.32086
1.24081
1.17242
1.11397
1.06443
1.02259
0.987736
0.959021
0.935902
0.917755
0.903374
0.892612
0.884487
0.878347
0.873471
0.869381
0.865832
0.862485
0.859281
0.856198
0.853318
0.850745
0.848666
0.847635
0.84754
0.847655
0.848113
0.849306
0.851844
0.855871
0.860672
0.866394
0.872908
0.879956
0.887371
0.894927
0.902637
0.91062
0.918358
0.925369
0.931866
0.937849
0.943415
0.948694
0.953904
0.959369
0.965356
0.971977
0.979203
0.986667
0.994205
1.00264
1.01086
1.01822
1.02438
1.02921
1.03267
1.03523
1.0365
1.03657
1.03646
1.03601
1.03493
1.03234
1.02733
1.02161
1.01681
1.01282
1.00954
1.00681
1.00476
1.00337
1.00233
1.00158
1.00105
1.00068
1.00043
1.00026
1.00016
1.00009
1.00005
1.00003
1.00001
1.00001
0.999993
6.30267
5.7147
5.06078
4.50233
4.02344
3.60045
3.2251
2.89527
2.60768
2.35797
2.14176
1.95511
1.79406
1.65507
1.53485
1.43082
1.34034
1.26205
1.19391
1.135
1.08392
1.04
1.00241
0.970465
0.943627
0.921683
0.903885
0.889468
0.878745
0.870655
0.864684
0.860255
0.856757
0.853964
0.851815
0.850067
0.848598
0.847855
0.847742
0.847829
0.848188
0.849214
0.851463
0.855079
0.859319
0.864446
0.870739
0.877939
0.885535
0.89332
0.901506
0.910241
0.918627
0.92633
0.933455
0.939943
0.945796
0.951148
0.95621
0.9612
0.966237
0.971679
0.977782
0.98458
0.991774
0.998982
1.00686
1.0147
1.02162
1.02729
1.03168
1.03519
1.03731
1.03786
1.03792
1.03785
1.03745
1.03621
1.03314
1.02711
1.02116
1.01637
1.01244
1.00919
1.00652
1.00459
1.00325
1.00225
1.00152
1.00101
1.00065
1.00041
1.00025
1.00015
1.00009
1.00005
1.00003
1.00001
1.00001
0.999994
6.24914
5.9135
5.2877
4.71041
4.21718
3.79131
3.41568
3.08252
2.78986
2.53329
2.30864
2.11236
1.94084
1.79127
1.66094
1.54715
1.44745
1.36012
1.28346
1.21608
1.15681
1.10478
1.05916
1.01942
0.984921
0.955309
0.929999
0.909019
0.891442
0.877216
0.866423
0.858165
0.852025
0.847488
0.84417
0.841769
0.839884
0.839385
0.839464
0.839825
0.84072
0.842613
0.84588
0.850344
0.855469
0.861521
0.869086
0.877493
0.885882
0.894663
0.904544
0.914225
0.923208
0.931638
0.939301
0.946184
0.952283
0.957782
0.96295
0.967995
0.973336
0.979149
0.985515
0.992529
0.99972
1.00668
1.01401
1.02128
1.02763
1.03264
1.03658
1.03928
1.04015
1.04041
1.04041
1.04028
1.03955
1.03727
1.03228
1.02571
1.02029
1.01572
1.0119
1.00872
1.00616
1.00438
1.00309
1.00213
1.00143
1.00095
1.00061
1.00039
1.00024
1.00014
1.00008
1.00005
1.00003
1.00001
1.00001
0.999995
6.06969
5.90413
5.51518
4.93734
4.42413
3.98557
3.60471
3.26987
2.97079
2.70637
2.4739
2.26884
2.08863
1.9302
1.79068
1.66799
1.55999
1.46457
1.38009
1.30504
1.23843
1.17916
1.12669
1.08016
1.03915
1.00317
0.971634
0.944371
0.920713
0.900695
0.883423
0.869178
0.85794
0.849061
0.842313
0.837283
0.83389
0.831841
0.831017
0.831061
0.831389
0.832319
0.834281
0.838187
0.84333
0.849108
0.856653
0.864958
0.872855
0.881889
0.892352
0.902229
0.911961
0.921407
0.930379
0.9388
0.946655
0.954093
0.961275
0.968282
0.975363
0.982615
0.990112
0.997891
1.00604
1.01395
1.02146
1.02863
1.0348
1.03957
1.04304
1.04428
1.04449
1.04447
1.04432
1.0436
1.0415
1.03689
1.03049
1.02467
1.01952
1.01508
1.01136
1.00826
1.00585
1.00419
1.00294
1.00203
1.00137
1.0009
1.00058
1.00037
1.00023
1.00014
1.00008
1.00005
1.00003
1.00001
1.00001
0.999996
5.76812
5.76158
5.57995
5.18233
4.65235
4.18943
3.79449
3.44986
3.14749
2.87827
2.63835
2.426
2.23815
2.07183
1.92443
1.7937
1.67764
1.57437
1.48234
1.40016
1.32674
1.2611
1.20244
1.15008
1.10336
1.06179
1.02488
0.99216
0.963283
0.937896
0.915522
0.896108
0.878782
0.864326
0.852617
0.843303
0.836039
0.830704
0.827314
0.82538
0.8254
0.825709
0.826658
0.828731
0.832299
0.836168
0.841199
0.847683
0.853507
0.860765
0.870051
0.878986
0.888299
0.897897
0.907615
0.917376
0.927173
0.937046
0.94701
0.95705
0.967176
0.977374
0.987624
0.997853
1.00774
1.01709
1.02582
1.03352
1.04008
1.04512
1.04779
1.04819
1.04818
1.04801
1.04739
1.04569
1.04184
1.03595
1.02955
1.02373
1.01865
1.01433
1.01072
1.00774
1.00553
1.00395
1.00277
1.0019
1.00128
1.00084
1.00055
1.00035
1.00021
1.00013
1.00008
1.00004
1.00002
1.00001
1.00001
0.999997
5.05947
5.53858
5.49689
5.30569
4.90048
4.42441
4.00495
3.64355
3.32783
3.04974
2.80418
2.58544
2.39025
2.2162
2.06126
1.92299
1.79941
1.6888
1.58974
1.50088
1.42115
1.34956
1.28524
1.22751
1.17567
1.12921
1.08755
1.05027
1.01686
0.987005
0.960323
0.936466
0.915337
0.896535
0.879576
0.865226
0.853626
0.844218
0.837078
0.831688
0.828363
0.825957
0.825965
0.826293
0.827223
0.829389
0.832966
0.837965
0.842825
0.847754
0.855116
0.862272
0.869951
0.878338
0.887339
0.896955
0.907269
0.918308
0.929953
0.942114
0.95464
0.967389
0.980154
0.992727
1.00493
1.01623
1.02635
1.03518
1.04245
1.04771
1.05021
1.05052
1.05044
1.0501
1.04909
1.0467
1.04178
1.03529
1.02864
1.02277
1.01776
1.01356
1.01008
1.00725
1.00522
1.00373
1.0026
1.00178
1.0012
1.00079
1.00051
1.00033
1.0002
1.00012
1.00007
1.00004
1.00002
1.00001
1.00001
0.999998
3.30579
4.98223
5.30675
5.24892
5.0539
4.65897
4.23418
3.85389
3.52159
3.23048
2.97316
2.74542
2.54347
2.36341
2.20145
2.05598
1.92528
1.80785
1.70222
1.60707
1.52132
1.44401
1.37432
1.31152
1.25493
1.20397
1.15804
1.11664
1.07926
1.04548
1.01501
0.987408
0.962686
0.940343
0.920712
0.903019
0.8873
0.873743
0.862651
0.85379
0.847023
0.841705
0.838341
0.836011
0.835372
0.835545
0.83621
0.837641
0.840594
0.843466
0.848573
0.854588
0.861153
0.868702
0.877109
0.88636
0.896569
0.907812
0.919946
0.932789
0.94609
0.959806
0.973934
0.987926
1.00137
1.01388
1.02505
1.03463
1.0425
1.04808
1.0507
1.05109
1.05102
1.05066
1.04959
1.04702
1.04163
1.03439
1.02751
1.02167
1.01678
1.01273
1.00938
1.00675
1.00488
1.00346
1.00241
1.00165
1.00111
1.00073
1.00047
1.0003
1.00019
1.00011
1.00007
1.00004
1.00002
1.00001
1.00001
0.999998
2.06082
3.64503
4.86973
5.09033
5.0213
4.83329
4.45804
4.07726
3.72962
3.42219
3.15167
2.91296
2.70112
2.51238
2.34399
2.19271
2.05623
1.93248
1.82042
1.71894
1.62722
1.54431
1.4694
1.40174
1.34063
1.28542
1.23548
1.19025
1.14921
1.11192
1.07802
1.0472
1.01928
0.994097
0.971484
0.951373
0.933576
0.917925
0.904092
0.89148
0.881515
0.87327
0.866756
0.861873
0.858284
0.855989
0.854696
0.854773
0.855157
0.85594
0.857785
0.861345
0.866011
0.87188
0.878856
0.886922
0.896246
0.906969
0.918771
0.931308
0.944634
0.958845
0.973328
0.987724
1.00158
1.01446
1.02589
1.03564
1.04346
1.04882
1.05115
1.05167
1.05162
1.05129
1.05024
1.04739
1.04152
1.03327
1.02628
1.02052
1.01578
1.01189
1.0087
1.00628
1.00452
1.0032
1.00222
1.00151
1.00102
1.00067
1.00043
1.00028
1.00017
1.00011
1.00006
1.00004
1.00002
1.00001
1.00001
0.999999
1.47198
2.23515
3.77117
4.72318
4.88226
4.81205
4.63438
4.29251
3.94937
3.62908
3.34295
3.09057
2.8677
2.66992
2.49304
2.33386
2.19001
2.05988
1.94208
1.83533
1.73831
1.65026
1.57045
1.49813
1.43264
1.3733
1.31946
1.27053
1.22598
1.18534
1.14824
1.11442
1.08362
1.05574
1.03056
1.00807
0.988027
0.970339
0.95467
0.941449
0.929286
0.918735
0.909301
0.901639
0.895576
0.890618
0.887243
0.88482
0.883439
0.883482
0.883742
0.884795
0.886957
0.891113
0.896617
0.903342
0.911437
0.921066
0.931767
0.943358
0.955938
0.969355
0.983066
0.996688
1.00977
1.02183
1.03244
1.04137
1.04812
1.05216
1.05395
1.05431
1.05424
1.05382
1.05239
1.04847
1.04036
1.03167
1.02484
1.01929
1.01475
1.01103
1.00803
1.0058
1.00415
1.00292
1.00202
1.00137
1.00092
1.00061
1.00039
1.00025
1.00016
1.0001
1.00006
1.00003
1.00002
1.00001
1.00001
0.999999
1.22196
1.50424
2.26137
3.79255
4.54216
4.68217
4.61704
4.45571
4.15878
3.84824
3.55011
3.28163
3.04424
2.83459
2.64829
2.48123
2.33036
2.1936
2.06929
1.95631
1.85384
1.76086
1.67645
1.59979
1.53015
1.46683
1.40921
1.35668
1.30871
1.26483
1.22467
1.18793
1.1544
1.12392
1.09636
1.07162
1.04951
1.02989
1.01258
0.997376
0.983953
0.972167
0.962141
0.953094
0.94526
0.938474
0.932457
0.928082
0.924837
0.922496
0.922199
0.922339
0.923053
0.924712
0.928356
0.933716
0.940475
0.948723
0.958169
0.968441
0.979751
0.991707
1.00399
1.01597
1.02737
1.03759
1.04645
1.05329
1.05787
1.06034
1.06123
1.06129
1.06109
1.06
1.05601
1.04713
1.03744
1.0298
1.02341
1.01809
1.01374
1.01021
1.00741
1.00533
1.00379
1.00266
1.00183
1.00124
1.00083
1.00055
1.00035
1.00023
1.00014
1.00009
1.00005
1.00003
1.00002
1.00001
1.00001
1
1.09171
1.18187
1.53857
2.17434
3.65711
4.3542
4.48966
4.43471
4.29874
4.0502
3.7679
3.48867
3.23553
3.01143
2.81329
2.63664
2.47764
2.33366
2.2029
2.08403
1.97596
1.87766
1.78826
1.70695
1.63296
1.56559
1.50417
1.44806
1.39673
1.34967
1.3065
1.26695
1.23083
1.19796
1.16819
1.14136
1.11731
1.09581
1.07666
1.05965
1.04461
1.03141
1.01977
1.00956
1.00061
0.992922
0.98649
0.981026
0.976723
0.973259
0.970965
0.970566
0.970644
0.971179
0.972638
0.975933
0.981521
0.98836
0.996386
1.00529
1.01479
1.02479
1.03468
1.04427
1.05304
1.06066
1.06658
1.07082
1.07317
1.0741
1.07418
1.07385
1.07151
1.06485
1.05337
1.04395
1.03569
1.0284
1.02216
1.01697
1.01279
1.00947
1.00685
1.0049
1.00347
1.00242
1.00166
1.00113
1.00075
1.00049
1.00032
1.0002
1.00013
1.00008
1.00005
1.00003
1.00002
1.00001
1.00001
1
1.03407
1.07417
1.21311
1.47455
2.14385
3.46762
4.14339
4.30311
4.26639
4.16014
3.9624
3.70246
3.44099
3.2031
2.99167
2.80354
2.63474
2.48222
2.34395
2.21844
2.10443
2.00077
1.90644
1.8205
1.74214
1.67061
1.60525
1.5454
1.49052
1.44016
1.39403
1.35175
1.31304
1.27775
1.2457
1.2167
1.19057
1.16715
1.14623
1.12757
1.11091
1.09606
1.08285
1.07116
1.06088
1.05191
1.04421
1.03768
1.03243
1.02844
1.02531
1.02394
1.02395
1.02422
1.02503
1.0269
1.03079
1.03597
1.04221
1.04903
1.0565
1.06408
1.07155
1.07842
1.08427
1.08881
1.09187
1.09349
1.09395
1.09374
1.09187
1.08556
1.07328
1.06259
1.05249
1.04309
1.03461
1.02725
1.02106
1.01599
1.01194
1.00879
1.00635
1.00451
1.00318
1.00221
1.00151
1.00102
1.00068
1.00045
1.00029
1.00019
1.00012
1.00007
1.00004
1.00003
1.00002
1.00001
1.00001
1
1.01003
1.03063
1.06732
1.19185
1.42662
2.02161
3.20272
3.92043
4.12248
4.10612
4.03064
3.88344
3.64232
3.40226
3.18224
2.98359
2.80422
2.64187
2.49477
2.36152
2.24073
2.13106
2.03129
1.94036
1.85734
1.78143
1.71193
1.64827
1.58996
1.53648
1.48728
1.44205
1.40062
1.36283
1.3285
1.29742
1.26935
1.24401
1.22118
1.20064
1.18218
1.16564
1.1508
1.13759
1.12586
1.11557
1.1066
1.09895
1.09263
1.08759
1.08382
1.08117
1.08037
1.08041
1.08074
1.08165
1.08374
1.08758
1.09223
1.0974
1.10276
1.10791
1.11274
1.11658
1.11938
1.1211
1.12173
1.12142
1.11896
1.11096
1.099
1.08731
1.07532
1.06354
1.05244
1.04237
1.03356
1.02611
1.01996
1.01502
1.01114
1.00813
1.00586
1.00415
1.0029
1.00201
1.00137
1.00093
1.00062
1.0004
1.00026
1.00017
1.00011
1.00007
1.00004
1.00002
1.00001
1.00001
1.00001
1
1.00408
1.00854
1.02619
1.05728
1.16373
1.36193
1.86976
2.8841
3.67691
3.9444
3.95599
3.90292
3.78147
3.5794
3.37209
3.1736
2.98768
2.81598
2.65911
2.51667
2.38772
2.27089
2.16479
2.06819
1.98004
1.89944
1.82569
1.7581
1.696
1.63882
1.58623
1.53804
1.49398
1.45372
1.41701
1.38363
1.35334
1.3259
1.30106
1.27862
1.25833
1.24003
1.22355
1.20876
1.19554
1.18387
1.17362
1.16482
1.15735
1.15134
1.14648
1.143
1.14083
1.13999
1.14003
1.14033
1.14114
1.14299
1.14603
1.14941
1.15228
1.15499
1.15685
1.15786
1.158
1.15689
1.15274
1.14312
1.13234
1.11969
1.10574
1.09131
1.07712
1.06379
1.0517
1.04109
1.03209
1.02465
1.01864
1.0139
1.01021
1.0074
1.0053
1.00374
1.00261
1.0018
1.00122
1.00082
1.00055
1.00036
1.00023
1.00015
1.00009
1.00006
1.00004
1.00002
1.00001
1.00001
1.00001
1
1.00129
1.00266
1.00829
1.01726
1.05301
1.11247
1.30936
1.66733
2.49423
3.44789
3.76228
3.8151
3.77392
3.6732
3.52095
3.34991
3.17323
3.00028
2.83682
2.68614
2.54864
2.42369
2.31018
2.20685
2.11265
2.02651
1.94764
1.87526
1.80875
1.74769
1.69181
1.64055
1.59352
1.55048
1.51117
1.47535
1.44275
1.41312
1.38619
1.36175
1.33957
1.31947
1.30128
1.28489
1.27018
1.2571
1.24555
1.2355
1.22689
1.21971
1.21381
1.20923
1.20593
1.20388
1.20221
1.2016
1.20179
1.2023
1.20323
1.20395
1.20433
1.20409
1.20288
1.19941
1.19336
1.18495
1.17375
1.15992
1.14408
1.12702
1.10959
1.0926
1.07666
1.06215
1.04942
1.03864
1.02974
1.02255
1.01687
1.01245
1.00908
1.00653
1.00465
1.00327
1.00227
1.00156
1.00106
1.00071
1.00047
1.00031
1.0002
1.00013
1.00008
1.00005
1.00003
1.00002
1.00001
1.00001
1
1
1.00038
1.00078
1.00243
1.00502
1.01564
1.03305
1.0976
1.21244
1.52167
2.12239
3.19049
3.53151
3.66293
3.63793
3.56399
3.45311
3.32118
3.17054
3.01498
2.86372
2.72097
2.58909
2.46811
2.35745
2.25623
2.16376
2.07899
2.00135
1.93038
1.86537
1.80558
1.75064
1.70026
1.65413
1.61198
1.57351
1.53842
1.50644
1.47731
1.45079
1.42663
1.40467
1.38472
1.36665
1.35036
1.33576
1.32278
1.31136
1.30145
1.29297
1.28584
1.27999
1.27537
1.27175
1.2686
1.26607
1.26471
1.26341
1.26163
1.25927
1.25593
1.25113
1.24433
1.23501
1.22283
1.20774
1.19009
1.17054
1.14994
1.12919
1.10901
1.09
1.07273
1.0577
1.04505
1.03467
1.02631
1.01971
1.01458
1.01066
1.00771
1.00551
1.0039
1.00273
1.00189
1.0013
1.00088
1.00059
1.00039
1.00026
1.00017
1.00011
1.00007
1.00004
1.00003
1.00002
1.00001
1.00001
1
1
1.00008
1.00026
1.00053
1.00168
1.00341
1.011
1.02186
1.06975
1.14213
1.37176
1.78744
2.65049
3.2649
3.47506
3.4902
3.45503
3.37692
3.2779
3.15807
3.02594
2.89237
2.76205
2.63814
2.52226
2.41488
2.31585
2.2249
2.14138
2.06471
1.99436
1.9298
1.87058
1.81633
1.76672
1.72138
1.67996
1.64213
1.60757
1.576
1.54717
1.52084
1.49678
1.47483
1.45485
1.43673
1.4204
1.40575
1.39272
1.38126
1.37126
1.3626
1.35516
1.34878
1.34312
1.33782
1.33303
1.32905
1.32453
1.31888
1.31204
1.30348
1.29261
1.27897
1.26236
1.2429
1.22105
1.19753
1.17317
1.14866
1.12464
1.10207
1.08194
1.06473
1.05039
1.03869
1.02933
1.02196
1.01626
1.01191
1.00864
1.0062
1.00441
1.0031
1.00216
1.00149
1.00102
1.00069
1.00046
1.00031
1.0002
1.00013
1.00008
1.00005
1.00003
1.00002
1.00001
1.00001
1
1
1
1.00002
1.00007
1.00014
1.00043
1.00089
1.00274
1.00574
1.01736
1.03786
1.10491
1.22837
1.52607
2.10223
2.94605
3.22099
3.3549
3.33785
3.28741
3.21266
3.12524
3.02239
2.91211
2.79958
2.68829
2.58088
2.47893
2.38337
2.29451
2.21235
2.13669
2.06715
2.0033
1.94476
1.89117
1.84214
1.79725
1.75615
1.71849
1.68398
1.65234
1.62335
1.59673
1.57235
1.55009
1.52983
1.51143
1.4948
1.47982
1.46641
1.45443
1.4437
1.43398
1.42501
1.41644
1.40801
1.40003
1.39193
1.38216
1.37075
1.35735
1.34145
1.32277
1.30127
1.27719
1.25104
1.2234
1.19461
1.16519
1.13661
1.11063
1.08816
1.06924
1.05363
1.04101
1.03099
1.02317
1.01715
1.01257
1.00913
1.00657
1.00469
1.00332
1.00233
1.00162
1.00111
1.00076
1.00051
1.00035
1.00023
1.00015
1.0001
1.00006
1.00004
1.00003
1.00002
1.00001
1.00001
1
1
1
1.00001
1.00001
1.00004
1.00008
1.00025