/*--------------------------------*- C++ -*----------------------------------*\
| =========                 |                                                 |
| \\      /  F ield         | OpenFOAM: The Open Source CFD Toolbox           |
|  \\    /   O peration     | Version:  2112                                  |
|   \\  /    A nd           | Website:  www.openfoam.com                      |
|    \\/     M anipulation  |                                                 |
\*---------------------------------------------------------------------------*/
FoamFile
{
    version     2.0;
    format      ascii;
    arch        "LSB;label=32;scalar=64";
    class       surfaceScalarField;
    location    "0.5";
    object      phi;
}
// * * * * * * * * * * * * * * * * * * * * * * * * * * * * * * * * * * * * * //

dimensions      [1 0 -1 0 0 0 0];

oriented        oriented;

internalField   nonuniform List<scalar> 
10325
(
0.00840003
4.24075e-12
0.00840003
3.35745e-11
0.00840003
1.02754e-10
0.00840003
3.17433e-10
0.00840002
7.50325e-10
0.0084
2.08127e-09
0.00839998
4.70906e-09
0.00839984
1.30285e-08
0.00839968
2.93661e-08
0.00839881
8.3141e-08
0.00839765
1.8521e-07
0.00839176
5.60773e-07
0.0083849
1.22232e-06
0.0083489
4.27066e-06
0.00829746
1.06712e-05
0.00816246
4.50964e-05
0.00767339
0.000148806
0.00589965
0.000929941
0.0054028
0.000862149
0.0045301
0.000772753
0.00364597
0.000805208
0.00268837
0.000891076
0.00163029
0.000939897
0.000715172
0.000877416
0.000854661
0.00840003
8.54174e-12
0.00840003
6.70958e-11
0.00840003
2.05532e-10
0.00840003
6.29541e-10
0.00840002
1.4843e-09
0.0084
4.07929e-09
0.00839998
9.18217e-09
0.00839985
2.5323e-08
0.00839969
5.67118e-08
0.00839885
1.62115e-07
0.00839774
3.55144e-07
0.00839201
1.11157e-06
0.00838533
2.36022e-06
0.00834972
8.58576e-06
0.00829871
2.09592e-05
0.00816507
9.28713e-05
0.00767562
0.000295488
0.00590377
0.00183843
0.00539838
0.0017374
0.00455084
0.0015264
0.0036701
0.00161204
0.00272091
0.00177771
0.00167854
0.00186757
0.000757398
0.00175858
0.0017467
0.00840003
1.2879e-11
0.00840003
1.00287e-10
0.00840003
3.08297e-10
0.00840003
9.35141e-10
0.00840002
2.20422e-09
0.00840001
5.96358e-09
0.00839998
1.3349e-08
0.00839987
3.6328e-08
0.00839972
8.07399e-08
0.00839894
2.30791e-07
0.00839791
4.97788e-07
0.00839253
1.59299e-06
0.0083863
3.30375e-06
0.00835272
1.24096e-05
0.00830394
2.94877e-05
0.00817349
0.000137073
0.00770023
0.000425883
0.00598257
0.00265574
0.00546999
0.00263191
0.00463324
0.00228329
0.0037595
0.00242124
0.0028147
0.00266802
0.00176319
0.00281155
0.000808986
0.00266871
0.00268225
0.00840003
1.72688e-11
0.00840003
1.33218e-10
0.00840003
4.10884e-10
0.00840003
1.23684e-09
0.00840002
2.91929e-09
0.00840001
7.78282e-09
0.00839999
1.73552e-08
0.00839989
4.61687e-08
0.00839975
1.01614e-07
0.00839907
2.86538e-07
0.00839815
6.04217e-07
0.00839319
1.99074e-06
0.00838772
3.94483e-06
0.00835742
1.57104e-05
0.00831262
3.52923e-05
0.00818865
0.000172611
0.00774669
0.000524456
0.00615287
0.00329925
0.00563118
0.00354251
0.00479337
0.00305992
0.00392271
0.00324024
0.00297909
0.00357024
0.00189473
0.00379724
0.00088032
0.00362689
0.00367854
0.00840003
2.18759e-11
0.00840003
1.66538e-10
0.00840003
5.1468e-10
0.00840003
1.53461e-09
0.00840002
3.62668e-09
0.00840001
9.56628e-09
0.00839999
2.13857e-08
0.0083999
5.58319e-08
0.00839979
1.22619e-07
0.00839924
3.34753e-07
0.00839841
6.91003e-07
0.00839398
2.31649e-06
0.00839046
4.11504e-06
0.00836136
1.88398e-05
0.008331
3.71449e-05
0.00820567
0.000197761
0.00779953
0.000578507
0.00644786
0.00366883
0.00589938
0.0044664
0.00502727
0.00388226
0.00414803
0.00408767
0.00320046
0.00449287
0.00207312
0.00483187
0.000985287
0.00465093
0.00476643
0.00840003
2.62595e-11
0.00840003
1.99874e-10
0.00840003
6.16098e-10
0.00840003
1.83394e-09
0.00840002
4.3455e-09
0.00840001
1.1397e-08
0.00839999
2.55924e-08
0.00839991
6.58681e-08
0.0083998
1.4523e-07
0.00839931
3.85062e-07
0.00839865
8.0959e-07
0.00839499
2.56561e-06
0.00839381
4.20933e-06
0.00836468
2.05851e-05
0.00835485
3.69933e-05
0.00821739
0.000200029
0.00785985
0.000585226
0.00692818
0.00362947
0.00628909
0.00539865
0.00533243
0.00481253
0.00443061
0.00498422
0.00348719
0.00542571
0.00231496
0.00593266
0.00112304
0.00577525
0.00597562
0.00840003
2.91521e-11
0.00840003
2.24826e-10
0.00840003
6.89141e-10
0.00840003
2.0725e-09
0.00840002
4.92331e-09
0.00840001
1.30927e-08
0.00839999
2.96391e-08
0.00839991
7.68547e-08
0.00839981
1.71411e-07
0.00839936
4.44962e-07
0.00839872
9.74632e-07
0.00839589
2.67696e-06
0.00839281
5.56137e-06
0.00837293
1.83324e-05
0.00834598
4.13888e-05
0.00825784
0.00016457
0.00797926
0.000521091
0.00765029
0.00297886
0.00678189
0.00632281
0.00569277
0.00590365
0.00476581
0.0059222
0.00381775
0.00637431
0.00262092
0.0070479
0.00132263
0.00697806
0.00736059
0.00840003
3.03265e-11
0.00840003
2.39021e-10
0.00840003
7.26926e-10
0.00840003
2.20937e-09
0.00840002
5.25032e-09
0.00840001
1.41257e-08
0.00839999
3.20781e-08
0.00839991
8.44755e-08
0.00839981
1.8937e-07
0.00839935
4.99481e-07
0.00839876
1.11226e-06
0.00839623
2.95592e-06
0.00839223
6.70687e-06
0.00838027
1.76849e-05
0.00834592
4.72123e-05
0.0083165
0.000143288
0.00821597
0.000431182
0.00845178
0.00216711
0.00723159
0.00723197
0.00600459
0.00707527
0.00513875
0.0068334
0.00418843
0.00734687
0.00301562
0.0081546
0.00161203
0.00828262
0.00902133
0.00840003
2.51885e-11
0.00840003
2.29375e-10
0.00840003
6.91803e-10
0.00840003
2.1408e-09
0.00840002
5.101e-09
0.00840001
1.40244e-08
0.00839999
3.20961e-08
0.00839992
8.66045e-08
0.00839983
1.94908e-07
0.00839943
5.28245e-07
0.00839893
1.16192e-06
0.00839664
3.15018e-06
0.00839392
6.93817e-06
0.0083806
1.93142e-05
0.0083681
4.24902e-05
0.00829563
0.000153486
0.00830782
0.00040247
0.0082178
0.00188617
0.00722354
0.00758126
0.00629614
0.00787174
0.00557416
0.00764139
0.00470632
0.00823147
0.00363894
0.00918907
0.00212937
0.00970419
0.0111841
0.00840003
1.01772e-11
0.00840003
2.91598e-10
0.00840003
4.70509e-10
0.00840003
2.65014e-09
0.00840003
3.80125e-09
0.00840001
1.80372e-08
0.0084
2.58026e-08
0.00839992
1.17304e-07
0.00839989
1.56733e-07
0.00839936
7.58154e-07
0.00839931
8.47904e-07
0.00839611
4.71402e-06
0.00839743
4.09218e-06
0.0083768
3.01081e-05
0.00838778
2.21348e-05
0.00828435
0.000210702
0.00833364
0.00030236
0.00823239
0.00177436
0.00740259
0.00774254
0.00676865
0.00843923
0.00607955
0.00837045
0.00541642
0.0088973
0.00452832
0.0100708
0.00295285
0.0111902
0.0141628
0.00840003
3.74451e-11
0.00840003
9.04623e-11
0.00840003
6.31161e-10
0.00840003
9.56641e-10
0.00840003
4.55587e-09
0.00840004
6.42526e-09
0.00840002
2.8897e-08
0.00840007
3.86308e-08
0.00839992
1.8973e-07
0.00840035
2.10184e-07
0.00839904
1.34607e-06
0.00840187
1.17214e-06
0.00839198
9.33188e-06
0.00841028
7.54017e-06
0.00834481
6.54205e-05
0.00845741
6.59486e-05
0.00813439
0.000549705
0.00848686
0.00130232
0.00795855
0.00753925
0.0073248
0.00907504
0.00674361
0.00899497
0.0062765
0.00937738
0.00587366
0.0104409
0.0056499
0.0113161
0.0114578
0.00835405
0.00840003
1.85311e-11
0.00840003
1.10029e-10
0.00840003
3.64272e-10
0.00840003
1.04558e-09
0.00840003
2.60791e-09
0.00840002
6.64027e-09
0.00840003
1.57051e-08
0.00839999
3.90384e-08
0.00840003
9.17069e-08
0.00839972
2.42541e-07
0.00840023
5.42973e-07
0.00839785
1.76507e-06
0.00840168
3.71195e-06
0.00838651
1.38964e-05
0.00841107
3.00989e-05
0.00831745
0.000117445
0.00847568
0.000327603
0.00824523
0.00145634
0.00869158
0.00628067
0.00822771
0.00962375
0.00760806
0.00974927
0.00728941
0.00972662
0.00718568
0.0104928
0.00734268
0.0110546
0.0106252
0.00811259
0.00840003
1.44106e-11
0.00840003
1.15763e-10
0.00840003
3.48616e-10
0.00840003
1.08777e-09
0.00840003
2.57205e-09
0.00840002
7.19595e-09
0.00840001
1.63121e-08
0.00839996
4.50974e-08
0.00839991
1.01346e-07
0.00839962
2.83642e-07
0.00839927
6.30226e-07
0.00839792
1.79594e-06
0.00839589
4.08326e-06
0.00839175
1.1376e-05
0.0083786
2.89138e-05
0.00837763
8.07565e-05
0.00832677
0.000265134
0.00870754
0.000890671
0.00999562
0.00382948
0.00941866
0.0103139
0.008779
0.010513
0.00835513
0.0102089
0.00835599
0.0104614
0.00856408
0.0107642
0.0102167
0.0088867
0.00840003
1.19469e-11
0.00840003
9.53897e-11
0.00840003
2.92373e-10
0.00840003
8.99372e-10
0.00840003
2.1429e-09
0.00840003
5.86869e-09
0.00840002
1.33731e-08
0.0084
3.61803e-08
0.00839999
8.17995e-08
0.00839986
2.23896e-07
0.00839979
5.06273e-07
0.0083991
1.41766e-06
0.00839887
3.1696e-06
0.00839492
9.33784e-06
0.00839454
2.05067e-05
0.00837835
6.74003e-05
0.00842682
0.000169441
0.00851048
0.000669753
0.00962591
0.00232388
0.00982106
0.00978318
0.00968938
0.0106442
0.00919829
0.0106912
0.0091674
0.0104225
0.00940027
0.0104535
0.00994265
0.00959586
0.00840003
1.08905e-11
0.00840003
8.63837e-11
0.00840003
2.62526e-10
0.00840003
8.08211e-10
0.00840003
1.92162e-09
0.00840003
5.26441e-09
0.00840002
1.20017e-08
0.00840001
3.21438e-08
0.0084
7.25775e-08
0.00839993
1.93353e-07
0.00839987
4.33003e-07
0.00839956
1.17315e-06
0.00839928
2.51764e-06
0.00839684
7.76163e-06
0.00839879
1.45143e-05
0.00838426
5.80861e-05
0.00840385
0.000116513
0.00842882
0.000557347
0.00893385
0.00164818
0.00999203
0.00795383
0.00999805
0.0106142
0.00978269
0.0108898
0.00967928
0.0104888
0.00989027
0.0101707
0.00966586
0.0100549
0.00840003
8.83791e-12
0.00840003
7.12684e-11
0.00840003
2.16541e-10
0.00840003
6.73364e-10
0.00840003
1.60067e-09
0.00840003
4.44113e-09
0.00840003
1.0131e-08
0.00840002
2.75618e-08
0.00840001
6.24179e-08
0.00839994
1.68787e-07
0.0083999
3.80588e-07
0.00839952
1.02673e-06
0.00839911
2.29385e-06
0.00839723
6.29246e-06
0.00839422
1.39238e-05
0.00838801
4.16436e-05
0.00838397
9.81312e-05
0.00848101
0.000362959
0.00878022
0.00111773
0.0106134
0.00532732
0.0106816
0.0105993
0.0105037
0.011136
0.0101953
0.0108804
0.0102691
0.0100941
0.00947713
0.0104449
0.00840003
6.9863e-12
0.00840003
5.56767e-11
0.00840003
1.69851e-10
0.00840003
5.22272e-10
0.00840003
1.24563e-09
0.00840003
3.39602e-09
0.00840003
7.76467e-09
0.00840002
2.06611e-08
0.00840003
4.67963e-08
0.00839999
1.24147e-07
0.0084
2.80162e-07
0.00839976
7.49637e-07
0.00839982
1.68714e-06
0.00839828
4.64227e-06
0.00839839
1.03341e-05
0.00839449
3.03106e-05
0.00839222
7.08176e-05
0.00843643
0.000235719
0.00886459
0.000711017
0.0108596
0.00298752
0.0111885
0.00998444
0.0113295
0.0110079
0.0110805
0.0111493
0.0107657
0.0104355
0.00946854
0.0107526
0.00840003
5.11366e-12
0.00840003
4.17299e-11
0.00840003
1.27701e-10
0.00840003
3.92963e-10
0.00840003
9.41986e-10
0.00840003
2.57653e-09
0.00840003
5.92268e-09
0.00840003
1.58513e-08
0.00840003
3.60924e-08
0.0084
9.63512e-08
0.0084
2.18288e-07
0.00839986
5.85319e-07
0.00839985
1.31712e-06
0.00839921
3.59228e-06
0.0083992
7.93264e-06
0.00839565
2.34169e-05
0.00840742
5.04741e-05
0.00841722
0.000173499
0.00859321
0.000482608
0.00928515
0.0020739
0.0115462
0.00706743
0.0117961
0.0107071
0.0116399
0.0112904
0.0111745
0.0109373
0.00957846
0.0110727
0.00840003
2.22898e-12
0.00840003
3.3887e-11
0.00840003
7.37895e-11
0.00840003
3.07426e-10
0.00840003
5.49985e-10
0.00840003
1.99355e-09
0.00840003
3.44669e-09
0.00840003
1.21728e-08
0.00840004
2.08892e-08
0.00840002
7.35657e-08
0.00840007
1.25755e-07
0.00839998
4.46204e-07
0.00840027
7.55274e-07
0.00839966
2.77706e-06
0.00840161
4.40652e-06
0.00839866
1.86142e-05
0.00841177
2.51559e-05
0.00841825
0.000131523
0.00858029
0.000224672
0.00938555
0.00110372
0.0118604
0.00363842
0.0122841
0.01025
0.012552
0.0110687
0.0122043
0.0112957
0.0101959
0.0116247
0.00840003
2.78453e-12
0.00840003
1.59235e-11
0.00840003
5.98657e-11
0.00840003
1.5546e-10
0.00840003
4.43012e-10
0.00840003
1.03252e-09
0.00840003
2.80645e-09
0.00840003
6.39974e-09
0.00840003
1.72151e-08
0.00840005
3.89694e-08
0.00840002
1.04316e-07
0.00840017
2.34686e-07
0.00840003
6.29503e-07
0.00840101
1.38985e-06
0.00839971
3.93372e-06
0.00840867
8.15953e-06
0.00839428
2.64991e-05
0.00845888
5.50771e-05
0.0084248
0.000200043
0.00892948
0.000531926
0.00992036
0.00237196
0.012453
0.00711474
0.012739
0.010688
0.0128251
0.0111455
0.0108694
0.0121479
0.00840003
2.47936e-12
0.00840003
8.93639e-12
0.00840003
4.48501e-11
0.00840003
8.98807e-11
0.00840003
3.25401e-10
0.00840003
5.97172e-10
0.00840003
2.04496e-09
0.00840003
3.68198e-09
0.00840003
1.24808e-08
0.00840004
2.23146e-08
0.00840002
7.56557e-08
0.00840007
1.34581e-07
0.00839998
4.59422e-07
0.00840027
8.09488e-07
0.00839981
2.83062e-06
0.00840157
4.80504e-06
0.00840218
1.82629e-05
0.00841322
2.90503e-05
0.00844778
0.000127373
0.00863587
0.000251033
0.00969574
0.00109796
0.0122636
0.00362259
0.0131061
0.00975908
0.0134903
0.0107774
0.0112567
0.0130764
0.00840003
7.74878e-13
0.00840003
7.40913e-12
0.00840003
1.88535e-11
0.00840003
6.94661e-11
0.00840003
1.40327e-10
0.00840003
4.60323e-10
0.00840003
8.9187e-10
0.00840003
2.87314e-09
0.00840003
5.51839e-09
0.00840003
1.77361e-08
0.00840005
3.39202e-08
0.00840002
1.08964e-07
0.00840019
2.07281e-07
0.00839998
6.68065e-07
0.00840108
1.26045e-06
0.00839963
4.14457e-06
0.00840803
7.69681e-06
0.00839671
2.69065e-05
0.00845981
5.06201e-05
0.00844863
0.000193889
0.00898744
0.000483168
0.0104249
0.00187689
0.012993
0.0063957
0.0133758
0.0102742
0.0107201
0.0138282
0.00840003
7.21028e-13
0.00840003
3.00281e-12
0.00840003
1.41098e-11
0.00840003
3.00543e-11
0.00840003
1.0417e-10
0.00840003
2.0229e-10
0.00840003
6.66316e-10
0.00840003
1.27468e-09
0.00840003
4.15289e-09
0.00840004
7.93158e-09
0.00840003
2.57498e-08
0.00840007
4.91894e-08
0.00840001
1.59655e-07
0.00840025
3.0527e-07
0.00839991
9.93989e-07
0.00840138
1.90436e-06
0.00839957
6.26977e-06
0.0084093
1.20424e-05
0.00840303
4.12357e-05
0.00848006
8.21577e-05
0.00858781
0.00030888
0.00951873
0.000827011
0.0128117
0.00292144
0.0137653
0.00873495
0.010354
0.0139539
0.00840003
2.95496e-13
0.00840003
2.08272e-12
0.00840003
6.51357e-12
0.00840003
2.01385e-11
0.00840003
4.89986e-11
0.00840003
1.36255e-10
0.00840003
3.17694e-10
0.00840003
8.66182e-10
0.00840003
2.00277e-09
0.00840003
5.43185e-09
0.00840004
1.25216e-08
0.00840003
3.38436e-08
0.00840008
7.78215e-08
0.00840005
2.09616e-07
0.0084004
4.811e-07
0.00840028
1.29597e-06
0.00840266
2.96177e-06
0.00840184
8.17816e-06
0.00842168
1.82497e-05
0.00841653
5.47634e-05
0.00857111
0.000126758
0.00881853
0.000433846
0.0101105
0.0013494
0.0131807
0.00460858
0.00936865
0.0139873
0.00840003
1.40278e-13
0.00840003
1.17417e-12
0.00840003
3.5557e-12
0.00840003
1.12468e-11
0.00840003
2.68634e-11
0.00840003
7.60496e-11
0.00840003
1.74945e-10
0.00840003
4.85377e-10
0.00840003
1.10948e-09
0.00840003
3.05869e-09
0.00840003
6.98131e-09
0.00840003
1.91461e-08
0.00840005
4.36391e-08
0.00840006
1.19077e-07
0.00840017
2.70698e-07
0.00840024
7.36942e-07
0.00840094
1.668e-06
0.00840158
4.57082e-06
0.00840584
1.03452e-05
0.00841353
2.89018e-05
0.00844821
6.93038e-05
0.00857884
0.000204866
0.00926048
0.000612065
0.0113562
0.00220572
0.0059451
0.0140193
0.00840003
5.67208e-14
0.00840003
6.82403e-13
0.00840003
1.7009e-12
0.00840003
6.41746e-12
0.00840003
1.30012e-11
0.00840003
4.33843e-11
0.00840003
8.52632e-11
0.00840003
2.76719e-10
0.00840003
5.42609e-10
0.00840003
1.73794e-09
0.00840003
3.4125e-09
0.00840003
1.08196e-08
0.00840005
2.12389e-08
0.00840005
6.68837e-08
0.00840014
1.3083e-07
0.00840019
4.11592e-07
0.00840072
7.98148e-07
0.00840104
2.54554e-06
0.0084045
4.83243e-06
0.00840755
1.63419e-05
0.00843119
2.99554e-05
0.00848228
0.000111443
0.00877849
0.000237438
0.00992309
0.000926239
0.00273278
0.0127359
0.00840003
4.38697e-14
0.00840003
2.57522e-13
0.00840003
9.51782e-13
0.00840003
2.55185e-12
0.00840003
7.2733e-12
0.00840003
1.75845e-11
0.00840003
4.78591e-11
0.00840003
1.13484e-10
0.00840003
3.03887e-10
0.00840003
7.16489e-10
0.00840003
1.89663e-09
0.00840004
4.45959e-09
0.00840004
1.17065e-08
0.00840006
2.74857e-08
0.00840006
7.19814e-08
0.00840022
1.68908e-07
0.00840018
4.45387e-07
0.00840119
1.04571e-06
0.00840099
2.80498e-06
0.0084079
6.59282e-06
0.00840907
1.79594e-05
0.00845077
4.34153e-05
0.00850329
0.000122906
0.00894661
0.00034348
0.00117628
0.0102463
0.00840003
2.23551e-14
0.00840003
1.14551e-13
0.00840003
4.51241e-13
0.00840003
1.14992e-12
0.00840003
3.43834e-12
0.00840003
8.03421e-12
0.00840003
2.28612e-11
0.00840003
5.25883e-11
0.00840003
1.47191e-10
0.00840003
3.36757e-10
0.00840003
9.33735e-10
0.00840003
2.12926e-09
0.00840003
5.86404e-09
0.00840004
1.33433e-08
0.00840005
3.65393e-08
0.00840009
8.30167e-08
0.00840014
2.26257e-07
0.00840046
5.12995e-07
0.00840091
1.39923e-06
0.00840304
3.14747e-06
0.0084061
8.78827e-06
0.0084254
1.93771e-05
0.0084474
5.81213e-05
0.00861819
0.000134476
0.000467135
0.00915311
0.00840003
1.17958e-14
0.00840003
4.53708e-14
0.00840003
2.11594e-13
0.00840003
4.68971e-13
0.00840003
1.59728e-12
0.00840003
3.32497e-12
0.00840003
1.06897e-11
0.00840003
2.20705e-11
0.00840003
6.956e-11
0.00840003
1.43162e-10
0.00840003
4.46166e-10
0.00840003
9.15895e-10
0.00840003
2.83432e-09
0.00840004
5.80365e-09
0.00840004
1.7871e-08
0.00840007
3.6496e-08
0.00840009
1.1185e-07
0.00840026
2.27667e-07
0.00840043
6.95747e-07
0.00840148
1.40743e-06
0.00840262
4.3281e-06
0.00840869
8.73031e-06
0.00841859
2.7327e-05
0.00846333
5.79559e-05
0.000187812
0.00862545
0.00840003
2.46304e-15
0.00840003
1.85924e-14
0.00840003
6.15894e-14
0.00840003
1.95009e-13
0.00840003
5.12195e-13
0.00840003
1.44357e-12
0.00840003
3.62208e-12
0.00840003
9.89398e-12
0.00840003
2.43341e-11
0.00840003
6.55155e-11
0.00840003
1.59175e-10
0.00840003
4.24598e-10
0.00840003
1.02379e-09
0.00840003
2.71729e-09
0.00840004
6.52129e-09
0.00840004
1.72837e-08
0.00840009
4.13175e-08
0.0084001
1.09518e-07
0.00840039
2.60485e-07
0.00840046
6.91549e-07
0.00840225
1.63656e-06
0.00840263
4.37218e-06
0.0084132
1.04178e-05
0.00841929
2.80265e-05
7.07949e-05
0.00849537
0.00840003
7.50783e-16
0.00840003
6.89994e-15
0.00840003
2.06511e-14
0.00840003
7.2363e-14
0.00840003
1.76343e-13
0.00840003
5.51423e-13
0.00840003
1.30112e-12
0.00840003
3.88028e-12
0.00840003
9.03479e-12
0.00840003
2.62198e-11
0.00840003
6.05704e-11
0.00840003
1.72798e-10
0.00840003
3.97096e-10
0.00840003
1.12081e-09
0.00840003
2.56737e-09
0.00840004
7.19169e-09
0.00840005
1.64439e-08
0.00840007
4.57342e-08
0.00840016
1.04368e-07
0.00840028
2.88611e-07
0.00840088
6.55962e-07
0.00840166
1.81903e-06
0.00840557
4.10208e-06
0.008411
1.16831e-05
2.60573e-05
0.00844169
0.00840003
2.0158e-16
0.00840003
2.66792e-15
0.00840003
7.09347e-15
0.00840003
2.77114e-14
0.00840003
6.11415e-14
0.00840003
2.11095e-13
0.00840003
4.51114e-13
0.00840003
1.49308e-12
0.00840003
3.17601e-12
0.00840003
1.0137e-11
0.00840003
2.16752e-11
0.00840003
6.74886e-11
0.00840003
1.44323e-10
0.00840003
4.43016e-10
0.00840003
9.4532e-10
0.00840003
2.87466e-09
0.00840004
6.12111e-09
0.00840005
1.8474e-08
0.00840008
3.92279e-08
0.00840013
1.17742e-07
0.00840037
2.48714e-07
0.00840064
7.4685e-07
0.00840211
1.56563e-06
0.00840406
4.75335e-06
9.97325e-06
0.00841278
0.00840003
1.62278e-16
0.00840003
5.83897e-16
0.00840003
2.22308e-15
0.00840003
5.91533e-15
0.00840003
1.97681e-14
0.00840003
4.74209e-14
0.00840003
1.58678e-13
0.00840003
3.66475e-13
0.00840003
1.18506e-12
0.00840003
2.71733e-12
0.00840003
8.31134e-12
0.00840003
1.91416e-11
0.00840003
5.63372e-11
0.00840003
1.30043e-10
0.00840003
3.75562e-10
0.00840003
8.62738e-10
0.00840003
2.46852e-09
0.00840004
5.63421e-09
0.00840004
1.60369e-08
0.0084001
3.63891e-08
0.00840012
1.03405e-07
0.00840046
2.33425e-07
0.00840057
6.64804e-07
0.00840271
1.49545e-06
4.28324e-06
0.00840355
0.00840003
-7.42678e-17
0.00840003
-3.61581e-17
0.00840003
1.8567e-16
0.00840003
1.16956e-15
0.00840003
3.7859e-15
0.00840003
1.2049e-14
0.00840003
3.3234e-14
0.00840003
1.00046e-13
0.00840003
2.66143e-13
0.00840003
8.00741e-13
0.00840003
2.07188e-12
0.00840003
5.99701e-12
0.00840003
1.53948e-11
0.00840003
4.26141e-11
0.00840003
1.08192e-10
0.00840003
2.9268e-10
0.00840003
7.33317e-10
0.00840003
1.95925e-09
0.00840004
4.85638e-09
0.00840004
1.28729e-08
0.00840009
3.16822e-08
0.00840012
8.36342e-08
0.00840042
2.05139e-07
0.00840061
5.41656e-07
1.3286e-06
0.0084025
0.00840003
7.79541e-17
0.00840003
1.17826e-16
0.00840003
1.7087e-16
0.00840003
3.83103e-16
0.00840003
1.01682e-15
0.00840003
3.83726e-15
0.00840003
8.43604e-15
0.00840003
3.02757e-14
0.00840003
6.8975e-14
0.00840003
2.36718e-13
0.00840003
5.43576e-13
0.00840003
1.7909e-12
0.00840003
4.17298e-12
0.00840003
1.30394e-11
0.00840003
3.05032e-11
0.00840003
9.17261e-11
0.00840003
2.136e-10
0.00840003
6.26874e-10
0.00840003
1.45137e-09
0.00840003
4.19056e-09
0.00840005
9.65495e-09
0.00840006
2.75791e-08
0.00840015
6.32991e-08
0.00840025
1.79787e-07
4.11374e-07
0.00840081
0.00840003
-2.12233e-17
0.00840003
-9.73071e-18
0.00840003
7.8686e-17
0.00840003
2.11365e-16
0.00840003
4.04624e-16
0.00840003
1.0294e-15
0.00840003
2.65445e-15
0.00840003
8.80185e-15
0.00840003
1.98999e-14
0.00840003
6.86774e-14
0.00840003
1.51604e-13
0.00840003
5.16563e-13
0.00840003
1.13943e-12
0.00840003
3.76668e-12
0.00840003
8.34064e-12
0.00840003
2.67344e-11
0.00840003
5.92667e-11
0.00840003
1.85421e-10
0.00840003
4.09938e-10
0.00840003
1.25915e-09
0.00840004
2.77437e-09
0.00840004
8.40173e-09
0.00840007
1.8455e-08
0.00840011
5.52966e-08
1.21077e-07
0.00840028
0.00840003
9.831e-17
0.00840003
1.06604e-16
0.00840003
8.60857e-17
0.00840003
7.22892e-17
0.00840003
7.10152e-17
0.00840003
1.5458e-16
0.00840003
5.79289e-16
0.00840003
1.56979e-15
0.00840003
5.01343e-15
0.00840003
1.36165e-14
0.00840003
4.04386e-14
0.00840003
1.06931e-13
0.00840003
3.12643e-13
0.00840003
8.24122e-13
0.00840003
2.31483e-12
0.00840003
6.12451e-12
0.00840003
1.66624e-11
0.00840003
4.37485e-11
0.00840003
1.17121e-10
0.00840003
3.03736e-10
0.00840003
8.04892e-10
0.00840004
2.06381e-09
0.00840004
5.42847e-09
0.00840006
1.37879e-08
3.60657e-08
0.00840009
0.00840003
-9.2618e-17
0.00840003
-7.97973e-17
0.00840003
-6.31006e-17
0.00840003
-1.65341e-17
0.00840003
-5.3153e-17
0.00840003
9.54098e-18
0.00840003
1.03324e-16
0.00840003
4.0766e-16
0.00840003
1.25561e-15
0.00840003
2.79033e-15
0.00840003
1.05399e-14
0.00840003
2.2531e-14
0.00840003
8.13714e-14
0.00840003
1.75426e-13
0.00840003
6.0653e-13
0.00840003
1.33234e-12
0.00840003
4.38806e-12
0.00840003
9.74876e-12
0.00840003
3.09887e-11
0.00840003
6.90287e-11
0.00840003
2.14321e-10
0.00840003
4.76874e-10
0.00840003
1.45558e-09
0.00840004
3.23222e-09
9.73857e-09
0.00840005
0.00840003
1.32517e-16
0.00840003
1.87892e-16
0.00840003
2.08628e-16
0.00840003
1.39428e-16
0.00840003
1.12405e-16
0.00840003
1.49132e-16
0.00840003
2.37684e-16
0.00840003
3.43394e-16
0.00840003
5.24998e-16
0.00840003
9.44421e-16
0.00840003
2.20974e-15
0.00840003
5.879e-15
0.00840003
1.58542e-14
0.00840003
4.50533e-14
0.00840003
1.20232e-13
0.00840003
3.38559e-13
0.00840003
8.98014e-13
0.00840003
2.453e-12
0.00840003
6.51394e-12
0.00840003
1.73457e-11
0.00840003
4.58267e-11
0.00840003
1.20222e-10
0.00840003
3.14901e-10
0.00840003
8.18578e-10
2.12541e-09
0.00840004
0.00840003
-2.67527e-17
0.00840003
3.77844e-17
0.00840003
1.38344e-16
0.00840003
2.17599e-16
0.00840003
3.30899e-16
0.00840003
3.57028e-16
0.00840003
3.37214e-16
0.00840003
3.04119e-16
0.00840003
4.00504e-16
0.00840003
6.15502e-16
0.00840003
8.04722e-16
0.00840003
1.78948e-15
0.00840003
3.35588e-15
0.00840003
1.04013e-14
0.00840003
2.27999e-14
0.00840003
7.58829e-14
0.00840003
1.71367e-13
0.00840003
5.53812e-13
0.00840003
1.27219e-12
0.00840003
3.94706e-12
0.00840003
9.10911e-12
0.00840003
2.74816e-11
0.00840003
6.33641e-11
0.00840003
1.87523e-10
4.31296e-10
0.00840003
0.00840003
-6.08237e-17
0.00840003
-9.92587e-17
0.00840003
-8.9799e-17
0.00840003
4.07389e-17
0.00840003
1.85507e-16
0.00840003
1.90576e-16
0.00840003
2.45165e-16
0.00840003
3.31142e-16
0.00840003
4.48318e-16
0.00840003
5.37764e-16
0.00840003
6.22305e-16
0.00840003
7.23542e-16
0.00840003
1.10209e-15
0.00840003
2.48334e-15
0.00840003
5.44974e-15
0.00840003
1.67436e-14
0.00840003
3.78481e-14
0.00840003
1.20905e-13
0.00840003
2.72553e-13
0.00840003
8.54486e-13
0.00840003
1.92346e-12
0.00840003
5.91156e-12
0.00840003
1.32843e-11
0.00840003
4.01286e-11
9.00036e-11
0.00840003
0.00840003
2.01933e-17
0.00840003
-4.76236e-17
0.00840003
-1.0861e-16
0.00840003
-2.03749e-16
0.00840003
-1.78189e-16
0.00840003
-3.80284e-17
0.00840003
-1.95156e-17
0.00840003
3.53179e-17
0.00840003
-6.90908e-17
0.00840003
-1.91253e-16
0.00840003
-1.86185e-16
0.00840003
3.16587e-17
0.00840003
2.98752e-16
0.00840003
6.95651e-16
0.00840003
1.33682e-15
0.00840003
3.13391e-15
0.00840003
8.30678e-15
0.00840003
2.13222e-14
0.00840003
5.7595e-14
0.00840003
1.51576e-13
0.00840003
4.03323e-13
0.00840003
1.0585e-12
0.00840003
2.77037e-12
0.00840003
7.224e-12
1.86574e-11
0.00840003
0.00840003
6.74916e-17
0.00840003
1.46286e-16
0.00840003
1.7827e-16
0.00840003
1.48753e-16
0.00840003
4.63767e-17
0.00840003
3.44505e-17
0.00840003
1.68593e-17
0.00840003
-8.99888e-17
0.00840003
-1.59567e-16
0.00840003
-9.831e-17
0.00840003
-3.483e-17
0.00840003
8.97177e-18
0.00840003
-1.51788e-17
0.00840003
1.78351e-17
0.00840003
1.84558e-16
0.00840003
4.97025e-16
0.00840003
1.72101e-15
0.00840003
3.69298e-15
0.00840003
1.17103e-14
0.00840003
2.6543e-14
0.00840003
8.14362e-14
0.00840003
1.85254e-13
0.00840003
5.54893e-13
0.00840003
1.25973e-12
3.70084e-12
0.00840003
0.00840003
-2.04372e-17
0.00840003
-2.3988e-17
0.00840003
-8.55436e-17
0.00840003
-5.58906e-17
0.00840003
-5.34241e-17
0.00840003
-9.38648e-17
0.00840003
-1.49403e-16
0.00840003
7.72494e-18
0.00840003
1.55583e-16
0.00840003
1.28315e-16
0.00840003
2.05754e-16
0.00840003
1.05168e-16
0.00840003
8.61941e-17
0.00840003
1.27909e-16
0.00840003
2.19632e-16
0.00840003
3.01733e-16
0.00840003
3.84323e-16
0.00840003
8.75737e-16
0.00840003
2.3319e-15
0.00840003
5.07653e-15
0.00840003
1.52827e-14
0.00840003
3.39122e-14
0.00840003
1.01902e-13
0.00840003
2.28092e-13
6.71493e-13
0.00840003
0.00840003
-1.02186e-17
0.00840003
-4.60515e-17
0.00840003
5.61888e-17
0.00840003
8.47575e-17
0.00840003
8.55436e-17
0.00840003
1.10074e-16
0.00840003
2.87774e-16
0.00840003
2.64437e-16
0.00840003
2.40801e-16
0.00840003
2.28225e-16
0.00840003
6.91992e-17
0.00840003
4.52383e-17
0.00840003
-5.8818e-18
0.00840003
9.73071e-18
0.00840003
7.54334e-17
0.00840003
1.7396e-16
0.00840003
3.46565e-16
0.00840003
5.95769e-16
0.00840003
8.24942e-16
0.00840003
1.4051e-15
0.00840003
2.78223e-15
0.00840003
6.73138e-15
0.00840003
1.66971e-14
0.00840003
4.24694e-14
1.08787e-13
0.00840003
0.00840003
-4.41812e-17
0.00840003
-4.7461e-17
0.00840003
-1.10101e-16
0.00840003
-5.85198e-17
0.00840003
1.64257e-17
0.00840003
1.57209e-17
0.00840003
-8.14778e-17
0.00840003
-4.02239e-17
0.00840003
-6.58653e-17
0.00840003
5.58906e-17
0.00840003
1.52764e-16
0.00840003
2.72216e-16
0.00840003
3.84865e-16
0.00840003
3.46267e-16
0.00840003
3.73914e-16
0.00840003
4.55365e-16
0.00840003
4.7713e-16
0.00840003
4.60813e-16
0.00840003
3.96845e-16
0.00840003
3.66623e-16
0.00840003
4.25712e-16
0.00840003
1.15912e-15
0.00840003
2.44238e-15
0.00840003
7.45291e-15
1.69045e-14
0.00840003
0.00840003
5.02528e-17
0.00840003
6.22874e-17
0.00840003
5.51859e-17
0.00840003
2.89211e-17
0.00840003
-4.03594e-17
0.00840003
5.28549e-18
0.00840003
3.37187e-17
0.00840003
8.96635e-17
0.00840003
2.17762e-16
0.00840003
3.17265e-16
0.00840003
3.99881e-16
0.00840003
4.51137e-16
0.00840003
4.87051e-16
0.00840003
6.64589e-16
0.00840003
7.4772e-16
0.00840003
6.90664e-16
0.00840003
6.82072e-16
0.00840003
5.48525e-16
0.00840003
4.33708e-16
0.00840003
3.89473e-16
0.00840003
3.88253e-16
0.00840003
4.10343e-16
0.00840003
5.41667e-16
0.00840003
1.37539e-15
2.86677e-15
0.00840003
0.00840003
-1.1563e-16
0.00840003
-1.24819e-16
0.00840003
-1.21241e-16
0.00840003
-1.11239e-16
0.00840003
-4.58618e-17
0.00840003
2.79995e-17
0.00840003
1.27231e-16
0.00840003
1.47777e-16
0.00840003
2.75496e-16
0.00840003
3.8416e-16
0.00840003
4.85506e-16
0.00840003
4.99546e-16
0.00840003
5.76741e-16
0.00840003
5.56657e-16
0.00840003
5.83409e-16
0.00840003
5.62267e-16
0.00840003
3.81341e-16
0.00840003
3.26101e-16
0.00840003
3.52555e-16
0.00840003
3.31712e-16
0.00840003
4.25549e-16
0.00840003
5.47061e-16
0.00840003
6.29678e-16
0.00840003
6.9557e-16
9.27291e-16
0.00840003
0.00840003
1.6881e-16
0.00840003
2.37928e-16
0.00840003
4.57777e-16
0.00840003
4.95806e-16
0.00840003
5.42806e-16
0.00840003
5.4717e-16
0.00840003
5.70616e-16
0.00840003
5.9005e-16
0.00840003
6.17507e-16
0.00840003
5.98507e-16
0.00840003
5.09765e-16
0.00840003
4.98462e-16
0.00840003
4.64066e-16
0.00840003
3.82154e-16
0.00840003
2.1413e-16
0.00840003
1.75288e-16
0.00840003
2.40774e-16
0.00840003
1.6488e-16
0.00840003
1.70464e-16
0.00840003
2.0383e-16
0.00840003
2.45951e-16
0.00840003
2.18006e-16
0.00840003
2.54435e-16
0.00840003
3.27754e-16
4.47206e-16
0.00840003
0.00840003
0.00840003
0.00840003
0.00840003
0.00840003
0.00840003
0.00840003
0.00840003
0.00840003
0.00840003
0.00840003
0.00840003
0.00840003
0.00840003
0.00840003
0.00840003
0.00840003
0.00840003
0.00840003
0.00840003
0.00840003
0.00840003
0.00840003
0.00840003
0.00840003
0.00440811
0.0039521
0.00285615
0.00154719
0.00218587
0.00066179
0.00191718
0.000258791
0.00186169
4.37872e-05
0.00196467
-0.000112503
0.00212619
-0.000168826
0.00224675
-0.000128092
0.00231485
-7.61706e-05
0.00233931
-3.20805e-05
0.00233411
-1.49952e-06
0.00231022
1.89866e-05
0.00229611
1.06983e-05
0.00229696
-4.17331e-06
0.00230989
-1.59706e-05
0.00232542
-1.77487e-05
0.00234285
-1.81017e-05
0.00236037
-1.61061e-05
0.00237708
-1.34253e-05
0.00239206
-1.11626e-05
0.00240427
-9.79152e-06
0.00241334
-9.38548e-06
0.00241978
-9.67353e-06
0.00242453
-1.02475e-05
0.00242877
-1.07554e-05
0.00243391
-1.09966e-05
0.00244087
-1.09193e-05
0.00244924
-1.05638e-05
0.00245786
-9.96999e-06
0.00246546
-9.20798e-06
0.00247025
-8.44089e-06
0.00247189
-7.65719e-06
0.00247242
-6.77111e-06
0.00247121
-6.16835e-06
0.00246512
-5.9168e-06
0.00245423
-5.63912e-06
0.0024417
-5.2887e-06
0.00243002
-5.18516e-06
0.00242216
-5.22972e-06
0.00242143
-5.47818e-06
0.00242804
-5.96149e-06
0.0024412
-6.63983e-06
0.00247102
-7.38875e-06
0.00254511
-8.2198e-06
0.00265704
-1.03411e-05
0.0028046
-1.24327e-05
0.00298866
-1.45715e-05
0.00320868