/*--------------------------------*- C++ -*----------------------------------*\
| =========                 |                                                 |
| \\      /  F ield         | OpenFOAM: The Open Source CFD Toolbox           |
|  \\    /   O peration     | Version:  2112                                  |
|   \\  /    A nd           | Website:  www.openfoam.com                      |
|    \\/     M anipulation  |                                                 |
\*---------------------------------------------------------------------------*/
FoamFile
{
    version     2.0;
    format      ascii;
    arch        "LSB;label=32;scalar=64";
    class       volScalarField;
    location    "0.5";
    object      T;
}
// * * * * * * * * * * * * * * * * * * * * * * * * * * * * * * * * * * * * * //

dimensions      [0 0 0 1 0 0 0];

internalField   nonuniform List<scalar> 
5250
(
1
1
1
1.00001
1.00002
1.00004
1.00014
1.00026
1.00084
1.00159
1.00479
1.01061
1.02777
1.08021
1.1829
1.60747
2.48349
2.93035
2.83291
2.86009
2.89901
2.9306
3.06359
3.43823
3.34594
1
1
1
1.00001
1.00002
1.00004
1.00014
1.00025
1.00082
1.00157
1.00471
1.01043
1.02725
1.07881
1.17904
1.59868
2.46636
2.92711
2.83185
2.85927
2.89752
2.92858
3.0585
3.43151
3.34546
1
1
1
1.00001
1.00002
1.00004
1.00014
1.00025
1.0008
1.00152
1.00456
1.01006
1.02626
1.07583
1.17133
1.57556
2.42927
2.91781
2.82772
2.85621
2.89349
2.92449
3.04904
3.42149
3.34607
1
1
1
1.00001
1.00002
1.00004
1.00013
1.00024
1.00076
1.00145
1.00435
1.00953
1.02491
1.07138
1.16069
1.53686
2.37306
2.89949
2.8199
2.8513
2.88623
2.91655
3.03072
3.4012
3.34353
1
1
1
1.00001
1.00002
1.00004
1.00012
1.00022
1.00072
1.00135
1.00412
1.00888
1.02327
1.06566
1.14839
1.48543
2.29592
2.87019
2.80951
2.8457
2.8761
2.90397
3.00972
3.37953
3.33769
1
1
1
1.00001
1.00002
1.00003
1.00011
1.00021
1.00068
1.00125
1.0039
1.0081
1.02153
1.05852
1.13387
1.42459
2.20311
2.81672
2.79437
2.8399
2.86578
2.89143
2.97916
3.33615
3.32467
1
1
1
1.00001
1.00002
1.00003
1.0001
1.00019
1.00062
1.00114
1.00363
1.00717
1.02032
1.0495
1.12179
1.35783
2.09575
2.70934
2.78347
2.83584
2.85145
2.87142
2.94265
3.28449
3.30235
1
1
1
1
1.00002
1.00003
1.00009
1.00017
1.00055
1.00101
1.00327
1.00631
1.01884
1.04204
1.11261
1.3002
1.96381
2.56034
2.78251
2.82992
2.83976
2.85742
2.9084
3.2299
3.2729
1
1
1
1
1.00001
1.00002
1.00008
1.00014
1.00047
1.00087
1.00282
1.00544
1.01615
1.03706
1.09513
1.2668
1.8058
2.4812
2.78027
2.81674
2.81511
2.82718
2.85448
3.12915
3.20153
1
1
1
1
1.00001
1.00002
1.00006
1.00012
1.00039
1.00073
1.00232
1.00469
1.01311
1.03274
1.07833
1.23311
1.65164
2.37391
2.74336
2.7895
2.79897
2.79825
2.79905
3.0044
3.09749
1
1
1
1
1.00001
1.00002
1.00004
1.0001
1.00023
1.00059
1.00154
1.00369
1.01059
1.02439
1.07569
1.16468
1.56162
2.31871
2.69453
2.76572
2.76419
2.75505
2.72739
2.83443
2.80573
1
1
1
1
1.00001
1.00001
1.00004
1.00007
1.00022
1.00047
1.00125
1.00318
1.00772
1.02253
1.05058
1.16391
1.39251
2.0523
2.64949
2.75012
2.73226
2.70741
2.67004
2.69283
2.66101
1
1
1
1
1.00001
1.00001
1.00003
1.00006
1.00021
1.00037
1.00126
1.00232
1.00752
1.01519
1.04296
1.10819
1.29414
1.7524
2.55302
2.70729
2.6791
2.66142
2.59916
2.58619
2.5656
1
1
1
1
1
1.00001
1.00003
1.00005
1.00016
1.00028
1.00093
1.00177
1.0054
1.01163
1.03142
1.08627
1.2057
1.60962
2.41586
2.64866
2.63546
2.619
2.57301
2.49822
2.46739
1
1
1
1
1
1.00001
1.00002
1.00004
1.00012
1.00022
1.00072
1.00135
1.00407
1.00892
1.02268
1.06549
1.14315
1.48528
2.16832
2.56291
2.61004
2.59527
2.56019
2.47434
2.40949
1
1
1
1
1
1
1.00001
1.00003
1.00009
1.00016
1.00054
1.00099
1.00321
1.00627
1.01823
1.04355
1.10762
1.31738
1.87432
2.44998
2.56425
2.54576
2.52507
2.46539
2.3839
1
1
1
1
1
1
1.00001
1.00002
1.00006
1.00011
1.00037
1.00069
1.00224
1.0043
1.01309
1.029
1.07702
1.20861
1.60799
2.16854
2.47479
2.4797
2.45823
2.42924
2.35831
1
1
1
1
1
1
1.00001
1.00001
1.00004
1.00008
1.00026
1.00047
1.00155
1.00297
1.00882
1.02023
1.05005
1.14641
1.36002
1.97259
2.34218
2.42795
2.4194
2.40004
2.35097
1
1
1
1
1
1
1
1.00001
1.00003
1.00005
1.00016
1.0003
1.00097
1.00186
1.00569
1.01213
1.03325
1.08625
1.22068
1.56981
2.19996
2.35581
2.35174
2.3331
2.31027
1
1
1
1
1
1
1
1.00001
1.00001
1.00004
1.00008
1.00025
1.00047
1.00141
1.00309
1.00782
1.02154
1.04986
1.14922
1.37292
1.90994
2.2657
2.32089
2.31241
2.29057
1
1
1
1
1
1
1
1
1.00001
1.00003
1.00005
1.00015
1.00029
1.00094
1.00176
1.00562
1.0113
1.03236
1.07892
1.20975
1.52012
2.10046
2.24767
2.25614
2.2424
1
1
1
1
1
1
1
1
1.00001
1.00001
1.00004
1.00007
1.00022
1.00042
1.00129
1.00267
1.00747
1.01813
1.04476
1.12296
1.33265
1.75278
2.15133
2.22199
2.21561
1
1
1
1
1
1
1
1
1
1.00001
1.00002
1.00005
1.0001
1.00031
1.0006
1.00188
1.00381
1.01126
1.02473
1.0693
1.16391
1.52512
1.86801
2.11654
2.17481
1
1
1
1
1
1
1
1
1
1
1.00001
1.00002
1.00007
1.00013
1.00042
1.00081
1.00245
1.00528
1.01381
1.03645
1.08357
1.24603
1.62699
2.01118
2.1051
1
1
1
1
1
1
1
1
1
1
1.00001
1.00001
1.00004
1.00007
1.00023
1.00043
1.00138
1.00268
1.00814
1.01752
1.04806
1.11766
1.33972
1.72078
1.98634
1
1
1
1
1
1
1
1
1
1
1
1.00001
1.00002
1.00003
1.00011
1.00021
1.00068
1.00131
1.00402
1.00848
1.02366
1.05918
1.14867
1.37737
1.79834
1
1
1
1
1
1
1
1
1
1
1
1
1.00001
1.00002
1.00004
1.00013
1.00025
1.00079
1.00156
1.0048
1.01003
1.02874
1.06756
1.18876
1.43707
1
1
1
1
1
1
1
1
1
1
1
1
1
1.00001
1.00002
1.00006
1.00012
1.00039
1.00074
1.00232
1.00479
1.01294
1.03315
1.07521
1.22451
1
1
1
1
1
1
1
1
1
1
1
1
1
1
1.00001
1.00003
1.00005
1.00017
1.00032
1.00105
1.00204
1.00634
1.01322
1.03854
1.08741
1
1
1
1
1
1
1
1
1
1
1
1
1
1
1
1.00001
1.00003
1.00005
1.00017
1.00034
1.00106
1.00218
1.00651
1.01421
1.04073
1
1
1
1
1
1
1
1
1
1
1
1
1
1
1
1
1.00001
1.00002
1.00007
1.00013
1.00044
1.00085
1.00264
1.00567
1.0154
1
1
1
1
1
1
1
1
1
1
1
1
1
1
1
1
1
1.00001
1.00003
1.00005
1.00016
1.00032
1.00104
1.00205
1.00644
1
1
1
1
1
1
1
1
1
1
1
1
1
1
1
1
1
1
1.00001
1.00002
1.00004
1.00014
1.00028
1.00087
1.00184
1
1
1
1
1
1
1
1
1
1
1
1
1
1
1
1
1
1
1
1.00001
1.00002
1.00004
1.00011
1.00024
1.00074
1
1
1
1
1
1
1
1
1
1
1
1
1
1
1
1
1
1
1
1
1.00001
1.00001
1.00004
1.00007
1.00024
1
1
1
1
1
1
1
1
1
1
1
1
1
1
1
1
1
1
1
1
1
1
1.00001
1.00002
1.00007
1
1
1
1
1
1
1
1
1
1
1
1
1
1
1
1
1
1
1
1
1
1
1
1.00001
1.00001
1
1
1
1
1
1
1
1
1
1
1
1
1
1
1
1
1
1
1
1
1
1
1
1
1
1
1
1
1
1
1
1
1
1
1
1
1
1
1
1
1
1
1
1
1
1
1
1
1
1
1
1
1
1
1
1
1
1
1
1
1
1
1
1
1
1
1
1
1
1
1
1
1
1
1
1
1
1
1
1
1
1
1
1
1
1
1
1
1
1
1
1
1
1
1
1
1
1
1
1
1
1
1
1
1
1
1
1
1
1
1
1
1
1
1
1
1
1
1
1
1
1
1
1
1
1
1
1
1
1
1
1
1
1
1
1
1
1
1
1
1
1
1
1
1
1
1
1
1
1
1
1
1
1
1
1
1
1
1
1
1
1
1
1
1
1
1
1
1
1
1
1
1
1
1
1
1
1
1
1
1
1
1
1
1
1
1
1
1
1
1
1
1
1
1
1
1
1
1
1
1
1
1
1
1
1
1
1
1
1
1
1
1
1
1
1
1
1
1
1
1
1
1
1
1
1
1
1
1
1
1
1
1
1
1
1
1
1
1
1
1
1
1
1
1
1
1
1
1
1
1
1
1
1
1
1
1
1
1
1
1
1
1
1
1
1
1
1
1
1
1
1
1
1
1
1
1
1
1
1
1
1
1
1
1
1
1
1
1
1
1
1
1
1
1
1
1
1
1
1
1
1
1
1
1
1
1
1
1
1
1
1
1
1
1
1
1
1
1
1
1
1
1
1
1
2.77685
2.66038
2.65992
2.67841
2.77532
2.83392
2.87503
2.89024
2.887
2.86993
2.85477
2.83314
2.80699
2.78748
2.76888
2.75033
2.7305
2.70851
2.68421
2.65858
2.6336
2.61109
2.59155
2.57448
2.55897
2.54377
2.52766
2.51032
2.49303
2.4779
2.46612
2.45842
2.45575
2.45625
2.45958
2.46886
2.48463
2.5028
2.51999
2.53194
2.53664
2.5361
2.52814
2.49766
2.4288
2.33159
2.2182
2.09496
1.96851
1.84454
1.72742
1.61991
1.5235
1.43875
1.3655
1.3031
1.25056
1.20679
1.17073
1.14136
1.11778
1.09914
1.08476
1.07394
1.06601
1.06023
1.05594
1.05254
1.04959
1.04674
1.04375
1.04047
1.03682
1.03285
1.02879
1.02495
1.02163
1.01882
1.01627
1.0136
1.01054
1.0078
1.00461
1.00214
1.00056
0.999654
0.999214
0.999068
0.999069
0.999142
0.99932
0.999494
0.999633
0.999741
0.999821
0.99988
0.999921
0.999949
0.999969
0.999979
2.59269
2.51578
2.47645
2.44774
2.41429
2.36555
2.32388
2.31258
2.31428
2.31648
2.31598
2.31341
2.30768
2.2959
2.28122
2.26774
2.25568
2.24263
2.22761
2.21117
2.19414
2.1772
2.16132
2.14752
2.136
2.1259
2.11595
2.10513
2.0932
2.08098
2.06966
2.06049
2.05511
2.0539
2.0546
2.05755
2.06486
2.07824
2.09442
2.10919
2.11889
2.12259
2.12179
2.11463
2.09193
2.04227
1.97401
1.89601
1.8124
1.72712
1.64352
1.56413
1.49063
1.42377
1.3637
1.31015
1.26271
1.22103
1.18475
1.15357
1.1272
1.10526
1.08729
1.07281
1.06136
1.0525
1.04576
1.04067
1.0367
1.03339
1.03034
1.02732
1.02424
1.02116
1.01822
1.01561
1.01348
1.01177
1.01027
1.00871
1.00693
1.00414
1.00151
0.99978
0.99878
0.998313
0.998191
0.998226
0.998399
0.99873
0.999027
0.999274
0.99947
0.999621
0.999735
0.999818
0.999877
0.999919
0.999948
0.999964
2.53509
2.47379
2.40996
2.32602
2.24789
2.17942
2.13563
2.11904
2.1223
2.12462
2.12283
2.12232
2.11645
2.11114
2.10701
2.10006
2.09259
2.08456
2.07415
2.06144
2.04769
2.034
2.02121
2.01004
2.00093
1.99358
1.98706
1.98024
1.97254
1.96407
1.95532
1.94719
1.94124
1.93866
1.93846
1.93887
1.94008
1.943
1.94722
1.95047
1.95156
1.95092
1.94583
1.92879
1.89304
1.84507
1.78912
1.72773
1.66332
1.59803
1.5337
1.47179
1.41335
1.35908
1.3093
1.26406
1.22324
1.18671
1.15438
1.12626
1.10229
1.08237
1.06623
1.05349
1.0437
1.0364
1.03113
1.02744
1.02491
1.02306
1.02145
1.01975
1.01786
1.01586
1.01392
1.01225
1.01093
1.0099
1.00892
1.00785
1.0062
1.00332
1.00099
0.999478
0.998621
0.99824
0.998157
0.998212
0.998433
0.998772
0.999065
0.999305
0.999495
0.999641
0.99975
0.99983
0.999887
0.999926
0.999953
0.999968
2.43613
2.38827
2.33404
2.27384
2.21466
2.16065
2.11387
2.07252
2.03657
2.00545
1.98259
1.97648
1.97719
1.98078
1.98871
1.99348
1.99281
1.98898
1.97869
1.96277
1.94793
1.93505
1.92509
1.9172
1.91148
1.90655
1.9022
1.89609
1.88906
1.88052
1.87277
1.86447
1.85732
1.85101
1.84736
1.84363
1.83979
1.83672
1.8354
1.83438
1.83256
1.82712
1.81385
1.78879
1.75505
1.71338
1.66515
1.61219
1.55658
1.50027
1.44498
1.39206
1.3424
1.29657
1.25483
1.21727
1.18378
1.15416
1.12816
1.10553
1.08607
1.06966
1.05619
1.04549
1.03725
1.03111
1.02663
1.02339
1.02106
1.01928
1.01778
1.01627
1.01459
1.01271
1.01082
1.00918
1.008
1.00719
1.00664
1.00583
1.00405
1.00148
0.999572
0.998386
0.997787
0.997596
0.997617
0.997796
0.998202
0.998598
0.998933
0.999205
0.999421
0.999586
0.99971
0.999801
0.999865
0.999911
0.999942
0.99996
2.37579
2.34151
2.29989
2.24773
2.1936
2.1373
2.08276
2.02871
1.9781
1.93658
1.90801
1.89517
1.89616
1.90067
1.90899
1.91311
1.91335
1.91109
1.90449
1.89455
1.88456
1.87501
1.86738
1.862
1.85703
1.85182
1.84582
1.83844
1.82958
1.82038
1.8119
1.80443
1.79772
1.79287
1.79021
1.78748
1.78231
1.77652
1.77107
1.76511
1.75537
1.73917
1.71593
1.68545
1.6486
1.6068
1.56168
1.51479
1.46738
1.42051
1.37503
1.33166
1.29085
1.2529
1.218
1.18621
1.15756
1.13197
1.10936
1.08956
1.07242
1.05784
1.04577
1.03612
1.02875
1.02338
1.01966
1.01715
1.01545
1.01419
1.01313
1.01204
1.01085
1.00953
1.00824
1.00712
1.00643
1.00606
1.00579
1.00498
1.00323
1.00088
0.999166
0.998138
0.997652
0.997529
0.997585
0.997834
0.998269
0.998657
0.998982
0.999246
0.999453
0.999611
0.999729
0.999816
0.999876
0.999919
0.999948
0.999965
2.31717
2.2683
2.22859
2.18868
2.145
2.09765
2.04792
1.99946
1.95538
1.91846
1.89012
1.87128
1.85994
1.85456
1.85198
1.85011
1.84803
1.84541
1.84223
1.83856
1.83394
1.82904
1.82343
1.8178
1.81189
1.80461
1.79642
1.78756
1.77828
1.76901
1.76076
1.75365
1.74713
1.74172
1.73852
1.73515
1.72838
1.71872
1.70779
1.69561
1.6802
1.6593
1.63239
1.59947
1.56158
1.52054
1.47815
1.43574
1.39412
1.35379
1.3151
1.27841
1.24399
1.21198
1.18253
1.15566
1.13139
1.10973
1.09068
1.07412
1.05989
1.04782
1.03781
1.0298
1.02369
1.01931
1.01635
1.01446
1.01323
1.0123
1.01141
1.01042
1.00924
1.00792
1.00663
1.00563
1.00514
1.00483
1.00448
1.00375
1.0023
0.999997
0.998383
0.9975
0.997158
0.997129
0.997267
0.997673
0.998159
0.998575
0.998921
0.999199
0.999417
0.999585
0.999709
0.999801
0.999865
0.999911
0.999942
0.99996
2.29557
2.23997
2.19113
2.1463
2.10176
2.05842
2.01479
1.97402
1.93507
1.90211
1.87533
1.85494
1.83746
1.82084
1.80583
1.79309
1.7841
1.77917
1.77702
1.77647
1.77654
1.77625
1.77508
1.77228
1.76708
1.76015
1.7517
1.74197
1.7317
1.72216
1.71405
1.70767
1.70204
1.69673
1.69275
1.6883
1.67984
1.66677
1.65039
1.63173
1.60997
1.58378
1.55305
1.5181
1.48013
1.44097
1.40197
1.36445
1.32869
1.29494
1.26318
1.23334
1.20543
1.17958
1.15578
1.13374
1.11335
1.0947
1.07804
1.06361
1.0513
1.04085
1.03217
1.02518
1.01981
1.01594
1.01335
1.01175
1.01075
1.01001
1.00924
1.00828
1.00715
1.00599
1.00496
1.00443
1.00421
1.00398
1.00378
1.00316
1.00155
0.999362
0.99797
0.997265
0.997035
0.997058
0.997267
0.997749
0.998226
0.998633
0.998969
0.999238
0.999448
0.999609
0.999728
0.999814
0.999875
0.999918
0.999947
0.999964
2.27514
2.20808
2.15155
2.10286
2.05804
2.01671
1.97799
1.94272
1.91339
1.88833
1.8663
1.8442
1.82079
1.79753
1.77571
1.75737
1.74439
1.73584
1.73149
1.73041
1.73045
1.7307
1.73049
1.72911
1.72535
1.71947
1.71174
1.70233
1.6927
1.6834
1.6753
1.66868
1.66318
1.65711
1.6503
1.64252
1.63089
1.61384
1.59215
1.56781
1.54172
1.51299
1.48148
1.44738
1.41166
1.37567
1.34067
1.30746
1.27657
1.248
1.22146
1.19675
1.17366
1.15212
1.13213
1.11368
1.09668
1.08107
1.06699
1.05476
1.04431
1.03495
1.02737
1.02155
1.01714
1.01399
1.01189
1.01061
1.00987
1.00935
1.00868
1.00767
1.00639
1.00513
1.00435
1.00408
1.00371
1.00359
1.00332
1.00252
1.00049
0.998576
0.997436
0.996904
0.996778
0.996855
0.997179
0.997721
0.998207
0.99862
0.998959
0.999231
0.999443
0.999604
0.999723
0.99981
0.999872
0.999915
0.999945
0.999962
2.25192
2.1891
2.1289
2.07746
2.03236
1.99146
1.95514
1.92322
1.8954
1.87043
1.84723
1.8246
1.80192
1.77958
1.75816
1.74014
1.72441
1.71241
1.70326
1.69628
1.6908
1.686
1.68192
1.67863
1.67485
1.66994
1.66433
1.65778
1.65008
1.64249
1.63562
1.62938
1.62309
1.61542
1.60514
1.59209
1.57541
1.55376
1.52857
1.50115
1.47268
1.44291
1.41166
1.37985
1.34782
1.31615
1.28561
1.25688
1.23051
1.2065
1.18467
1.16458
1.14582
1.12818
1.1116
1.09641
1.08218
1.06892
1.0569
1.04634
1.03737
1.0302
1.02428
1.01884
1.01489
1.0124
1.01066
1.00952
1.0088
1.00831
1.00774
1.00686
1.00566
1.00455
1.004
1.00336
1.00317
1.00313
1.0029
1.00178
0.999582
0.997997
0.997084
0.996705
0.996663
0.996806
0.997246
0.997799
0.998278
0.998681
0.999009
0.999271
0.999474
0.999627
0.999741
0.999823
0.999881
0.999922
0.999949
0.999965
2.24323
2.17035
2.10972
2.05742
2.01304
1.97663
1.94577
1.91796
1.89235
1.86796
1.84317
1.81759
1.792
1.76844
1.74732
1.72926
1.71398
1.70047
1.68791
1.67489
1.66211
1.65077
1.64079
1.63286
1.62714
1.62147
1.61524
1.60948
1.60354
1.59723
1.59087
1.58392
1.57558
1.56517
1.55152
1.53421
1.51344
1.48953
1.46334
1.43605
1.40787
1.37929
1.3504
1.32183
1.29397
1.26667
1.24032
1.21555
1.19285
1.17246
1.15425
1.13779
1.12254
1.10838
1.09476
1.08143
1.06907
1.05788
1.04782
1.03891
1.03123
1.02501
1.02023
1.01649
1.01304
1.01087
1.00969
1.00879
1.00807
1.00749
1.00692
1.00625
1.00547
1.00491
1.00385
1.00311
1.00289
1.0028
1.00246
1.001
0.99892
0.997502
0.996751
0.9965
0.996525
0.996759
0.997304
0.997851
0.998323
0.998717
0.999038
0.999292
0.999489
0.999638
0.999748
0.999828
0.999884
0.999923
0.99995
0.999965
2.22242
2.16948
2.10484
2.04969
2.00624
1.96898
1.93845
1.91242
1.88803
1.86392
1.83889
1.81348
1.78833
1.76502
1.74404
1.72512
1.70712
1.68847
1.66883
1.64906
1.63115
1.6155
1.60327
1.59293
1.58325
1.57453
1.56531
1.55579
1.54742
1.53952
1.53124
1.52274
1.51286
1.50097
1.48662
1.46883
1.44749
1.42396
1.39988
1.37532
1.34953
1.32316
1.29709
1.27227
1.2486
1.22552
1.20311
1.18195
1.16258
1.14543
1.13027
1.11688
1.10495
1.09339
1.08171
1.07037
1.05966
1.04985
1.0411
1.03347
1.02698
1.02163
1.01752
1.01454
1.01218
1.0102
1.00934
1.00859
1.00769
1.0068
1.00601
1.00534
1.00509
1.00454
1.00351
1.00291
1.00268
1.00254
1.00205
1.00055
0.998442
0.99714
0.996541
0.996402
0.996486
0.996835
0.997424
0.997955
0.99841
0.998789
0.999095
0.999337
0.999523
0.999663
0.999766
0.99984
0.999893
0.999929
0.999954
0.999968
2.19147
2.15611
2.10303
2.04923
2.00341
1.96795
1.93671
1.90923
1.88446
1.86073
1.83611
1.81116
1.78645
1.76278
1.74063
1.71784
1.69559
1.67088
1.64822
1.62589
1.60716
1.59173
1.57777
1.56489
1.55194
1.53754
1.52395
1.51081
1.4977
1.48657
1.47584
1.46416
1.45187
1.43858
1.42337
1.40579
1.3856
1.36381
1.34205
1.32014
1.29748
1.27422
1.25185
1.23081
1.21068
1.19132
1.17262
1.15474
1.13818
1.12359
1.11142
1.10138
1.09165
1.08179
1.07211
1.06273
1.05367
1.04513
1.03743
1.03075
1.02507
1.02047
1.0169
1.01425
1.01234
1.01074
1.01003
1.00942
1.00839
1.00709
1.00595
1.00543
1.00488
1.00397
1.00337
1.00311
1.00299
1.00275
1.00196
0.999885
0.997899
0.996848
0.996433
0.996386
0.99653
0.996976
0.997556
0.998066
0.998501
0.99886
0.99915
0.999377
0.999552
0.999684
0.999781
0.99985
0.999899
0.999933
0.999957
0.99997
2.16745
2.14352
2.09367
2.04538
2.00098
1.96403
1.93452
1.90671
1.88027
1.85388
1.82775
1.80322
1.77965
1.75632
1.73294
1.70827
1.68276
1.65777
1.63414
1.61352
1.59546
1.57838
1.5627
1.54539
1.52745
1.50934
1.49023
1.47257
1.45615
1.43991
1.42546
1.41151
1.39614
1.38074
1.36478
1.347
1.32775
1.30814
1.288
1.26821
1.24884
1.22944
1.21038
1.19237
1.17539
1.15952
1.14462
1.12991
1.11573
1.10384
1.09499
1.08715
1.07929
1.07155
1.06374
1.05591
1.04832
1.04127
1.03479
1.02893
1.02405
1.02018
1.01726
1.0152
1.01363
1.01223
1.01157
1.01108
1.01003
1.00841
1.007
1.00585
1.0045
1.0038
1.00358
1.0036
1.00358
1.00307
1.00134
0.998892
0.997411
0.996659
0.996404
0.996422
0.996635
0.997159
0.997715
0.998199
0.998609
0.998946
0.999216
0.999428
0.99959
0.999711
0.9998
0.999864
0.999909
0.999939
0.999961
0.999973
2.11785
2.10367
2.07835
2.03266
1.99076
1.95408
1.92081
1.89459
1.86843
1.84193
1.81555
1.78887
1.76321
1.73878
1.71517
1.6924
1.67011
1.64844
1.6274
1.60752
1.58772
1.56908
1.54833
1.52844
1.50655
1.48465
1.4638
1.44264
1.42297
1.40455
1.38549
1.36804
1.35088
1.3324
1.3146
1.29698
1.27823
1.25952
1.24187
1.22374
1.20608
1.18939
1.17271
1.15697
1.14223
1.1287
1.11666
1.1044
1.09191
1.08233
1.07584
1.06955
1.06371
1.05791
1.052
1.04614
1.04038
1.03508
1.03027
1.02602
1.02247
1.01944
1.0171
1.01554
1.01459
1.01373
1.01305
1.0127
1.01194
1.01049
1.00877
1.00641
1.00474
1.00417
1.00421
1.0044
1.0042
1.00284
1.00022
0.998321
0.997161
0.996599
0.996453
0.996517
0.996817
0.997377
0.997896
0.998348
0.998727
0.999038
0.999287
0.99948
0.999628
0.999738
0.999819
0.999876
0.999917
0.999945
0.999965
0.999975
2.0644
2.06001
2.04543
2.0215
1.97854
1.93696
1.90146
1.86784
1.8387
1.81349
1.7903
1.76877
1.7478
1.72658
1.70488
1.6831
1.6612
1.6396
1.61827
1.59732
1.57656
1.55529
1.53362
1.51067
1.48752
1.46422
1.44079
1.41894
1.397
1.37592
1.35588
1.33485
1.31488
1.29553
1.27537
1.25641
1.23875
1.22027
1.203
1.18749
1.17186
1.15599
1.14192
1.12784
1.11404
1.10168
1.09099
1.08057
1.0691
1.06044
1.05525
1.05021
1.04572
1.04143
1.03714
1.03295
1.02908
1.02564
1.02269
1.02022
1.01822
1.0167
1.01561
1.01487
1.01437
1.01405
1.01388
1.01358
1.01313
1.01215
1.00997
1.00696
1.00508
1.0045
1.0046
1.00478
1.00425
1.00218
0.99972
0.998012
0.997029
0.99661
0.99655
0.996668
0.997061
0.997606
0.99809
0.998506
0.998853
0.999136
0.999361
0.999535
0.999668
0.999767
0.999839
0.99989
0.999927
0.999951
0.999969
0.999978
1.95578
2.01175
2.00656
1.9951
1.96687
1.92614
1.88661
1.85083
1.81892
1.79056
1.76714
1.74708
1.72895
1.71127
1.69265
1.67228
1.65039
1.62803
1.60586
1.58431
1.56288
1.54104
1.51838
1.49477
1.47078
1.44655
1.42301
1.3995
1.37725
1.35481
1.3329
1.31162
1.28992
1.26882
1.24882
1.22847
1.21016
1.19325
1.17611
1.15997
1.14608
1.13118
1.11711
1.10457
1.0922
1.08019
1.07071
1.06234
1.05231
1.04373
1.03916
1.03482
1.03099
1.02745
1.02404
1.02089
1.01824
1.0162
1.0147
1.01365
1.013
1.01273
1.01274
1.01295
1.01332
1.01354
1.01359
1.01356
1.01336
1.01253
1.01039
1.00744
1.00541
1.00464
1.00464
1.00474
1.00399
1.00173
0.999352
0.997808
0.996999
0.996715
0.996724
0.996902
0.997362
0.997862
0.9983
0.998674
0.998985
0.999238
0.999437
0.999592
0.999709
0.999796
0.999859
0.999904
0.999936
0.999957
0.999973
0.99998
1.8182
1.92895
1.96973
1.96038
1.94896
1.91889
1.87923
1.84007
1.80497
1.77557
1.75102
1.7302
1.71156
1.69313
1.6736
1.65312
1.63228
1.61165
1.5912
1.57073
1.54958
1.52751
1.50437
1.4805
1.45636
1.43227
1.40859
1.38517
1.36212
1.33933
1.31669
1.29435
1.27284
1.25143
1.23134
1.21214
1.19331
1.17599
1.16005
1.1436
1.12876
1.1154
1.10136
1.08842
1.07795
1.06683
1.05678
1.04925
1.04107
1.03208
1.02735
1.02389
1.02067
1.01781
1.01509
1.01267
1.01084
1.00974
1.00917
1.00898
1.00905
1.00945
1.01035
1.01128
1.01211
1.01272
1.01302
1.01306
1.01288
1.0121
1.01011
1.00746
1.00555
1.0047
1.00455
1.00449
1.00366
1.00121
0.998977
0.997662
0.997059
0.996906
0.99696
0.997213
0.997685
0.998126
0.998513
0.998843
0.999117
0.999338
0.999513
0.999647
0.999749
0.999824
0.999878
0.999917
0.999945
0.999963
0.999977
0.999983
1.52497
1.83341
1.90259
1.92336
1.90979
1.89824
1.86968
1.83334
1.79654
1.76333
1.73566
1.7128
1.69302
1.67462
1.65681
1.63863
1.61975
1.5999
1.57924
1.55787
1.53583
1.51323
1.4901
1.46679
1.44341
1.42013
1.39699
1.37388
1.35087
1.32787
1.30519
1.28292
1.26132
1.24086
1.22094
1.2025
1.18488
1.1676
1.15135
1.13559
1.12042
1.10626
1.09381
1.08106
1.06979
1.06093
1.05129
1.0431
1.03691
1.02857
1.02149
1.01869
1.01568
1.01301
1.0105
1.00833
1.00688
1.0063
1.00626
1.00643
1.00701
1.00818
1.00945
1.01069
1.01178
1.01257
1.01297
1.013
1.01272
1.01172
1.00966
1.00743
1.0058
1.00505
1.00482
1.00443
1.00329
1.00057
0.998647
0.997647
0.997259
0.997208
0.997297
0.997595
0.998015
0.998396
0.99873
0.999014
0.999249
0.999438
0.999587
0.999701
0.999788
0.999851
0.999897
0.99993
0.999953
0.999969
0.99998
0.999985
1.27283
1.51803
1.80003
1.86443
1.87465
1.86293
1.84943
1.82057
1.78819
1.7548
1.72488
1.70039
1.68061
1.66332
1.64638
1.62821
1.6084
1.58725
1.56536
1.54322
1.52084
1.49847
1.47615
1.45396
1.4318
1.40963
1.38731
1.36483
1.3422
1.3196
1.29729
1.2755
1.25462
1.2346
1.21568
1.19754
1.1803
1.1637
1.14753
1.13252
1.11797
1.10404
1.09149
1.08027
1.06943
1.0599
1.05225
1.04396
1.03704
1.03155
1.024
1.01891
1.01676
1.01413
1.01174
1.00964
1.00827
1.00786
1.00791
1.00821
1.00903
1.01027
1.01152
1.01266
1.01358
1.01416
1.01434
1.01419
1.0135
1.01191
1.00995
1.00805
1.00674
1.00606
1.00563
1.00471
1.00251
0.999885
0.998473
0.997828
0.997616
0.99761
0.997709
0.997995
0.998344
0.998663
0.998942
0.99918
0.999376
0.999534
0.999658
0.999753
0.999824
0.999877
0.999915
0.999942
0.999961
0.999974
0.999984
0.999988
1.09258
1.2974
1.50996
1.76531
1.82125
1.8286
1.81945
1.80632
1.77887
1.74962
1.71929
1.69221
1.66979
1.65089
1.63339
1.61547
1.59594
1.5748
1.55244
1.52958
1.50699
1.48502
1.46363
1.44262
1.42171
1.40067
1.37929
1.35763
1.3357
1.31382
1.2922
1.27122
1.25101
1.23172
1.21328
1.19554
1.17859
1.16214
1.1467
1.13201
1.11839
1.10603
1.09449
1.08413
1.07467
1.06538
1.05732
1.05029
1.04309
1.03705
1.03204
1.02566
1.02224
1.02027
1.01782
1.01572
1.01425
1.01374
1.01377
1.01402
1.01471
1.01565
1.01662
1.01739
1.01786
1.01794
1.01768
1.01683
1.01539
1.01357
1.01165
1.01003
1.00893
1.00809
1.00682
1.00416
1.00121
0.999569
0.998668
0.998231
0.998085
0.998086
0.998166
0.998395
0.998673
0.998927
0.999152
0.999343
0.9995
0.999627
0.999726
0.999802
0.999859
0.999901
0.999932
0.999953
0.999969
0.999979
0.999987
0.99999
1.03887
1.09421
1.24699
1.51593
1.73536
1.78807
1.78692
1.77826
1.76535
1.74101
1.71467
1.6864
1.66111
1.63968
1.62071
1.60227
1.58298
1.56223
1.54033
1.51809
1.49612
1.4748
1.45412
1.43389
1.41377
1.39355
1.37299
1.35216
1.33109
1.31009
1.28934
1.26919
1.24969
1.23095
1.21285
1.19545
1.17876
1.16294
1.14818
1.13454
1.12221
1.11079
1.10053
1.09078
1.0819
1.0738
1.06599
1.05916
1.05302
1.04665
1.04177
1.0371
1.03207
1.02981
1.02767
1.02545
1.024
1.02317
1.02305
1.02318
1.0235
1.02395
1.02426
1.02436
1.0242
1.02365
1.02247
1.02084
1.01888
1.01683
1.015
1.01356
1.01199
1.00963
1.00563
1.00294
1.00113
0.99991
0.999148
0.998747
0.998602
0.998592
0.998642
0.998794
0.998997
0.999186
0.999354
0.999498
0.999617
0.999713
0.999789
0.999847
0.999891
0.999923
0.999947
0.999964
0.999976
0.999983
0.99999
0.999992
1.01342
1.03988
1.08731
1.28223
1.4435
1.69023
1.74252
1.74383
1.7361
1.72553
1.70658
1.68244
1.65558
1.63157
1.61107
1.59209
1.57268
1.55198
1.53026
1.50845
1.4873
1.46692
1.44713
1.42766
1.40822
1.38865
1.36882
1.34874
1.32852
1.30838
1.28848
1.26901
1.25
1.23169
1.21407
1.19729
1.18141
1.1667
1.1531
1.14064
1.12911
1.11848
1.10863
1.09947
1.09108
1.08316
1.07608
1.06934
1.06338
1.05799
1.0528
1.04889
1.04486
1.0411
1.03951
1.03759
1.03588
1.03484
1.03432
1.03401
1.0339
1.03376
1.03343
1.03279
1.03176
1.03027
1.02838
1.02625
1.02399
1.02183
1.01963
1.01672
1.01196
1.00833
1.00549
1.0033
1.00166
1.00052
0.999773
0.99934
0.999147
0.999107
0.999122
0.999187
0.999309
0.999431
0.999544
0.999643
0.999725
0.999793
0.999847
0.999888
0.99992
0.999943
0.999961
0.999973
0.999982
0.999987
0.999992
0.999994
1.00554
1.01214
1.03481
1.079
1.24978
1.39453
1.63766
1.69889
1.70563
1.69784
1.68914
1.67522
1.6518
1.62778
1.60573
1.58516
1.56473
1.5439
1.52273
1.50167
1.48123
1.46161
1.44245
1.42348
1.40449
1.3854
1.3662
1.34687
1.3275
1.30812
1.28884
1.27003
1.25189
1.23457
1.21804
1.20233
1.18748
1.17359
1.16069
1.14882
1.13785
1.12774
1.11833
1.10963
1.10152
1.09406
1.08712
1.08074
1.07506
1.06969
1.06511
1.06105
1.05775
1.05432
1.05167
1.05035
1.04854
1.04736
1.04651
1.04583
1.04523
1.04435
1.04333
1.04183
1.03998
1.03783
1.03542
1.03282
1.03006
1.02598
1.02079
1.0163
1.01231
1.00891
1.00613
1.00396
1.00235
1.00121
1.00045
0.999983
0.999712
0.999581
0.999551
0.999558
0.999591
0.999651
0.999713
0.99977
0.99982
0.999862
0.999897
0.999924
0.999945
0.999961
0.999972
0.999981
0.999987
0.999991
0.999995
0.999995
1.00154
1.00469
1.01019
1.02945
1.0668
1.20639
1.34184
1.57878
1.6555
1.67282
1.66462
1.65626
1.64245
1.62012
1.59912
1.57961
1.56003
1.53971
1.51895
1.49827
1.4782
1.4589
1.44016
1.4215
1.40282
1.3841
1.3654
1.34665
1.32777
1.30897
1.29061
1.27301
1.25618
1.23992
1.22427
1.20926
1.19507
1.18184
1.16963
1.15841
1.14804
1.13839
1.12939
1.121
1.11316
1.10593
1.09923
1.09311
1.08753
1.08259
1.07802
1.07415
1.07104
1.06801
1.06526
1.06346
1.06199
1.06044
1.05928
1.0582
1.05687
1.05535
1.05352
1.0513
1.0488
1.04602
1.04253
1.03745
1.03236
1.02711
1.02196
1.01723
1.01308
1.00961
1.00681
1.00464
1.00303
1.00188
1.00108
1.00056
1.00022
1.00001
0.999901
0.999844
0.999832
0.999835
0.999851
0.999874
0.999897
0.999919
0.999937
0.999953
0.999965
0.999975
0.999982
0.999987
0.999991
0.999994
0.999996
0.999997
1.00047
1.0015
1.00313
1.00906
1.02105
1.05376
1.1376
1.30642
1.50711
1.61608
1.63702
1.62849
1.61924
1.60682
1.59146
1.57509
1.55757
1.53841
1.51811
1.49775
1.47781
1.45857
1.43991
1.42142
1.40286
1.38435
1.36593
1.34762
1.32943
1.31167
1.29455
1.27798
1.262
1.24652
1.23159
1.21735
1.20393
1.19148
1.18
1.16943
1.15959
1.15034
1.14163
1.13346
1.12583
1.11878
1.1123
1.10638
1.10102
1.09622
1.09191
1.08812
1.08495
1.0822
1.07927
1.07711
1.07568
1.07408
1.07246
1.07065
1.06861
1.06635
1.06376
1.06044
1.05637
1.05168
1.0463
1.04039
1.03426
1.02828
1.02272
1.01778
1.01355
1.01005
1.00726
1.00512
1.00353
1.00238
1.00156
1.00098
1.00059
1.00033
1.00016
1.00006
0.999998
0.999967
0.999953
0.999952
0.999954
0.99996
0.999968
0.999974
0.99998
0.999985
0.999989
0.999992
0.999995
0.999996
0.999998
0.999998
1.00014
1.00044
1.00089
1.00272
1.00589
1.01674
1.03834
1.10861
1.21576
1.42247
1.58214
1.59856
1.59144
1.58598
1.57657
1.56583
1.55298
1.53687
1.51817
1.49871
1.47911
1.46
1.44144
1.42311
1.40483
1.38659
1.36871
1.35112
1.33388
1.31701
1.30055
1.28459
1.26928
1.25453
1.24037
1.22693
1.21433
1.20268
1.19192
1.1819
1.17247
1.1635
1.15497
1.14694
1.13949
1.1326
1.1263
1.12056
1.11537
1.11069
1.1065
1.1028
1.09957
1.09668
1.09379
1.09121
1.08951
1.08763
1.08528
1.08265
1.0797
1.07629
1.07228
1.06752
1.06192
1.05556
1.04872
1.04173
1.03489
1.02849
1.02272
1.01767
1.01339
1.00995
1.00728
1.00526
1.00374
1.00262
1.0018
1.00121
1.0008
1.00051
1.00031
1.00018
1.0001
1.00005
1.00002
1
0.999992
0.999988
0.999988
0.999989
0.999991
0.999993
0.999994
0.999996
0.999997
0.999998
0.999999
0.999998
1.00004
1.00009
1.00028
1.00062
1.00175
1.0042
1.01081
1.02764
1.068
1.15853
1.33163
1.50071
1.55024
1.55932
1.55281
1.54838
1.5414
1.53105
1.51649
1.49947
1.48206
1.46426
1.44642
1.42858
1.41077
1.39302
1.37545
1.35838
1.34138
1.32463
1.30853
1.29321
1.27856
1.26456
1.25111
1.2384
1.22659
1.21567
1.20552
1.19588
1.18669
1.17782
1.16939
1.16146
1.15412
1.14741
1.14124
1.13565
1.13056
1.12596
1.12179
1.11803
1.11464
1.11143
1.10828
1.10545
1.10319
1.10049
1.09715
1.09345
1.08923
1.0843
1.07853
1.07193
1.06465
1.05694
1.0491
1.04144
1.03417
1.02743
1.02143
1.01641
1.0124
1.00927
1.00685
1.005
1.0036
1.00256
1.0018
1.00124
1.00084
1.00056
1.00037
1.00023
1.00015
1.00009
1.00005
1.00003
1.00001
1
1
0.999998
0.999997
0.999997
0.999998
0.999998
0.999999
0.999999
0.999999
0.999999
1.00001
1.00002
1.00007
1.00015
1.00047
1.00097
1.00295
1.00636
1.01781
1.0407
1.11317
1.20939
1.37818
1.50694
1.52778
1.52766
1.52129
1.51359
1.50577
1.49573
1.48186
1.46685
1.45122
1.43506
1.41831
1.40129
1.38421
1.36733
1.35085
1.3346
1.319
1.30443
1.29052
1.27712
1.26427
1.25217
1.24097
1.23059
1.22079
1.21135
1.20215
1.19328
1.18483
1.177
1.16981
1.16322
1.15717
1.15158
1.14647
1.14178
1.13749
1.1335
1.12974
1.12606
1.12244
1.1192
1.11597
1.11179
1.10703
1.10172
1.09568
1.08885
1.08128
1.07314
1.06463
1.05601
1.0474
1.03894
1.03103
1.02422
1.01869
1.01428
1.01079
1.00806
1.00596
1.00436
1.00315
1.00225
1.00159
1.00111
1.00077
1.00052
1.00035
1.00023
1.00015
1.00009
1.00006
1.00003
1.00002
1.00001
1.00001
1
1
1
1
0.999999
0.999999
1
1
0.999999
1
1.00001
1.00001
1.00004
1.00009
1.00026
1.00058
1.00161
1.00384
1.00996
1.02428
1.06036
1.13108
1.25958
1.41403
1.48919
1.49192
1.49293
1.48852
1.48057
1.47224
1.46315
1.45095
1.43735
1.42276
1.40757
1.39219
1.37675
1.36148
1.34644
1.33175
1.31781
1.30465
1.29186
1.27956
1.26796
1.25717
1.24707
1.2374
1.22791
1.2186
1.20966
1.20128
1.19352
1.18636
1.17973
1.17363
1.16796
1.16272
1.15773
1.15305
1.14847
1.14401
1.13954
1.13524
1.13088
1.12549
1.11951
1.11296
1.10579
1.09798
1.08958
1.08072
1.07146
1.0617
1.05152
1.0416
1.03287
1.02571
1.01994
1.0153
1.01161