/*--------------------------------*- C++ -*----------------------------------*\
| =========                 |                                                 |
| \\      /  F ield         | OpenFOAM: The Open Source CFD Toolbox           |
|  \\    /   O peration     | Version:  2112                                  |
|   \\  /    A nd           | Website:  www.openfoam.com                      |
|    \\/     M anipulation  |                                                 |
\*---------------------------------------------------------------------------*/
FoamFile
{
    version     2.0;
    format      ascii;
    arch        "LSB;label=32;scalar=64";
    class       volVectorField;
    location    "0.5";
    object      U;
}
// * * * * * * * * * * * * * * * * * * * * * * * * * * * * * * * * * * * * * //

dimensions      [0 1 -1 0 0 0 0];

internalField   nonuniform List<vector> 
5250
(
(3 6.30949e-10 0)
(3 4.99217e-09 0)
(3 1.52696e-08 0)
(2.99999 4.71743e-08 0)
(2.99998 1.11589e-07 0)
(2.99997 3.0974e-07 0)
(2.99991 7.0209e-07 0)
(2.99979 1.94366e-06 0)
(2.99944 4.38948e-06 0)
(2.99877 1.24091e-05 0)
(2.99647 2.76399e-05 0)
(2.99261 8.29437e-05 0)
(2.97625 0.000178556 0)
(2.94755 0.000595886 0)
(2.8271 0.00137505 0)
(2.49 0.00480527 0)
(1.6341 0.0122705 0)
(0.576255 0.0348527 0)
(0.265191 0.0302725 0)
(0.425686 0.0305822 0)
(0.406148 0.033991 0)
(0.294311 0.0388711 0)
(0.211383 0.04354 0)
(0.115044 0.0461977 0)
(0.0288018 0.0427846 0)
(3 1.902e-09 0)
(3 1.49741e-08 0)
(3 4.58508e-08 0)
(2.99999 1.40831e-07 0)
(2.99998 3.32502e-07 0)
(2.99997 9.16894e-07 0)
(2.99991 2.07024e-06 0)
(2.9998 5.71733e-06 0)
(2.99945 1.28561e-05 0)
(2.99879 3.6582e-05 0)
(2.99653 8.06597e-05 0)
(2.99273 0.000247425 0)
(2.97667 0.000525345 0)
(2.94858 0.00180641 0)
(2.83025 0.0041305 0)
(2.50029 0.0150874 0)
(1.65604 0.0378557 0)
(0.588203 0.105092 0)
(0.261266 0.085905 0)
(0.426761 0.0814639 0)
(0.407713 0.0861782 0)
(0.295891 0.0935209 0)
(0.213839 0.0996311 0)
(0.119964 0.103671 0)
(0.0312317 0.0977424 0)
(3 3.18758e-09 0)
(3 2.49031e-08 0)
(3 7.64574e-08 0)
(2.99999 2.32808e-07 0)
(2.99999 5.49005e-07 0)
(2.99997 1.49473e-06 0)
(2.99991 3.35568e-06 0)
(2.9998 9.18102e-06 0)
(2.99947 2.04977e-05 0)
(2.99883 5.85273e-05 0)
(2.99665 0.000127237 0)
(2.99298 0.000400028 0)
(2.97752 0.000832757 0)
(2.95064 0.00296539 0)
(2.83713 0.00665749 0)
(2.52239 0.025666 0)
(1.70521 0.0637138 0)
(0.617093 0.18072 0)
(0.258462 0.145741 0)
(0.432378 0.136735 0)
(0.415826 0.146082 0)
(0.304092 0.15922 0)
(0.221514 0.17029 0)
(0.127703 0.178772 0)
(0.0337489 0.171279 0)
(3 4.48647e-09 0)
(3 3.47456e-08 0)
(3 1.07018e-07 0)
(2.99999 3.23218e-07 0)
(2.99999 7.62617e-07 0)
(2.99997 2.04588e-06 0)
(2.99992 4.57087e-06 0)
(2.99981 1.22761e-05 0)
(2.99949 2.71486e-05 0)
(2.99888 7.69199e-05 0)
(2.99682 0.000164006 0)
(2.99332 0.000529129 0)
(2.97877 0.00106634 0)
(2.95357 0.00398095 0)
(2.84752 0.00861739 0)
(2.55549 0.0349588 0)
(1.7814 0.0864164 0)
(0.66363 0.252799 0)
(0.258565 0.204772 0)
(0.442995 0.192208 0)
(0.431119 0.207027 0)
(0.319382 0.226301 0)
(0.234924 0.243373 0)
(0.139159 0.257588 0)
(0.037397 0.250379 0)
(3 5.82667e-09 0)
(3 4.46358e-08 0)
(3 1.37859e-07 0)
(3 4.12866e-07 0)
(2.99999 9.74955e-07 0)
(2.99997 2.58299e-06 0)
(2.99992 5.76511e-06 0)
(2.99982 1.51687e-05 0)
(2.99952 3.33328e-05 0)
(2.99894 9.22195e-05 0)
(2.99703 0.000192171 0)
(2.99373 0.000634485 0)
(2.98035 0.001184 0)
(2.9571 0.00489037 0)
(2.86089 0.00974709 0)
(2.5979 0.0423211 0)
(1.88198 0.104181 0)
(0.729151 0.317421 0)
(0.266299 0.262539 0)
(0.458092 0.248987 0)
(0.45167 0.268931 0)
(0.340368 0.293735 0)
(0.25368 0.318003 0)
(0.155166 0.339499 0)
(0.0435199 0.335046 0)
(3 7.17021e-09 0)
(3 5.46521e-08 0)
(3 1.68921e-07 0)
(3 5.03357e-07 0)
(2.99999 1.19125e-06 0)
(2.99997 3.13017e-06 0)
(2.99993 7.00842e-06 0)
(2.99983 1.8135e-05 0)
(2.99956 3.98585e-05 0)
(2.99901 0.000106894 0)
(2.99727 0.000222375 0)
(2.99415 0.000718552 0)
(2.98227 0.00121604 0)
(2.96088 0.00557642 0)
(2.87666 0.0100707 0)
(2.64702 0.0460577 0)
(2.00377 0.115668 0)
(0.818855 0.36636 0)
(0.288213 0.317768 0)
(0.477314 0.309522 0)
(0.47594 0.334208 0)
(0.367079 0.363358 0)
(0.278827 0.39685 0)
(0.176675 0.42769 0)
(0.0531691 0.429777 0)
(3 8.25678e-09 0)
(3 6.33899e-08 0)
(3 1.95259e-07 0)
(3 5.8451e-07 0)
(2.99999 1.38749e-06 0)
(2.99997 3.66331e-06 0)
(2.99993 8.26033e-06 0)
(2.99985 2.13219e-05 0)
(2.9996 4.72675e-05 0)
(2.99909 0.000123637 0)
(2.99754 0.000265178 0)
(2.99456 0.000773546 0)
(2.98436 0.00142684 0)
(2.96466 0.00551443 0)
(2.89311 0.0106356 0)
(2.69873 0.0426291 0)
(2.14625 0.115118 0)
(0.937677 0.371061 0)
(0.330347 0.369645 0)
(0.49939 0.378201 0)
(0.501019 0.40443 0)
(0.399214 0.436034 0)
(0.311529 0.480391 0)
(0.205275 0.524122 0)
(0.0686645 0.539846 0)
(3 8.85066e-09 0)
(3 6.91422e-08 0)
(3 2.11622e-07 0)
(3 6.40037e-07 0)
(2.99999 1.52351e-06 0)
(2.99998 4.07675e-06 0)
(2.99994 9.26177e-06 0)
(2.99987 2.4208e-05 0)
(2.99964 5.42277e-05 0)
(2.99919 0.000141782 0)
(2.99781 0.000313611 0)
(2.99512 0.000840655 0)
(2.98619 0.00182403 0)
(2.96871 0.00518425 0)
(2.9066 0.0122274 0)
(2.74328 0.0368979 0)
(2.28595 0.102285 0)
(1.0739 0.322218 0)
(0.396389 0.428464 0)
(0.519778 0.458797 0)
(0.522903 0.478381 0)
(0.437097 0.513144 0)
(0.354492 0.568991 0)
(0.24566 0.631971 0)
(0.0941673 0.675063 0)
(3 8.84619e-09 0)
(3 6.96655e-08 0)
(3 2.12488e-07 0)
(3 6.47505e-07 0)
(2.99999 1.5417e-06 0)
(2.99998 4.16645e-06 0)
(2.99995 9.49155e-06 0)
(2.99989 2.50715e-05 0)
(2.99969 5.64583e-05 0)
(2.99931 0.000148487 0)
(2.99812 0.000333486 0)
(2.99583 0.000869715 0)
(2.98796 0.00201893 0)
(2.97346 0.00510922 0)
(2.91858 0.012672 0)
(2.77907 0.0354378 0)
(2.38591 0.0914967 0)
(1.23461 0.279502 0)
(0.491436 0.502023 0)
(0.533487 0.541346 0)
(0.541192 0.549128 0)
(0.483489 0.592323 0)
(0.411749 0.660576 0)
(0.308243 0.75185 0)
(0.13986 0.851958 0)
(3 3.38057e-09 0)
(3 8.17338e-08 0)
(3 1.70425e-07 0)
(3 7.49425e-07 0)
(2.99999 1.33409e-06 0)
(2.99998 5.03944e-06 0)
(2.99996 8.8038e-06 0)
(2.99991 3.236e-05 0)
(2.99974 5.35803e-05 0)
(2.99943 0.000207248 0)
(2.99841 0.000294716 0)
(2.99653 0.00127403 0)
(2.9897 0.00144513 0)
(2.9777 0.00783537 0)
(2.93072 0.0071472 0)
(2.81302 0.0499923 0)
(2.47742 0.0737692 0)
(1.4315 0.286355 0)
(0.626958 0.576179 0)
(0.550625 0.60608 0)
(0.569276 0.611613 0)
(0.546817 0.665437 0)
(0.490429 0.75263 0)
(0.411329 0.893192 0)
(0.224189 1.13343 0)
(3 6.41162e-09 0)
(3 5.4231e-08 0)
(3 1.62911e-07 0)
(3 5.23205e-07 0)
(3 1.25357e-06 0)
(2.99999 3.59338e-06 0)
(2.99997 8.33548e-06 0)
(2.99992 2.30958e-05 0)
(2.99984 5.36176e-05 0)
(2.99951 0.000141882 0)
(2.99901 0.000342485 0)
(2.99679 0.000837462 0)
(2.99338 0.00202053 0)
(2.97829 0.00510304 0)
(2.95144 0.0120112 0)
(2.84131 0.0330415 0)
(2.53917 0.097882 0)
(1.74484 0.256857 0)
(0.791023 0.651107 0)
(0.583593 0.663105 0)
(0.618765 0.669955 0)
(0.631701 0.727166 0)
(0.609082 0.831401 0)
(0.6145 1.00269 0)
(0.650791 1.28756 0)
(3 9.50555e-09 0)
(3 2.31606e-08 0)
(3 1.47579e-07 0)
(3 2.45221e-07 0)
(3 1.03886e-06 0)
(2.99999 1.56283e-06 0)
(2.99997 6.32517e-06 0)
(2.99994 8.64502e-06 0)
(2.99984 3.93796e-05 0)
(2.99967 4.29496e-05 0)
(2.99899 0.000267571 0)
(2.99793 0.000260932 0)
(2.99325 0.00193149 0)
(2.98598 0.00206007 0)
(2.95388 0.0143382 0)
(2.88354 0.0195931 0)
(2.65795 0.104092 0)
(1.93265 0.256397 0)
(0.999932 0.714765 0)
(0.644761 0.723292 0)
(0.690957 0.730352 0)
(0.733084 0.776873 0)
(0.743378 0.882282 0)
(0.805104 1.04598 0)
(0.964321 1.26905 0)
(3 4.28855e-09 0)
(3 3.40028e-08 0)
(3 1.03988e-07 0)
(3 3.19108e-07 0)
(3 7.57453e-07 0)
(2.99999 2.06446e-06 0)
(2.99998 4.65664e-06 0)
(2.99995 1.25777e-05 0)
(2.99987 2.75172e-05 0)
(2.9997 7.98855e-05 0)
(2.99919 0.000157288 0)
(2.99817 0.000554858 0)
(2.99488 0.00101287 0)
(2.98866 0.00399124 0)
(2.96641 0.00790902 0)
(2.9169 0.0284754 0)
(2.75668 0.0747264 0)
(2.23332 0.22608 0)
(1.28267 0.67324 0)
(0.763961 0.757076 0)
(0.778498 0.794727 0)
(0.828991 0.823862 0)
(0.868241 0.910743 0)
(0.952912 1.04526 0)
(1.13696 1.19386 0)
(3 3.92603e-09 0)
(3 3.15101e-08 0)
(3 9.57896e-08 0)
(3 2.97158e-07 0)
(3 7.06253e-07 0)
(2.99999 1.96023e-06 0)
(2.99998 4.46815e-06 0)
(2.99996 1.22642e-05 0)
(2.9999 2.78004e-05 0)
(2.99977 7.69023e-05 0)
(2.99939 0.000174809 0)
(2.99864 0.000486199 0)
(2.99611 0.00111445 0)
(2.99175 0.00308552 0)
(2.97396 0.00726487 0)
(2.9415 0.0202437 0)
(2.81473 0.0549166 0)
(2.45045 0.160117 0)
(1.61265 0.490676 0)
(0.89849 0.790797 0)
(0.852605 0.853516 0)
(0.893756 0.876983 0)
(0.962531 0.932088 0)
(1.0589 1.03021 0)
(1.2332 1.12774 0)
(3 3.39731e-09 0)
(3 2.70145e-08 0)
(3 8.23863e-08 0)
(3 2.53425e-07 0)
(3 6.02419e-07 0)
(3 1.64858e-06 0)
(2.99999 3.74874e-06 0)
(2.99997 1.00803e-05 0)
(2.99992 2.26978e-05 0)
(2.99982 6.12784e-05 0)
(2.99953 0.000137319 0)
(2.99896 0.000378866 0)
(2.99705 0.000825721 0)
(2.9938 0.00247823 0)
(2.98045 0.00501065 0)
(2.95767 0.0174599 0)
(2.8621 0.0377515 0)
(2.60441 0.136694 0)
(1.94311 0.358783 0)
(1.09153 0.847658 0)
(0.915746 0.90061 0)
(0.944994 0.924697 0)
(1.02777 0.950535 0)
(1.13551 1.01428 0)
(1.29304 1.07918 0)
(3 2.93888e-09 0)
(3 2.35106e-08 0)
(3 7.15807e-08 0)
(3 2.21372e-07 0)
(3 5.26994e-07 0)
(3 1.45169e-06 0)
(2.99999 3.31594e-06 0)
(2.99998 8.9429e-06 0)
(2.99994 2.02578e-05 0)
(2.99987 5.4327e-05 0)
(2.99965 0.000122242 0)
(2.99921 0.00032994 0)
(2.99785 0.000721878 0)
(2.99525 0.00209093 0)
(2.98626 0.0042037 0)
(2.96931 0.0142621 0)
(2.9059 0.0295055 0)
(2.73836 0.108833 0)
(2.27187 0.279141 0)
(1.35492 0.82197 0)
(1.01108 0.918357 0)
(1.01073 0.956427 0)
(1.08503 0.971806 0)
(1.19644 1.00295 0)
(1.33724 1.04423 0)
(3 2.35438e-09 0)
(3 1.88794e-08 0)
(3 5.74276e-08 0)
(3 1.77699e-07 0)
(3 4.22946e-07 0)
(3 1.16464e-06 0)
(2.99999 2.65921e-06 0)
(2.99999 7.16589e-06 0)
(2.99996 1.62299e-05 0)
(2.99991 4.35313e-05 0)
(2.99976 9.82115e-05 0)
(2.99946 0.000263859 0)
(2.99851 0.000591644 0)
(2.99671 0.00161819 0)
(2.9905 0.00358194 0)
(2.97909 0.0103553 0)
(2.93648 0.0235172 0)
(2.83116 0.0744038 0)
(2.53079 0.198669 0)
(1.6717 0.64276 0)
(1.16363 0.903866 0)
(1.0945 0.970945 0)
(1.13632 0.997384 0)
(1.23984 1.00657 0)
(1.372 1.02662 0)
(3 1.81179e-09 0)
(3 1.44943e-08 0)
(3 4.41e-08 0)
(3 1.36056e-07 0)
(3 3.24026e-07 0)
(3 8.87823e-07 0)
(3 2.02685e-06 0)
(2.99999 5.42495e-06 0)
(2.99997 1.22645e-05 0)
(2.99994 3.27088e-05 0)
(2.99983 7.36235e-05 0)
(2.99963 0.000197499 0)
(2.99898 0.000442622 0)
(2.99774 0.00121397 0)
(2.9935 0.00267619 0)
(2.98609 0.00777846 0)
(2.95694 0.017255 0)
(2.8918 0.0535954 0)
(2.68858 0.13986 0)
(2.02254 0.447253 0)
(1.37293 0.921243 0)
(1.19217 0.993414 0)
(1.20084 1.02696 0)
(1.2817 1.02653 0)
(1.40302 1.02289 0)
(3 1.01738e-09 0)
(3 1.12569e-08 0)
(3 2.96342e-08 0)
(3 1.03958e-07 0)
(3 2.19546e-07 0)
(3 6.7773e-07 0)
(3 1.37822e-06 0)
(2.99999 4.15503e-06 0)
(2.99998 8.37976e-06 0)
(2.99996 2.51945e-05 0)
(2.99989 5.0609e-05 0)
(2.99976 0.00015299 0)
(2.99936 0.000304868 0)
(2.99858 0.000944681 0)
(2.99595 0.00180161 0)
(2.99131 0.00619471 0)
(2.97351 0.0105675 0)
(2.93782 0.0421478 0)
(2.81603 0.0866078 0)
(2.4301 0.319768 0)
(1.72417 0.789746 0)
(1.33573 0.985133 0)
(1.28745 1.03915 0)
(1.32751 1.04903 0)
(1.42948 1.03163 0)
(3 6.72629e-10 0)
(3 7.26166e-09 0)
(3 1.93077e-08 0)
(3 6.7259e-08 0)
(3 1.43237e-07 0)
(3 4.39156e-07 0)
(3 9.0003e-07 0)
(3 2.69353e-06 0)
(2.99999 5.47051e-06 0)
(2.99997 1.63096e-05 0)
(2.99994 3.29425e-05 0)
(2.99984 9.85759e-05 0)
(2.99964 0.000197586 0)
(2.99899 0.00060168 0)
(2.99787 0.0011774 0)
(2.99342 0.00382544 0)
(2.98633 0.0070238 0)
(2.95649 0.0256483 0)
(2.89223 0.0519313 0)
(2.6814 0.182336 0)
(2.06162 0.527511 0)
(1.53126 0.963262 0)
(1.38869 1.04323 0)
(1.38914 1.06897 0)
(1.46165 1.05508 0)
(3 8.21141e-10 0)
(3 3.53764e-09 0)
(3 1.52712e-08 0)
(3 3.51381e-08 0)
(3 1.11594e-07 0)
(3 2.34386e-07 0)
(3 7.05252e-07 0)
(3 1.4553e-06 0)
(2.99999 4.32467e-06 0)
(2.99998 8.87081e-06 0)
(2.99996 2.62522e-05 0)
(2.9999 5.3496e-05 0)
(2.99978 0.000159019 0)
(2.99939 0.000317062 0)
(2.99864 0.000990019 0)
(2.99619 0.00181984 0)
(2.99165 0.00656068 0)
(2.97528 0.0114421 0)
(2.94155 0.0445722 0)
(2.82914 0.0961476 0)
(2.47227 0.344778 0)
(1.86102 0.811918 0)
(1.52233 1.02273 0)
(1.47004 1.07541 0)
(1.50134 1.08191 0)
(3 4.5258e-10 0)
(3 2.40669e-09 0)
(3 9.15292e-09 0)
(3 2.33717e-08 0)
(3 6.68965e-08 0)
(3 1.54736e-07 0)
(3 4.21177e-07 0)
(3 9.56771e-07 0)
(3 2.57741e-06 0)
(2.99999 5.82977e-06 0)
(2.99998 1.56725e-05 0)
(2.99995 3.53693e-05 0)
(2.99986 9.52309e-05 0)
(2.99968 0.000214483 0)
(2.99912 0.000581805 0)
(2.99806 0.00129933 0)
(2.99435 0.00363742 0)
(2.98773 0.00789516 0)
(2.96297 0.0237651 0)
(2.90704 0.0559346 0)
(2.72919 0.173417 0)
(2.2166 0.519609 0)
(1.72986 0.947597 0)
(1.57264 1.05863 0)
(1.5607 1.09158 0)
(3 1.81563e-10 0)
(3 1.47946e-09 0)
(3 4.47668e-09 0)
(3 1.40078e-08 0)
(3 3.32447e-08 0)
(3 9.30423e-08 0)
(3 2.12041e-07 0)
(3 5.83002e-07 0)
(3 1.32089e-06 0)
(2.99999 3.61975e-06 0)
(2.99999 8.19808e-06 0)
(2.99997 2.2412e-05 0)
(2.99993 5.06934e-05 0)
(2.9998 0.000138667 0)
(2.99954 0.000311724 0)
(2.99873 0.000866737 0)
(2.99715 0.00190789 0)
(2.99198 0.00559325 0)
(2.98146 0.0121825 0)
(2.94739 0.0369231 0)
(2.86233 0.0956833 0)
(2.60504 0.285977 0)
(2.02731 0.766001 0)
(1.71522 1.01508 0)
(1.64502 1.08191 0)
(3 1.58717e-10 0)
(3 6.956e-10 0)
(3 2.981e-09 0)
(3 6.95207e-09 0)
(3 2.20734e-08 0)
(3 4.71391e-08 0)
(3 1.42168e-07 0)
(3 2.99319e-07 0)
(3 8.91432e-07 0)
(3 1.87222e-06 0)
(2.99999 5.54719e-06 0)
(2.99998 1.16359e-05 0)
(2.99996 3.44265e-05 0)
(2.9999 7.21334e-05 0)
(2.99973 0.00021406 0)
(2.99939 0.000447436 0)
(2.99829 0.0013425 0)
(2.99628 0.00279017 0)
(2.98906 0.00854957 0)
(2.97559 0.0183136 0)
(2.92752 0.05645 0)
(2.80436 0.143965 0)
(2.4436 0.430396 0)
(1.93483 0.896716 0)
(1.74552 1.04977 0)
(3 5.68529e-11 0)
(3 4.70996e-10 0)
(3 1.41684e-09 0)
(3 4.48699e-09 0)
(3 1.06787e-08 0)
(3 3.0303e-08 0)
(3 6.94807e-08 0)
(3 1.93093e-07 0)
(3 4.39889e-07 0)
(3 1.21457e-06 0)
(3 2.7623e-06 0)
(2.99999 7.59032e-06 0)
(2.99998 1.72299e-05 0)
(2.99995 4.71264e-05 0)
(2.99985 0.000106584 0)
(2.99967 0.000291328 0)
(2.9991 0.000652005 0)
(2.99799 0.00181916 0)
(2.99436 0.00394726 0)
(2.98716 0.0116433 0)
(2.9634 0.0260356 0)
(2.90582 0.0784159 0)
(2.73281 0.214062 0)
(2.27014 0.611421 0)
(1.91583 0.964189 0)
(3 2.77946e-11 0)
(3 2.70963e-10 0)
(3 7.55698e-10 0)
(3 2.55389e-09 0)
(3 5.70645e-09 0)
(3 1.72161e-08 0)
(3 3.71951e-08 0)
(3 1.09733e-07 0)
(3 2.36057e-07 0)
(3 6.9044e-07 0)
(3 1.48504e-06 0)
(3 4.31356e-06 0)
(2.99999 9.26866e-06 0)
(2.99997 2.67718e-05 0)
(2.99993 5.73375e-05 0)
(2.99984 0.000165312 0)
(2.99956 0.000351612 0)
(2.99902 0.00102196 0)
(2.99722 0.00214795 0)
(2.99401 0.00641609 0)
(2.98191 0.0136208 0)
(2.95848 0.042053 0)
(2.87903 0.101759 0)
(2.64086 0.32699 0)
(2.20886 0.744635 0)
(3 1.36416e-11 0)
(3 1.3248e-10 0)
(3 3.70169e-10 0)
(3 1.25479e-09 0)
(3 2.81898e-09 0)
(3 8.52766e-09 0)
(3 1.85347e-08 0)
(3 5.46422e-08 0)
(3 1.18034e-07 0)
(3 3.43858e-07 0)
(3 7.40528e-07 0)
(3 2.13894e-06 0)
(3 4.5896e-06 0)
(2.99999 1.31855e-05 0)
(2.99997 2.81763e-05 0)
(2.99992 8.09027e-05 0)
(2.99981 0.000171995 0)
(2.99948 0.000499097 0)
(2.99885 0.00104546 0)
(2.99673 0.00316792 0)
(2.99267 0.0063783 0)
(2.97898 0.0208486 0)
(2.94854 0.0445305 0)
(2.85206 0.144464 0)
(2.57159 0.398391 0)
(3 9.89598e-12 0)
(3 4.99068e-11 0)
(3 1.95506e-10 0)
(3 4.95686e-10 0)
(3 1.48077e-09 0)
(3 3.44796e-09 0)
(3 9.79234e-09 0)
(3 2.24533e-08 0)
(3 6.25815e-08 0)
(3 1.42682e-07 0)
(3 3.931e-07 0)
(3 8.92375e-07 0)
(3 2.44121e-06 0)
(2.99999 5.5215e-06 0)
(2.99999 1.5079e-05 0)
(2.99996 3.4018e-05 0)
(2.99991 9.33521e-05 0)
(2.99975 0.000210274 0)
(2.99944 0.000584028 0)
(2.99846 0.00130556 0)
(2.99659 0.00370467 0)
(2.99016 0.00828726 0)
(2.9778 0.0239712 0)
(2.93531 0.0585578 0)
(2.82099 0.175638 0)
(3 4.93927e-12 0)
(3 2.26836e-11 0)
(3 9.44173e-11 0)
(3 2.26487e-10 0)
(3 7.1133e-10 0)
(3 1.58156e-09 0)
(3 4.72576e-09 0)
(3 1.03814e-08 0)
(3 3.05213e-08 0)
(3 6.67909e-08 0)
(3 1.94602e-07 0)
(3 4.24893e-07 0)
(3 1.23038e-06 0)
(3 2.68218e-06 0)
(2.99999 7.72605e-06 0)
(2.99998 1.68148e-05 0)
(2.99996 4.81629e-05 0)
(2.99989 0.000104489 0)
(2.99976 0.000298294 0)
(2.99933 0.000641044 0)
(2.99849 0.00185382 0)
(2.99579 0.00389947 0)
(2.9902 0.011802 0)
(2.97262 0.0252023 0)
(2.93013 0.0785824 0)
(3 1.89172e-12 0)
(3 8.59361e-12 0)
(3 3.63736e-11 0)
(3 8.79517e-11 0)
(3 2.82337e-10 0)
(3 6.33476e-10 0)
(3 1.92835e-09 0)
(3 4.26908e-09 0)
(3 1.27122e-08 0)
(3 2.79922e-08 0)
(3 8.22199e-08 0)
(3 1.80365e-07 0)
(3 5.25088e-07 0)
(3 1.14876e-06 0)
(3 3.324e-06 0)
(2.99999 7.25937e-06 0)
(2.99998 2.08948e-05 0)
(2.99996 4.55569e-05 0)
(2.99989 0.000130612 0)
(2.99975 0.000283863 0)
(2.99931 0.000815561 0)
(2.99843 0.00177082 0)
(2.99559 0.00513782 0)
(2.98962 0.0114215 0)
(2.97103 0.033528 0)
(3 2.50423e-13 0)
(3 3.33312e-12 0)
(3 9.10064e-12 0)
(3 3.43261e-11 0)
(3 8.21894e-11 0)
(3 2.60603e-10 0)
(3 6.11386e-10 0)
(3 1.82473e-09 0)
(3 4.22783e-09 0)
(3 1.22542e-08 0)
(3 2.81506e-08 0)
(3 8.01992e-08 0)
(3 1.8318e-07 0)
(3 5.16906e-07 0)
(3 1.17659e-06 0)
(3 3.30422e-06 0)
(2.99999 7.50869e-06 0)
(2.99998 2.10057e-05 0)
(2.99996 4.76625e-05 0)
(2.9999 0.000132899 0)
(2.99973 0.000300797 0)
(2.99939 0.000840414 0)
(2.99824 0.0019096 0)
(2.99616 0.00535936 0)
(2.98859 0.0126008 0)
(3 1.41296e-13 0)
(3 1.36563e-12 0)
(3 3.87304e-12 0)
(3 1.39187e-11 0)
(3 3.22809e-11 0)
(3 1.04368e-10 0)
(3 2.34579e-10 0)
(3 7.29747e-10 0)
(3 1.62589e-09 0)
(3 4.92162e-09 0)
(3 1.09447e-08 0)
(3 3.25193e-08 0)
(3 7.2173e-08 0)
(3 2.1199e-07 0)
(3 4.69572e-07 0)
(3 1.36751e-06 0)
(3 3.0243e-06 0)
(2.99999 8.73354e-06 0)
(2.99998 1.92659e-05 0)
(2.99996 5.52465e-05 0)
(2.9999 0.00012121 0)
(2.99977 0.000348056 0)
(2.99935 0.000754736 0)
(2.99853 0.00221881 0)
(2.99584 0.00469073 0)
(3 5.09446e-14 0)
(3 4.48287e-13 0)
(3 1.18717e-12 0)
(3 4.22129e-12 0)
(3 1.0062e-11 0)
(3 3.22377e-11 0)
(3 7.63004e-11 0)
(3 2.34333e-10 0)
(3 5.50806e-10 0)
(3 1.63882e-09 0)
(3 3.81778e-09 0)
(3 1.11404e-08 0)
(3 2.57014e-08 0)
(3 7.41115e-08 0)
(3 1.69921e-07 0)
(3 4.85122e-07 0)
(3 1.10836e-06 0)
(3 3.13788e-06 0)
(3 7.15029e-06 0)
(2.99999 2.01173e-05 0)
(2.99997 4.57142e-05 0)
(2.99991 0.000128346 0)
(2.9998 0.000290794 0)
(2.99944 0.00081906 0)
(2.99871 0.00186436 0)
(3 9.82184e-15 0)
(3 5.03008e-14 0)
(3 2.6186e-13 0)
(3 6.05699e-13 0)
(3 2.69544e-12 0)
(3 5.44293e-12 0)
(3 2.25885e-11 0)
(3 4.65541e-11 0)
(3 1.74151e-10 0)
(3 3.80821e-10 0)
(3 1.27313e-09 0)
(3 2.86115e-09 0)
(3 8.97723e-09 0)
(3 2.02042e-08 0)
(3 6.13645e-08 0)
(3 1.37417e-07 0)
(3 4.09461e-07 0)
(3 9.12495e-07 0)
(3 2.68556e-06 0)
(3 5.96208e-06 0)
(2.99999 1.7427e-05 0)
(2.99997 3.85807e-05 0)
(2.99993 0.000112559 0)
(2.99984 0.000248858 0)
(2.99953 0.000727243 0)
(3 -1.77398e-15 0)
(3 1.68702e-15 0)
(3 1.40746e-14 0)
(3 1.76216e-13 0)
(3 4.43936e-13 0)
(3 1.99154e-12 0)
(3 4.11852e-12 0)
(3 1.63828e-11 0)
(3 3.38883e-11 0)
(3 1.29809e-10 0)
(3 2.80206e-10 0)
(3 9.74713e-10 0)
(3 2.21796e-09 0)
(3 7.01453e-09 0)
(3 1.62264e-08 0)
(3 4.8853e-08 0)
(3 1.12731e-07 0)
(3 3.30783e-07 0)
(3 7.5891e-07 0)
(3 2.19246e-06 0)
(3 5.00467e-06 0)
(2.99999 1.43341e-05 0)
(2.99998 3.2593e-05 0)
(2.99995 9.31623e-05 0)
(2.99986 0.000211359 0)
(3 9.02152e-15 0)
(3 1.81682e-14 0)
(3 3.99204e-14 0)
(3 9.00967e-14 0)
(3 2.03711e-13 0)
(3 6.50174e-13 0)
(3 1.44319e-12 0)
(3 4.97641e-12 0)
(3 1.13511e-11 0)
(3 3.83315e-11 0)
(3 8.72529e-11 0)
(3 2.87041e-10 0)
(3 6.51481e-10 0)
(3 2.07913e-09 0)
(3 4.71039e-09 0)
(3 1.46269e-08 0)
(3 3.30601e-08 0)
(3 1.00468e-07 0)
(3 2.26312e-07 0)
(3 6.76549e-07 0)
(3 1.51895e-06 0)
(3 4.48571e-06 0)
(2.99999 1.00426e-05 0)
(2.99999 2.93989e-05 0)
(2.99996 6.56158e-05 0)
(3 1.30699e-14 0)
(3 2.24905e-14 0)
(3 4.13592e-14 0)
(3 6.62205e-14 0)
(3 9.44567e-14 0)
(3 1.72619e-13 0)
(3 4.21295e-13 0)
(3 1.24174e-12 0)
(3 2.88756e-12 0)
(3 9.6038e-12 0)
(3 2.1925e-11 0)
(3 7.26026e-11 0)
(3 1.65927e-10 0)
(3 5.37298e-10 0)
(3 1.22502e-09 0)
(3 3.87191e-09 0)
(3 8.79891e-09 0)
(3 2.71818e-08 0)
(3 6.15424e-08 0)
(3 1.86448e-07 0)
(3 4.20641e-07 0)
(3 1.25438e-06 0)
(3 2.82091e-06 0)
(3 8.30838e-06 0)
(2.99999 1.86219e-05 0)
(3 -1.36548e-15 0)
(3 -4.16101e-15 0)
(3 -1.2387e-14 0)
(3 -1.65515e-14 0)
(3 -3.44108e-14 0)
(3 -2.46528e-14 0)
(3 3.47694e-14 0)
(3 1.35779e-13 0)
(3 6.75843e-13 0)
(3 1.43116e-12 0)
(3 5.8615e-12 0)
(3 1.19699e-11 0)
(3 4.61133e-11 0)
(3 9.80587e-11 0)
(3 3.44285e-10 0)
(3 7.64694e-10 0)
(3 2.48906e-09 0)
(3 5.61266e-09 0)
(3 1.75595e-08 0)
(3 3.96259e-08 0)
(3 1.21136e-07 0)
(3 2.72713e-07 0)
(3 8.2037e-07 0)
(3 1.84216e-06 0)
(3 5.47606e-06 0)
(3 4.37158e-15 0)
(3 9.35833e-15 0)
(3 1.02288e-14 0)
(3 4.49859e-15 0)
(3 -2.06829e-15 0)
(3 1.6881e-14 0)
(3 4.70813e-14 0)
(3 1.10009e-13 0)
(3 2.48164e-13 0)
(3 4.90685e-13 0)
(3 1.57904e-12 0)
(3 3.50994e-12 0)
(3 1.14956e-11 0)
(3 2.61444e-11 0)
(3 8.44067e-11 0)
(3 1.92128e-10 0)
(3 6.09123e-10 0)
(3 1.38329e-09 0)
(3 4.30444e-09 0)
(3 9.74734e-09 0)
(3 2.9812e-08 0)
(3 6.73193e-08 0)
(3 2.02817e-07 0)
(3 4.56798e-07 0)
(3 1.35884e-06 0)
(3 2.06325e-14 0)
(3 5.09297e-14 0)
(3 7.93266e-14 0)
(3 8.5752e-14 0)
(3 9.55006e-14 0)
(3 9.77711e-14 0)
(3 1.02231e-13 0)
(3 1.02242e-13 0)
(3 1.18371e-13 0)
(3 1.72622e-13 0)
(3 2.58944e-13 0)
(3 7.87269e-13 0)
(3 1.56869e-12 0)
(3 5.93294e-12 0)
(3 1.22406e-11 0)
(3 4.5214e-11 0)
(3 9.7188e-11 0)
(3 3.31362e-10 0)
(3 7.40803e-10 0)
(3 2.3608e-09 0)
(3 5.35742e-09 0)
(3 1.64374e-08 0)
(3 3.73978e-08 0)
(3 1.12217e-07 0)
(3 2.5496e-07 0)
(3 -1.3716e-14 0)
(3 -1.23761e-14 0)
(3 5.06009e-15 0)
(3 4.25158e-14 0)
(3 9.17363e-14 0)
(3 1.0457e-13 0)
(3 1.1072e-13 0)
(3 1.2332e-13 0)
(3 1.64615e-13 0)
(3 2.23542e-13 0)
(3 2.75137e-13 0)
(3 4.24906e-13 0)
(3 6.52661e-13 0)
(3 1.61298e-12 0)
(3 3.42501e-12 0)
(3 1.06628e-11 0)
(3 2.40263e-11 0)
(3 7.59482e-11 0)
(3 1.71948e-10 0)
(3 5.33852e-10 0)
(3 1.20629e-09 0)
(3 3.68065e-09 0)
(3 8.29582e-09 0)
(3 2.49302e-08 0)
(3 5.60526e-08 0)
(3 -9.61695e-15 0)
(3 -3.44196e-14 0)
(3 -5.22233e-14 0)
(3 -5.5666e-14 0)
(3 -3.00477e-14 0)
(3 -4.97953e-15 0)
(3 1.10905e-14 0)
(3 3.67279e-14 0)
(3 4.49692e-14 0)
(3 3.97946e-14 0)
(3 4.83195e-14 0)
(3 9.32619e-14 0)
(3 1.71988e-13 0)
(3 3.42049e-13 0)
(3 7.10861e-13 0)
(3 2.05431e-12 0)
(3 4.64029e-12 0)
(3 1.45531e-11 0)
(3 3.30591e-11 0)
(3 1.03006e-10 0)
(3 2.33851e-10 0)
(3 7.1494e-10 0)
(3 1.6178e-09 0)
(3 4.85946e-09 0)
(3 1.09587e-08 0)
(3 1.24487e-14 0)
(3 1.40317e-14 0)
(3 9.57669e-15 0)
(3 -1.01814e-14 0)
(3 -2.91766e-14 0)
(3 -1.77406e-14 0)
(3 -1.68082e-14 0)
(3 -2.89765e-14 0)
(3 -6.86918e-14 0)
(3 -9.56329e-14 0)
(3 -9.30985e-14 0)
(3 -5.67203e-14 0)
(3 -1.86254e-14 0)
(3 4.92833e-14 0)
(3 1.70677e-13 0)
(3 3.83098e-13 0)
(3 1.16046e-12 0)
(3 2.37912e-12 0)
(3 7.6488e-12 0)
(3 1.66452e-11 0)
(3 5.26377e-11 0)
(3 1.16193e-10 0)
(3 3.57458e-10 0)
(3 7.92627e-10 0)
(3 2.38276e-09 0)
(3 1.18628e-14 0)
(3 3.81055e-14 0)
(3 4.85493e-14 0)
(3 5.78593e-14 0)
(3 4.68467e-14 0)
(3 3.65643e-14 0)
(3 1.82244e-14 0)
(3 2.18491e-14 0)
(3 3.42972e-14 0)
(3 4.51903e-14 0)
(3 7.1131e-14 0)
(3 6.16833e-14 0)
(3 4.68176e-14 0)
(3 4.26939e-14 0)
(3 5.82284e-14 0)
(3 8.87074e-14 0)
(3 2.13569e-13 0)
(3 4.42194e-13 0)
(3 1.39438e-12 0)
(3 3.14418e-12 0)
(3 9.69143e-12 0)
(3 2.18313e-11 0)
(3 6.57191e-11 0)
(3 1.47389e-10 0)
(3 4.35278e-10 0)
(3 -6.8275e-15 0)
(3 -2.46281e-14 0)
(3 -3.2859e-14 0)
(3 -3.64312e-14 0)
(3 -4.14873e-14 0)
(3 -4.29375e-14 0)
(3 -1.6396e-14 0)
(3 1.34834e-14 0)
(3 3.8851e-14 0)
(3 3.96548e-14 0)
(3 2.60269e-14 0)
(3 8.39423e-15 0)
(3 -1.94031e-15 0)
(3 5.79375e-15 0)
(3 3.08923e-14 0)
(3 6.44022e-14 0)
(3 1.09379e-13 0)
(3 2.19124e-13 0)
(3 4.23701e-13 0)
(3 7.57486e-13 0)
(3 1.94652e-12 0)
(3 4.07792e-12 0)
(3 1.17783e-11 0)
(3 2.61955e-11 0)
(3 7.61337e-11 0)
(3 -8.35871e-15 0)
(3 -1.63164e-14 0)
(3 -9.15236e-15 0)
(3 1.04271e-14 0)
(3 2.92569e-14 0)
(3 3.72497e-14 0)
(3 4.55987e-14 0)
(3 3.65917e-14 0)
(3 1.35479e-14 0)
(3 1.77457e-14 0)
(3 7.58811e-16 0)
(3 7.68959e-15 0)
(3 1.40492e-14 0)
(3 9.88448e-15 0)
(3 1.9427e-14 0)
(3 3.98773e-14 0)
(3 6.64735e-14 0)
(3 1.01114e-13 0)
(3 1.19334e-13 0)
(3 1.78641e-13 0)
(3 2.82028e-13 0)
(3 7.98742e-13 0)
(3 1.65025e-12 0)
(3 5.04043e-12 0)
(3 1.09519e-11 0)
(3 2.79525e-15 0)
(3 1.42573e-14 0)
(3 1.26749e-14 0)
(3 2.29583e-14 0)
(3 2.69781e-14 0)
(3 3.2473e-14 0)
(3 1.72564e-14 0)
(3 3.01455e-14 0)
(3 5.18112e-14 0)
(3 9.20427e-14 0)
(3 1.23616e-13 0)
(3 1.48646e-13 0)
(3 1.70333e-13 0)
(3 1.91047e-13 0)
(3 2.08246e-13 0)
(3 2.08783e-13 0)
(3 2.02665e-13 0)
(3 1.69713e-13 0)
(3 1.26969e-13 0)
(3 9.92253e-14 0)
(3 8.47201e-14 0)
(3 1.50832e-13 0)
(3 2.72422e-13 0)
(3 8.28769e-13 0)
(3 1.88535e-12 0)
(3 -1.31137e-14 0)
(3 -2.52442e-14 0)
(3 -4.35192e-14 0)
(3 -6.23971e-14 0)
(3 -7.56837e-14 0)
(3 -6.48236e-14 0)
(3 -4.50924e-14 0)
(3 -2.71172e-14 0)
(3 1.92936e-14 0)
(3 6.11946e-14 0)
(3 1.07048e-13 0)
(3 1.3994e-13 0)
(3 1.76494e-13 0)
(3 2.14107e-13 0)
(3 2.45504e-13 0)
(3 2.47854e-13 0)
(3 2.24961e-13 0)
(3 1.9575e-13 0)
(3 1.79601e-13 0)
(3 1.69166e-13 0)
(3 1.82595e-13 0)
(3 1.95773e-13 0)
(3 2.06802e-13 0)
(3 2.95177e-13 0)
(3 4.33251e-13 0)
(3 8.90929e-15 0)
(3 2.07753e-14 0)
(3 5.9366e-14 0)
(3 7.21437e-14 0)
(3 9.20672e-14 0)
(3 1.06437e-13 0)
(3 1.26852e-13 0)
(3 1.32261e-13 0)
(3 1.5017e-13 0)
(3 1.56559e-13 0)
(3 1.50798e-13 0)
(3 1.41273e-13 0)
(3 1.37629e-13 0)
(3 1.14732e-13 0)
(3 8.15183e-14 0)
(3 6.33348e-14 0)
(3 4.28516e-14 0)
(3 2.18019e-14 0)
(3 2.58827e-14 0)
(3 3.2934e-14 0)
(3 5.78518e-14 0)
(3 8.21022e-14 0)
(3 1.19096e-13 0)
(3 1.51823e-13 0)
(3 2.04589e-13 0)
(3 2.97235e-14 0)
(3 5.79196e-14 0)
(3 1.1385e-13 0)
(3 1.42792e-13 0)
(3 1.67218e-13 0)
(3 1.82159e-13 0)
(3 2.0069e-13 0)
(3 2.15001e-13 0)
(3 2.23606e-13 0)
(3 2.1643e-13 0)
(3 1.84764e-13 0)
(3 1.55854e-13 0)
(3 1.25364e-13 0)
(3 9.65453e-14 0)
(3 5.82724e-14 0)
(3 4.14052e-14 0)
(3 4.89429e-14 0)
(3 4.47304e-14 0)
(3 5.23738e-14 0)
(3 6.38685e-14 0)
(3 7.457e-14 0)
(3 7.07724e-14 0)
(3 6.36335e-14 0)
(3 5.57019e-14 0)
(3 5.96266e-14 0)
(1.39593 1.1913 0)
(1.88421 0.981958 0)
(2.13837 0.705559 0)
(2.21566 0.411579 0)
(2.19236 0.172093 0)
(2.13449 0.00419018 0)
(2.06668 -0.0607447 0)
(2.03058 -0.0484001 0)
(2.03334 -0.0169007 0)
(2.04915 0.0120502 0)
(2.07105 0.031857 0)
(2.10199 0.0385171 0)
(2.13156 0.0305486 0)
(2.15397 0.0161971 0)
(2.1737 0.0048385 0)
(2.19326 -0.000402324 0)
(2.21395 -0.000994092 0)
(2.23621 0.000772826 0)
(2.25985 0.00302794 0)
(2.2843 0.00468929 0)
(2.30887 0.00534654 0)
(2.33293 0.0050621 0)
(2.35601 0.00416522 0)
(2.37783 0.00305344 0)
(2.39828 0.00205428 0)
(2.41738 0.00135918 0)
(2.43522 0.00102472 0)
(2.45189 0.00101647 0)
(2.46745 0.0012715 0)
(2.48208 0.00168696 0)
(2.49579 0.00212551 0)
(2.50835 0.00257915 0)
(2.51995 0.00303184 0)
(2.53098 0.00320597 0)
(2.54097 0.00310838 0)
(2.54941 0.00301529 0)
(2.5567 0.00287257 0)
(2.56364 0.00249318 0)
(2.57056 0.00194771 0)
(2.57716 0.00123347 0)
(2.58304 0.000366894 0)
(2.58822 -0.000558714 0)
(2.59304 -0.0014402 0)
(2.5991 -0.0023781 0)
(2.60744 -0.00396526 0)
(2.61706 -0.00533692 0)
(2.62757 -0.00635908 0)
(2.6392 -0.00724524 0)
(2.65198 -0.0079865 0)
(2.66583 -0.00856333 0)
(2.68059 -0.00897035 0)
(2.69605 -0.00921649 0)
(2.712 -0.00932141 0)
(2.72821 -0.00931319 0)
(2.74449 -0.00921448 0)
(2.76064 -0.00904402 0)
(2.77654 -0.00882183 0)
(2.79207 -0.00856012 0)
(2.80719 -0.00826254 0)
(2.82188 -0.00792852 0)
(2.83621 -0.00755895 0)
(2.85025 -0.0071569 0)
(2.86407 -0.00672527 0)
(2.87774 -0.00626878 0)
(2.8913 -0.00579577 0)
(2.90474 -0.00531548 0)
(2.91801 -0.00483553 0)
(2.93099 -0.00436221 0)
(2.94351 -0.00390178 0)
(2.95537 -0.00345882 0)
(2.96636 -0.00303474 0)
(2.97627 -0.00263127 0)
(2.98492 -0.00225367 0)
(2.99221 -0.00190738 0)
(2.99814 -0.00159346 0)
(3.00284 -0.00130779 0)
(3.00651 -0.00105217 0)
(3.00936 -0.000834669 0)
(3.01149 -0.000657429 0)
(3.01287 -0.000513971 0)
(3.01334 -0.000377685 0)
(3.0129 -0.000218317 0)
(3.01174 -0.000131444 0)
(3.01013 -9.44629e-05 0)
(3.00836 -7.48532e-05 0)
(3.00666 -5.84446e-05 0)
(3.00514 -3.98672e-05 0)
(3.00386 -2.19198e-05 0)
(3.00282 -1.62383e-05 0)
(3.002 -1.95669e-05 0)
(3.00139 -1.81995e-05 0)
(3.00094 -1.4687e-05 0)
(3.00063 -1.12558e-05 0)
(3.00041 -8.42792e-06 0)
(3.00026 -6.24578e-06 0)
(3.00016 -4.60709e-06 0)
(3.0001 -3.37449e-06 0)
(3.00006 -2.477e-06 0)
(3.00003 -1.72968e-06 0)
(3.00002 -1.01357e-06 0)
(1.48475 1.09839 0)
(1.85138 0.810924 0)
(2.07244 0.486966 0)
(2.19294 0.191465 0)
(2.26468 -0.0222138 0)
(2.31678 -0.148926 0)
(2.35252 -0.185767 0)
(2.36873 -0.157497 0)
(2.37455 -0.111742 0)
(2.37704 -0.0698563 0)
(2.37958 -0.0359994 0)
(2.38324 -0.0171772 0)
(2.39013 -0.0126291 0)
(2.40294 -0.0155323 0)
(2.42048 -0.0213494 0)
(2.4391 -0.0273538 0)
(2.45668 -0.0299729 0)
(2.47328 -0.0294349 0)
(2.48937 -0.0272037 0)
(2.50532 -0.02462 0)
(2.52125 -0.022506 0)
(2.53705 -0.0211508 0)
(2.55252 -0.0204932 0)
(2.56746 -0.0203024 0)
(2.58165 -0.0203049 0)
(2.59498 -0.0202822 0)
(2.60744 -0.0201006 0)
(2.61907 -0.019708 0)
(2.62994 -0.0190891 0)
(2.64018 -0.0182772 0)
(2.64991 -0.0173983 0)
(2.65905 -0.0164681 0)
(2.66759 -0.0154235 0)
(2.67585 -0.014528 0)
(2.68382 -0.0139311 0)
(2.69099 -0.0133591 0)
(2.69726 -0.0127443 0)
(2.70325 -0.0121897 0)
(2.70928 -0.0117572 0)
(2.71503 -0.0115017 0)
(2.72012 -0.0114851 0)
(2.72448 -0.0117016 0)
(2.72806 -0.0121624 0)
(2.73151 -0.0127513 0)
(2.73636 -0.0135379 0)
(2.7425 -0.0147121 0)
(2.74891 -0.0160548 0)
(2.75575 -0.0174253 0)
(2.76336 -0.0187175 0)
(2.77178 -0.019862 0)
(2.781 -0.0208199 0)
(2.79091 -0.0215743 0)
(2.80139 -0.0221245 0)
(2.81228 -0.0224803 0)
(2.82342 -0.0226524 0)
(2.83464 -0.0226507 0)
(2.84578 -0.0224855 0)
(2.85674 -0.0221628 0)
(2.86746 -0.0216844 0)
(2.87793 -0.0210523 0)
(2.88818 -0.0202745 0)
(2.89828 -0.019367 0)
(2.90833 -0.0183512 0)
(2.91837 -0.0172483 0)
(2.92845 -0.0160797 0)
(2.93856 -0.014866 0)
(2.94865 -0.0136234 0)
(2.95859 -0.0123669 0)
(2.96825 -0.0111131 0)
(2.97742 -0.00987889 0)
(2.98589 -0.00867875 0)