/*--------------------------------*- C++ -*----------------------------------*\
| =========                 |                                                 |
| \\      /  F ield         | OpenFOAM: The Open Source CFD Toolbox           |
|  \\    /   O peration     | Version:  2112                                  |
|   \\  /    A nd           | Website:  www.openfoam.com                      |
|    \\/     M anipulation  |                                                 |
\*---------------------------------------------------------------------------*/
FoamFile
{
    version     2.0;
    format      ascii;
    arch        "LSB;label=32;scalar=64";
    class       volScalarField;
    location    "6.5";
    object      Ma;
}
// * * * * * * * * * * * * * * * * * * * * * * * * * * * * * * * * * * * * * //

dimensions      [0 0 0 0 0 0 0];

internalField   nonuniform List<scalar> 
5250
(
2.99999
2.99996
2.99985
2.9997
2.9991
2.99823
2.99493
2.98934
2.97128
2.93048
2.83042
2.55005
2.03557
1.01741
0.454009
0.313053
0.331842
0.32975
0.295834
0.242719
0.193942
0.154067
0.114194
0.0705088
0.037921
2.99999
2.99996
2.99986
2.99971
2.99911
2.99826
2.99501
2.9895
2.97175
2.93155
2.83312
2.55652
2.04937
1.03278
0.464323
0.314282
0.333781
0.332521
0.298942
0.246692
0.199077
0.160518
0.122786
0.0841165
0.0602703
2.99999
2.99996
2.99986
2.99972
2.99914
2.99831
2.99516
2.98982
2.97259
2.93366
2.83806
2.56959
2.07469
1.06785
0.486709
0.317422
0.339038
0.340065
0.307722
0.25779
0.212875
0.177453
0.144297
0.113296
0.096684
2.99999
2.99996
2.99987
2.99973
2.99918
2.99839
2.99537
2.9903
2.97383
2.93683
2.84547
2.58968
2.11388
1.12471
0.521524
0.322781
0.348088
0.352813
0.322266
0.275522
0.233996
0.202358
0.174151
0.149316
0.136608
2.99999
2.99997
2.99988
2.99975
2.99923
2.99849
2.99566
2.99093
2.97548
2.94104
2.85529
2.61676
2.1673
1.20568
0.568522
0.331504
0.361564
0.370975
0.342371
0.299107
0.261021
0.233131
0.209422
0.189473
0.179275
2.99999
2.99997
2.99988
2.99977
2.99928
2.9986
2.99594
2.99166
2.97724
2.94657
2.86736
2.65133
2.23553
1.31535
0.62893
0.346959
0.381377
0.395552
0.368668
0.32915
0.294351
0.270003
0.250576
0.234897
0.227443
2.99999
2.99997
2.9999
2.99979
2.99935
2.99873
2.99626
2.99248
2.97924
2.95284
2.88108
2.69116
2.31589
1.45331
0.702655
0.375866
0.411766
0.428238
0.402506
0.366364
0.334172
0.313156
0.29816
0.287817
0.284982
2.99999
2.99998
2.99991
2.99981
2.99941
2.99886
2.99663
2.99334
2.98133
2.95938
2.89519
2.73394
2.40395
1.63015
0.793346
0.424945
0.457284
0.471223
0.447105
0.413281
0.382797
0.364777
0.354251
0.350695
0.357709
3
2.99998
2.99992
2.99983
2.99948
2.99899
2.99699
2.9941
2.98317
2.96451
2.90619
2.76931
2.46891
1.77683
0.869419
0.460195
0.490802
0.505619
0.491185
0.462757
0.436992
0.423525
0.419865
0.428721
0.458408
3
2.99998
2.99993
2.99985
2.99955
2.99911
2.99737
2.99477
2.98514
2.96864
2.91623
2.79698
2.51948
1.8751
0.972492
0.51941
0.516053
0.530102
0.529287
0.510494
0.493501
0.487064
0.496151
0.531448
0.625766
3
2.99998
2.99996
2.99986
2.99971
2.99918
2.99824
2.99534
2.98882
2.97215
2.92864
2.83207
2.54458
2.02322
1.0513
0.585253
0.525808
0.545596
0.557322
0.552328
0.546978
0.5526
0.581967
0.656225
0.820278
3
2.99999
2.99995
2.99989
2.99966
2.99933
2.99805
2.99605
2.98917
2.97579
2.93769
2.84277
2.63718
2.07391
1.24353
0.670826
0.540273
0.56124
0.581756
0.589518
0.596002
0.615132
0.661346
0.753719
0.921875
3
2.99999
2.99996
2.99991
2.9997
2.99942
2.99826
2.9966
2.99017
2.97981
2.94513
2.86931
2.6875
2.21672
1.42901
0.76893
0.563862
0.583825
0.607677
0.624241
0.641342
0.671651
0.726901
0.816802
0.956218
3
2.99999
2.99996
2.99992
2.99975
2.9995
2.9985
2.9971
2.99149
2.98307
2.95268
2.89612
2.7389
2.37014
1.64679
0.886079
0.609904
0.621895
0.641497
0.660868
0.682682
0.718775
0.776387
0.857041
0.972496
3
3
2.99997
2.99994
2.99979
2.99959
2.99877
2.99762
2.99302
2.9862
2.96116
2.91674
2.78561
2.49636
1.85757
1.00392
0.668789
0.66313
0.680185
0.700408
0.722641
0.758051
0.814793
0.88693
0.985014
3
3
2.99998
2.99995
2.99984
2.99968
2.99904
2.99813
2.99458
2.9891
2.97022
2.93207
2.83215
2.57085
2.06991
1.14621
0.746977
0.69523
0.712302
0.733325
0.758312
0.792278
0.843854
0.910383
0.995546
3
3
2.99998
2.99996
2.99987
2.99975
2.99924
2.99852
2.9957
2.99137
2.97635
2.94641
2.8658
2.65409
2.24392
1.37239
0.864088
0.727823
0.739102
0.759303
0.788816
0.823081
0.87081
0.929589
1.00374
3.00001
3
2.99999
2.99997
2.9999
2.9998
2.9994
2.99884
2.9966
2.99329
2.98129
2.95936
2.8957
2.73592
2.41141
1.638
1.02106
0.783592
0.774122
0.78776
0.815848
0.850956
0.895385
0.949628
1.01258
3.00001
3
2.99999
2.99998
2.99993
2.99985
2.99955
2.99912
2.99742
2.99493
2.98554
2.97008
2.92025
2.81094
2.55487
1.97093
1.18507
0.859664
0.820745
0.827664
0.84929
0.880039
0.918421
0.966909
1.024
3.00001
3
3
2.99998
2.99996
2.99987
2.99974
2.99923
2.99847
2.99578
2.99093
2.97633
2.94254
2.86146
2.63839
2.2167
1.36875
0.953518
0.856929
0.862244
0.881005
0.910518
0.94267
0.983659
1.0339
3.00001
3
3
2.99999
2.99997
2.9999
2.9998
2.9994
2.99882
2.99655
2.9932
2.98096
2.95916
2.89475
2.73956
2.40956
1.69859
1.10059
0.908075
0.897571
0.910752
0.936776
0.970622
1.00485
1.04648
3.00001
3.00001
3
3
2.99998
2.99994
2.99982
2.99964
2.99896
2.99792
2.9941
2.98789
2.96707
2.92766
2.81388
2.57622
1.98281
1.29035
0.986235
0.936714
0.941893
0.961982
0.993258
1.02718
1.06416
3.00001
3.00001
3
3
2.99999
2.99995
2.9999
2.9997
2.99941
2.9983
2.99657
2.99071
2.97939
2.94757
2.86958
2.70014
2.24077
1.52204
1.0914
0.98132
0.975125
0.98766
1.01309
1.04575
1.08079
3.00001
3.00001
3
3
2.99999
2.99998
2.99991
2.99983
2.99949
2.99899
2.99711
2.99417
2.98422
2.965
2.91177
2.77954
2.50759
1.86191
1.25977
1.0381
1.01224
1.01911
1.03892
1.06749
1.09849
3.00001
3.00001
3.00001
3
3
2.99998
2.99994
2.99988
2.99963
2.99928
2.99789
2.99592
2.98828
2.97638
2.93643
2.85246
2.65646
2.16762
1.46592
1.11612
1.04698
1.04788
1.06385
1.08976
1.11915
3.00001
3.00001
3.00001
3
3
2.99999
2.99996
2.99992
2.99975
2.9995
2.99853
2.99714
2.99179
2.98361
2.95502
2.90134
2.75628
2.41861
1.75828
1.25251
1.09493
1.07903
1.08795
1.10901
1.13827
3.00001
3.00001
3.00001
3.00001
3
2.99999
2.99998
2.99993
2.99986
2.9996
2.99921
2.99772
2.9955
2.98744
2.97396
2.93177
2.84001
2.62726
2.13588
1.45524
1.17072
1.11857
1.11814
1.13301
1.15649
3.00001
3.00001
3.00001
3.00001
3
3
2.99999
2.99996
2.99991
2.99972
2.99946
2.99843
2.99696
2.99125
2.98266
2.95274
2.89568
2.74872
2.39023
1.75262
1.29023
1.15747
1.14645
1.15508
1.17512
3.00001
3.00001
3.00001
3.00001
3.00001
3
3
2.99997
2.99994
2.99982
2.99965
2.99898
2.998
2.9943
2.98863
2.96879
2.93434
2.82883
2.62436
2.0905
1.49446
1.22871
1.17926
1.17888
1.19299
3.00001
3.00001
3.00001
3.00001
3.00001
3
3
2.99999
2.99996
2.99991
2.99973
2.99947
2.99847
2.99699
2.99167
2.98268
2.95472
2.89326
2.75137
2.39081
1.7656
1.34264
1.22077
1.20661
1.21325
3.00001
3.00001
3.00001
3.00001
3.00001
3.00001
3
3
2.99997
2.99994
2.99982
2.99965
2.99899
2.99803
2.99439
2.98892
2.96954
2.93634
2.83571
2.63661
2.13535
1.53636
1.28712
1.23983
1.23765
3.00001
3.00001
3.00001
3.00001
3.00001
3.00001
3
3
2.99999
2.99997
2.99989
2.99978
2.99937
2.99877
2.99648
2.99307
2.98095
2.95991
2.89755
2.76197
2.44777
1.85257
1.41384
1.27967
1.26316
3.00001
3.00001
3.00001
3.00001
3.00001
3.00001
3.00001
3
3
2.99998
2.99995
2.99984
2.99968
2.99908
2.99817
2.99494
2.98965
2.97241
2.94082
2.84802
2.66752
2.18141
1.62843
1.35935
1.30104
3.00001
3.00001
3.00001
3.00001
3.00001
3.00001
3.00001
3
3
2.99999
2.99996
2.99992
2.99976
2.99953
2.99866
2.99736
2.99264
2.98516
2.96052
2.91272
2.79136
2.50366
1.9417
1.49865
1.34495
3.00001
3.00001
3.00001
3.00001
3.00001
3.00001
3.00001
3.00001
3
3
2.99998
2.99995
2.99986
2.99971
2.99917
2.99839
2.99545
2.99102
2.97548
2.94893
2.86909
2.70955
2.30653
1.72506
1.43171
3.00001
3.00001
3.00001
3.00001
3.00001
3.00001
3.00001
3.00001
3
3
2.99999
2.99998
2.99992
2.99983
2.99952
2.99906
2.99734
2.99481
2.98563
2.97083
2.92477
2.82615
2.61061
2.10809
1.60791
3.00001
3.00001
3.00001
3.00001
3.00001
3.00001
3.00001
3.00001
3.00001
3
3
2.99998
2.99996
2.99988
2.99976
2.99932
2.99867
2.99629
2.99255
2.98022
2.95682
2.8959
2.75126
2.43896
1.84745
3.00001
3.00001
3.00001
3.00001
3.00001
3.00001
3.00001
3.00001
3.00001
3.00001
3
2.99999
2.99998
2.99993
2.99986
2.9996
2.99921
2.99776
2.99564
2.98792
2.97556
2.93628
2.85905
2.66548
2.25156
3.00001
3.00001
3.00001
3.00001
3.00001
3.00001
3.00001
3.00001
3.00001
3.00001
3
3
2.99999
2.99997
2.9999
2.9998
2.99943
2.99888
2.99687
2.99381
2.98315
2.96506
2.91133
2.79446
2.53597
3.00001
3.00001
3.00001
3.00001
3.00001
3.00001
3.00001
3.00001
3.00001
3.00001
3.00001
3
2.99999
2.99998
2.99994
2.99987
2.99962
2.99926
2.99788
2.99589
2.98838
2.97699
2.93817
2.86607
2.67805
3.00001
3.00001
3.00001
3.00001
3.00001
3.00001
3.00001
3.00001
3.00001
3.00001
3.00001
3
3
2.99999
2.99996
2.99991
2.99972
2.99944
2.99838
2.99682
2.99092
2.98176
2.95019
2.89042
2.72809
3.00001
3.00001
3.00001
3.00001
3.00001
3.00001
3.00001
3.00001
3.00001
3.00001
3.00001
3
3
2.99999
2.99997
2.9999
2.99981
2.99942
2.99886
2.99671
2.9934
2.98188
2.95992
2.89787
2.74069
3.00001
3.00001
3.00001
3.00001
3.00001
3.00001
3.00001
3.00001
3.00001
3.00001
3.00001
3
3
2.99999
2.99997
2.99991
2.99982
2.99945
2.99893
2.99682
2.99376
2.98222
2.9622
2.90054
2.75262
3.00001
3.00001
3.00001
3.00001
3.00001
3.00001
3.00001
3.00001
3.00001
3.00001
3.00001
3
3
2.99999
2.99998
2.99992
2.99983
2.99948
2.99898
2.99702
2.99398
2.9834
2.96271
2.90426
2.75416
3.00001
3.00001
3.00001
3.00001
3.00001
3.00001
3.00001
3.00001
3.00001
3.00001
3.00001
3.00001
3
2.99999
2.99997
2.99993
2.99978
2.99957
2.99871
2.99746
2.99255
2.98486
2.95807
2.90434
2.76139
3.00001
3.00001
3.00001
3.00001
3.00001
3.00001
3.00001
3.00001
3.00001
3.00001
3.00001
3.00001
3
2.99999
2.99997
2.99993
2.99978
2.99957
2.9987
2.99747
2.99251
2.98505
2.95776
2.90698
2.76254
3.00001
3.00001
3.00001
3.00001
3.00001
3.00001
3.00001
3.00001
3.00001
3.00001
3.00001
3.00001
3
2.99999
2.99997
2.99993
2.99979
2.99958
2.99873
2.9975
2.99268
2.98511
2.95869
2.90619
2.76544
3.00001
3.00001
3.00001
3.00001
3.00001
3.00001
3.00001
3.00001
3.00001
3.00001
3.00001
3.00001
3
2.99999
2.99998
2.99992
2.99984
2.99953
2.99905
2.99733
2.99423
2.98473
2.96288
2.9081
2.75946
3.00001
3.00001
3.00001
3.00001
3.00001
3.00001
3.00001
3.00001
3.00001
3.00001
3.00001
3.00001
3
2.99999
2.99997
2.99993
2.99979
2.99958
2.99874
2.99751
2.99273
2.98521
2.95903
2.90705
2.76781
3.00001
3.00001
3.00001
3.00001
3.00001
3.00001
3.00001
3.00001
3.00001
3.00001
3.00001
3.00001
3
2.99999
2.99997
2.99993
2.99978
2.99957
2.99871
2.9975
2.99259
2.98523
2.9583
2.90851
2.76661
1.0048
0.94162
0.448858
0.209454
0.168741
0.305321
0.382763
0.420685
0.448465
0.484337
0.524406
0.559864
0.590861
0.620957
0.652616
0.684034
0.713739
0.74005
0.765149
0.790779
0.81158
0.822297
0.826064
0.823292
0.809326
0.778911
0.73635
0.68606
0.63241
0.57902
0.526316
0.476052
0.427281
0.381738
0.33839
0.297292
0.258109
0.220119
0.18291
0.147309
0.113129
0.0803856
0.049366
0.023979
0.023156
0.048351
0.0758324
0.102096
0.127498
0.151759
0.174615
0.196919
0.219993
0.242699
0.264603
0.285579
0.305993
0.32582
0.345236
0.364123
0.382644
0.400705
0.418465
0.435797
0.452894
0.469603
0.486132
0.5023
0.518323
0.534016
0.549595
0.564872
0.580044
0.594949
0.609753
0.624335
0.638805
0.653087
0.667242
0.681236
0.695105
0.70881
0.722407
0.735822
0.749147
0.762282
0.77533
0.788186
0.800936
0.813472
0.825869
0.837988
0.849897
0.861365
0.872462
0.882767
0.892284
0.900295
0.90649
0.910893
1.02482
0.966732
0.726957
0.438841
0.357849
0.251427
0.138535
0.0542486
0.139796
0.217179
0.279899
0.323092
0.354217
0.385165
0.420198
0.455886
0.489406
0.519187
0.546155
0.573388
0.597535
0.610785
0.61342
0.608264
0.589578
0.55535
0.508237
0.454281
0.399423
0.345611
0.294405
0.245747
0.200015
0.158125
0.119415
0.0847117
0.0561733
0.0425623
0.0539488
0.077011
0.104039
0.130974
0.157583
0.182945
0.206887
0.230539
0.254165
0.277228
0.299737
0.321467
0.342056
0.361998
0.3824
0.402849
0.422522
0.441368
0.459743
0.477609
0.495157
0.512246
0.529071
0.545467
0.56163
0.577404
0.592973
0.608218
0.623291
0.638095
0.652747
0.667171
0.681435
0.695502
0.709396
0.723135
0.736692
0.750136
0.763396
0.776566
0.78956
0.802462
0.815206
0.827836
0.840329
0.852691
0.864928
0.877028
0.889004
0.900835
0.912542
0.924062
0.935466
0.946572
0.957561
0.968034
0.978323
0.987725
0.996698
1.00406
1.00991
1.01366
1.03735
1.0458
0.957839
0.801369
0.692217
0.604179
0.503856
0.398398
0.304702
0.222504
0.148522
0.0852172
0.067408
0.112137
0.160268
0.202821
0.240858
0.273602
0.301737
0.327996
0.35293
0.368688
0.36855
0.356991
0.335964
0.301176
0.251587
0.202609
0.156551
0.117946
0.0923847
0.0852457
0.0971904
0.119299
0.146186
0.174008
0.201764
0.22851
0.253926
0.278758
0.303278
0.327072
0.350094
0.372136
0.393239
0.413755
0.433964
0.453668
0.472956
0.491575
0.509234
0.526212
0.54331
0.560809
0.577734
0.594068
0.609848
0.625303
0.640388
0.655208
0.669697
0.683974
0.697944
0.711732
0.725225
0.738574
0.751669
0.76468
0.777478
0.790235
0.802792
0.815318
0.827653
0.839953
0.852106
0.864198
0.876208
0.888092
0.899984
0.911647
0.923425
0.934855
0.946511
0.957705
0.969224
0.980184
0.991551
1.00227
1.01346
1.0239
1.03484
1.04494
1.0555
1.06512
1.07516
1.08398
1.09274
1.09967
1.1054
1.10878
1.05538
1.09689
1.07782
1.00805
0.931035
0.856826
0.779864
0.693949
0.612005
0.537658
0.46493
0.395241
0.326636
0.266207
0.212164
0.16237
0.117637
0.0797728
0.0548152
0.057741
0.0757499
0.100299
0.108965
0.0801024
0.0669672
0.0735538
0.112084
0.146215
0.183148
0.219381
0.253177
0.283864
0.311877
0.338759
0.364744
0.389557
0.413404
0.435946
0.457542
0.478194
0.498484
0.517919
0.53691
0.554946
0.572488
0.589305
0.605992
0.622084
0.638143
0.653501
0.668339
0.682162
0.696218
0.710542
0.725093
0.738825
0.752278
0.765238
0.778158
0.790677
0.803197
0.815323
0.827487
0.839272
0.851121
0.862586
0.874146
0.885318
0.896636
0.907553
0.918674
0.929365
0.940336
0.95083
0.961685
0.972007
0.982767
0.992934
1.00359
1.01361
1.02413
1.03402
1.04439
1.05419
1.06439
1.07416
1.08421
1.09396
1.10387
1.1136
1.12336
1.13309
1.14272
1.1523
1.16143
1.17034
1.17834
1.18568
1.19099
1.19493
1.0686
1.12213
1.14126
1.11797
1.07722
1.02955
0.976086
0.916529
0.854093
0.792654
0.730928
0.668076
0.607779
0.551507
0.499241
0.450148
0.402334
0.356988
0.314187
0.274599
0.239752
0.212153
0.198831
0.214744
0.248772
0.294311
0.342729
0.386771
0.425654
0.458685
0.48756
0.51284
0.535248
0.556006
0.575706
0.59442
0.612184
0.62904
0.645001
0.660331
0.675133
0.689481
0.703301
0.716679
0.729558
0.74214
0.754428
0.766564
0.778558
0.790416
0.801776
0.812483
0.823084
0.834194
0.845759
0.857009
0.867924
0.878573
0.889137
0.899566
0.910012
0.920317
0.930678
0.940866
0.951133
0.961213
0.971405
0.981426
0.991569
1.00155
1.01162
1.02154
1.03152
1.04135
1.05122
1.06098
1.07074
1.08044
1.0901
1.09975
1.10932
1.11892
1.12839
1.13792
1.14729
1.15671
1.16596
1.17526
1.18448
1.1937
1.20288
1.21185
1.2208
1.22935
1.23791
1.24574
1.25341
1.25975
1.26508
1.26799
1.07699
1.13647
1.16972
1.17775
1.16254
1.13895
1.10751
1.07057
1.02874
0.984683
0.938241
0.890555
0.841485
0.793889
0.747279
0.702149
0.65866
0.614856
0.573137
0.533527
0.4994
0.472637
0.461537
0.468968
0.495351
0.534277
0.578609
0.621862
0.659507
0.688655
0.710206
0.727349
0.741192
0.753898
0.76598
0.777512
0.788433
0.798713
0.80839
0.817642
0.826637
0.835396
0.844077
0.852591
0.861055
0.86941
0.877801
0.88619
0.894721
0.903316
0.91181
0.91978
0.927689
0.935934
0.944977
0.954123
0.963191
0.97197
0.980794
0.989491
0.998325
1.00706
1.01593
1.0247
1.03359
1.04236
1.05124
1.05999
1.06886
1.07759
1.08648
1.09522
1.10418
1.11296
1.12202
1.13081
1.13997
1.14873
1.15794
1.16668
1.1759
1.1846
1.19381
1.20252
1.21173
1.22058
1.22989
1.23888
1.24815
1.25715
1.2663
1.27523
1.28417
1.29289
1.30143
1.30964
1.3173
1.32428
1.32971
1.33339
1.0796
1.14273
1.18599
1.2085
1.21469
1.20777
1.19359
1.17299
1.14828
1.11985
1.0892
1.05603
1.02122
0.984684
0.948147
0.910675
0.873061
0.834
0.793744
0.754879
0.717863
0.689898
0.67266
0.671922
0.693183
0.733509
0.780598
0.825651
0.863714
0.892829
0.91001
0.917705
0.920338
0.921402
0.923546
0.926139
0.929331
0.932806
0.936387
0.940183
0.944115
0.948224
0.952549
0.957102
0.961923
0.967045
0.972436
0.97818
0.9842
0.990576
0.997075
1.00336
1.00951
1.01592
1.02313
1.03088
1.03879
1.04652
1.05436
1.06204
1.06996
1.07774
1.08579
1.09368
1.10185
1.10985
1.11813
1.12623
1.13463
1.14281
1.15127
1.15952
1.16802
1.17631
1.18483
1.19316
1.20166
1.21005
1.21848
1.22692
1.23526
1.24376
1.25202
1.26067
1.26894
1.27767
1.28585
1.29456
1.30269
1.31135
1.31943
1.32797
1.33594
1.34427
1.35201
1.35991
1.36704
1.37389
1.3792
1.38281
1.08083
1.14322
1.19231
1.22544
1.24394
1.25127
1.24986
1.2423
1.22978
1.21427
1.19575
1.17473
1.15173
1.1264
1.09998
1.07169
1.0408
1.00689
0.968904
0.930724
0.893938
0.859928
0.83011
0.823485
0.845035
0.885143
0.933838
0.980594
1.01772
1.046
1.06446
1.07133
1.0667
1.05794
1.04943
1.04297
1.03886
1.03695
1.03608
1.03654
1.03734
1.03868
1.04042
1.04259
1.04531
1.04833
1.0519
1.05574
1.06014
1.06483
1.07004
1.07515
1.08015
1.08514
1.09082
1.09712
1.10386
1.11056
1.11738
1.12413
1.13107
1.13799
1.14512
1.15223
1.15952
1.1668
1.17423
1.18167
1.18923
1.19685
1.20453
1.21231
1.2201
1.22804
1.23592
1.24399
1.25194
1.26011
1.26814
1.27637
1.28452
1.29287
1.30115
1.3095
1.31782
1.32614
1.3345
1.34279
1.35114
1.35936
1.36763
1.37574
1.38387
1.39175
1.39962
1.40709
1.41438
1.42089
1.42648
1.42975
1.08401
1.14254
1.1933
1.23257
1.25977
1.27693
1.28538
1.28817
1.28559
1.27924
1.27074
1.25882
1.24567
1.22923
1.2112
1.19039
1.16483
1.13397
1.09841
1.06218
1.02134
0.973326
0.935638
0.930507
0.95388
0.992278
1.04073
1.08884
1.12896
1.15621
1.17698
1.18799
1.18931
1.18086
1.16674
1.15235
1.14027
1.13117
1.12537
1.12152
1.11938
1.11811
1.11762
1.1178
1.1184
1.11946
1.12101
1.12298
1.12551
1.12843
1.132
1.13573
1.13953
1.14321
1.14744
1.15227
1.15788
1.16358
1.16954
1.17545
1.1816
1.18773
1.19413
1.20054
1.20721
1.2139
1.22081
1.22775
1.23486
1.24203
1.24934
1.25671
1.2642
1.27174
1.27942
1.28709
1.2949
1.30264
1.31058
1.3184
1.32641
1.33421
1.34223
1.35009
1.35812
1.36606
1.37409
1.3821
1.39013
1.39815
1.40617
1.41413
1.42212
1.42994
1.43777
1.4453
1.45266
1.45939
1.46519
1.46877
1.08884
1.14288
1.19258
1.23488
1.26731
1.29144
1.30737
1.31754
1.32265
1.32421
1.32259
1.31841
1.31191
1.30312
1.29077
1.27493
1.25159
1.22258
1.19043
1.15043
1.09835
1.03656
1.00115
1.00213
1.02576
1.06383
1.11185
1.16339
1.2049
1.2346
1.25341
1.26794
1.27496
1.275
1.26679
1.25194
1.23358
1.21634
1.20219
1.19171
1.18457
1.17988
1.1768
1.175
1.17366
1.17317
1.17292
1.17341
1.17438
1.17589
1.17811
1.18075
1.18381
1.18661
1.18984
1.19348
1.19812
1.20302
1.20833
1.21365
1.21924
1.22485
1.23072
1.23666
1.24286
1.24913
1.25564
1.26221
1.269
1.27582
1.28287
1.28992
1.29721
1.30447
1.31196
1.3194
1.32707
1.33471
1.34248
1.35021
1.35803
1.36588
1.37372
1.38166
1.38951
1.39749
1.40535
1.41335
1.42121
1.42921
1.43705
1.44502
1.45277
1.46066
1.46823
1.47589
1.48305
1.49001
1.49579
1.49966
1.09489
1.14492
1.19223
1.23497
1.27044
1.29908
1.32035
1.33635
1.34706
1.35441
1.35837
1.35991
1.35866
1.35428
1.34607
1.33038
1.30917
1.28103
1.24766
1.19779
1.1259
1.06068
1.03794
1.04734
1.07192
1.11072
1.16037
1.2098
1.25176
1.28367
1.30673
1.32212
1.33322
1.3385
1.33874
1.33331
1.32005
1.30116
1.28099
1.26324
1.24908
1.23877
1.23177
1.22712
1.22417
1.2222
1.22098
1.22041
1.22035
1.22091
1.22209
1.22383
1.22616
1.22851
1.23104
1.23381
1.23741
1.24162
1.24631
1.25115
1.25628
1.2615
1.26696
1.27255
1.27836
1.28433
1.29049
1.29681
1.30328
1.30991
1.31666
1.32358
1.33057
1.33772
1.34493
1.3523
1.35964
1.3671
1.3745
1.38205
1.38952
1.39716
1.40471
1.41243
1.42006
1.42783
1.43551
1.44331
1.45103
1.45884
1.46658
1.47436
1.48208
1.48975
1.49737
1.50478
1.51207
1.51876
1.52476
1.52835
1.10474
1.14953
1.19357
1.23502
1.27137
1.30249
1.32758
1.34744
1.36298
1.37436
1.383
1.3885
1.39108
1.38967
1.38158
1.36533
1.34421
1.31512
1.27163
1.20246
1.11809
1.06722
1.05982
1.07416
1.10198
1.14402
1.19315
1.2386
1.27781
1.31074
1.33727
1.35738
1.37132
1.38056
1.38643
1.38791
1.38494
1.37499
1.35883
1.33829
1.31791
1.3001
1.28606
1.27601
1.26925
1.26494
1.26225
1.26059
1.25968
1.25929
1.25952
1.26031
1.26177
1.26354
1.2656
1.26765
1.27033
1.27364
1.27776
1.28213
1.28688
1.29175
1.29693
1.30221
1.30778
1.31344
1.3194
1.32542
1.33172
1.33807
1.34469
1.35133
1.35823
1.36516
1.3723
1.37938
1.38665
1.3939
1.4013
1.40871
1.41621
1.42376
1.43135
1.43901
1.44667
1.4544
1.46211
1.46985
1.4776
1.48531
1.49308
1.50074
1.50848
1.51606
1.5237
1.53112
1.53844
1.54531
1.5514
1.55531
1.1185
1.15816
1.19825
1.23702
1.27263
1.3043
1.33142
1.35373
1.3721
1.38681
1.39812
1.40654
1.41115
1.40979
1.39961
1.38334
1.35995
1.32299
1.26099
1.17065
1.09522
1.06984
1.07517
1.09258
1.12393
1.16754
1.21305
1.25415
1.29074
1.32298
1.35098
1.3745
1.39349
1.40765
1.41696
1.42308
1.42589
1.42534
1.41954
1.40684
1.388
1.36662
1.34619
1.32892
1.31587
1.30675
1.30095
1.29735
1.29535
1.29416
1.2937
1.29372
1.29435
1.29547
1.29707
1.29864
1.30057
1.30293
1.30622
1.31007
1.3144
1.31893
1.32377
1.32877
1.33403
1.33943
1.34507
1.35086
1.35689
1.36306
1.36944
1.37598
1.38269
1.3895
1.39636
1.40333
1.41033
1.41748
1.42461
1.43193
1.43918
1.44663
1.454
1.46155
1.469
1.47663
1.48416
1.49184
1.4994
1.50709
1.51467
1.52234
1.52987
1.53747
1.54489
1.55231
1.55945
1.56629
1.57234
1.57621
1.13222
1.16827
1.20492
1.24143
1.27562
1.30677
1.33432
1.35847
1.37808
1.3951
1.40777
1.41724
1.42123
1.41613
1.40375
1.3853
1.35516
1.30082
1.21149
1.12124
1.07763
1.0728
1.08362
1.10665
1.14248
1.1841
1.22416
1.26075
1.29454
1.32532
1.35363
1.3788
1.40122
1.41975
1.43489
1.44554
1.45256
1.45682
1.4584
1.45602
1.44773
1.43311
1.41298
1.39191
1.37238
1.35637
1.34454
1.33657
1.33169
1.32888
1.32743
1.32684
1.32687
1.32744
1.32857
1.32997
1.33151
1.33326
1.33571
1.33894
1.34287
1.34713
1.35174
1.3565
1.36157
1.36675
1.37224
1.37782
1.3837
1.38968
1.39595
1.40233
1.40889
1.41551
1.42225
1.42909
1.436
1.44305
1.45013
1.45736
1.46459
1.47196
1.47932
1.48679
1.49425
1.50176
1.50929
1.5168
1.52438
1.53187
1.53945
1.54689
1.55444
1.56179
1.56924
1.57643
1.5836
1.59026
1.59638
1.60014
1.14927
1.18118
1.21409
1.24719
1.27929
1.30956
1.33657
1.36134
1.382
1.39955
1.41335
1.42153
1.42141
1.4119
1.39714
1.37147
1.32369
1.24031
1.14255
1.08358
1.06928
1.07527
1.09122
1.11873
1.15646
1.19293
1.22823
1.2606
1.29204
1.32128
1.34935
1.37536
1.39944
1.42117
1.44058
1.45692
1.47007
1.47836
1.48418
1.48751
1.48847
1.48448
1.47395
1.45737
1.43662
1.41557
1.39672
1.38176
1.37115
1.36422
1.36023
1.35803
1.35723
1.35701
1.35756
1.35849
1.35974
1.36098
1.36262
1.36482
1.36795
1.37163
1.37581
1.38021
1.38492
1.3898
1.39495
1.40029
1.40588
1.41169
1.41774
1.42394
1.43026
1.43675
1.4433
1.45004
1.4568
1.46374
1.47069
1.47783
1.48496
1.49226
1.49955
1.50697
1.51437
1.52186
1.52933
1.53685
1.54435
1.55187
1.55936
1.56685
1.57428
1.58171
1.589
1.5963
1.60331
1.61008
1.6161
1.62005
1.16639
1.19544
1.22536
1.25594
1.28549
1.31423
1.34032
1.36387
1.38493
1.40145
1.41413
1.41762
1.41147
1.39927
1.37627
1.33394
1.25726
1.15843
1.0881
1.06509
1.06754
1.07764
1.09925
1.13061
1.16477
1.19698
1.22786
1.25738
1.28658
1.31464
1.34236
1.36862
1.39397
1.41759
1.43957
1.45936
1.47682
1.49142
1.50219
1.50908
1.51422
1.51665
1.51652
1.51073
1.49816
1.47987
1.45859
1.43786
1.41992
1.40623
1.39674
1.39105
1.38795
1.38673
1.38641
1.38698
1.38797
1.38913
1.39037
1.39196
1.39422
1.39733
1.40102
1.40512
1.40955
1.41424
1.41916
1.42432
1.42969
1.43536
1.44116
1.44718
1.45329
1.45963
1.46602
1.47263
1.47927
1.48611
1.49297
1.50001
1.50705
1.51425
1.52144
1.52875
1.53605
1.54343
1.55079
1.55822
1.5656
1.57303
1.58038
1.5878
1.59508
1.60244
1.60959
1.6168
1.62367
1.63039
1.6363
1.64027
1.18219
1.20861
1.2358
1.26411
1.29214
1.31944
1.34485
1.36773
1.38706
1.40238
1.40925
1.40602
1.39493
1.37466
1.33626
1.2655
1.16788
1.09101
1.06042
1.05846
1.06622
1.08379
1.11058
1.14064
1.16975
1.19785
1.22526
1.25276
1.28006
1.3075
1.33433
1.36096
1.3865
1.41153
1.43477
1.45726
1.47713
1.49569
1.51083
1.52348
1.53253
1.53857
1.54357
1.54529
1.54384
1.53596
1.52135
1.50173
1.48031
1.46004
1.44326
1.43096
1.42302
1.41849
1.41645
1.41596
1.41653
1.41758
1.41874
1.41999
1.4216
1.42386
1.42685
1.43041
1.43438
1.43874
1.44338
1.44833
1.45353
1.45899
1.46458
1.47039
1.4763
1.48243
1.48863
1.49506
1.50153
1.50823
1.51492
1.52184
1.52871
1.53579
1.54279
1.54999
1.55708
1.56435
1.57149
1.5788
1.58594
1.59327
1.60038
1.6077
1.61475
1.62201
1.62894
1.63604
1.64271
1.6493
1.65505
1.65897
1.20118
1.22522
1.24887
1.27392
1.29941
1.3248
1.34867
1.37021
1.38777
1.39815
1.39727
1.38705
1.36828
1.33368
1.26738
1.17208
1.09084
1.055
1.05017
1.05658
1.07154
1.09523
1.12214
1.1481
1.17273
1.1976
1.22258
1.24859
1.2745
1.3012
1.32728
1.35377
1.37922
1.40466
1.42869
1.45222
1.47386
1.49469
1.51298
1.53005
1.54356
1.55526
1.56314
1.56955
1.57362
1.57476
1.57181
1.56175
1.54526
1.5245
1.50311
1.4838
1.46855
1.45778
1.45133
1.44803
1.44704
1.44742
1.44844
1.44956
1.45081
1.4525
1.45482
1.45781
1.46127
1.46522
1.46951
1.47423
1.47916
1.48438
1.48969
1.49528
1.50092
1.50687
1.51283
1.51909
1.52533
1.53187
1.53834
1.54511
1.55177
1.55872
1.56551
1.57256
1.57944
1.58656
1.59348
1.60062
1.60755
1.61467
1.62157
1.62864
1.63546
1.64245
1.64914
1.65595
1.66237
1.66866
1.67419
1.67791
1.2153
1.24045
1.26373
1.28661
1.30916
1.33157
1.35296
1.3712
1.38455
1.38584
1.37663
1.35937
1.32693
1.2644
1.17187
1.08893
1.05008
1.04348
1.049
1.06241
1.0837
1.10826
1.13135
1.1535
1.17538
1.19797
1.22122
1.24556
1.27029
1.29592
1.32131
1.34733
1.37258
1.39811
1.42239
1.44657
1.46915
1.49146
1.51177
1.53176
1.5489
1.56534
1.57767
1.5885
1.59589
1.60251
1.60534
1.60577
1.60079
1.58856
1.57005
1.54889
1.52763
1.50933
1.49548
1.48637
1.48136
1.47937
1.47932
1.48023
1.48126
1.48252
1.48423
1.48663
1.48948
1.49286
1.49664
1.50097
1.50556
1.51052
1.51559
1.52098
1.5264
1.53217
1.53793
1.54403
1.55008
1.55646
1.56274
1.56934
1.57582
1.58258
1.5892
1.59607
1.60278
1.6097
1.61646
1.62337
1.63014
1.63701
1.64374
1.65052
1.65716
1.66382
1.67028
1.67673
1.68287
1.68877
1.694
1.69742
1.23005
1.25381
1.27648
1.29847
1.3198
1.34004
1.35768
1.37087
1.37331
1.3644
1.34767
1.31645
1.25631
1.16643
1.08415
1.04467
1.03724
1.04239
1.0551
1.07541
1.09818
1.11916
1.13869
1.15801
1.17787
1.19875
1.22081
1.24384
1.26774
1.29226
1.31726
1.34252
1.36777
1.39286
1.41756
1.44181
1.46548
1.48847
1.5107
1.53194
1.55203
1.57058
1.58747
1.60216
1.61403
1.62356
1.63106
1.63641
1.63844
1.63744
1.63022
1.61569
1.5958
1.57393
1.5532
1.53608
1.52373
1.51628
1.51253
1.51169
1.51222
1.5132
1.51445
1.51628
1.51865
1.52152
1.52481
1.52865
1.53281
1.53744
1.54222
1.54738
1.5526
1.55817
1.56375
1.56966
1.57554
1.58174
1.58786
1.59428
1.60061
1.60718
1.61366
1.62033
1.6269
1.63359
1.64021
1.64687
1.65349
1.66007
1.66664
1.67312
1.67955
1.68586
1.69206
1.6981
1.7039
1.70933
1.71415
1.7172
1.24891
1.26776
1.29045
1.31026
1.32898
1.34574
1.35865
1.36179
1.35311
1.33577
1.3041
1.24438
1.15619
1.0762
1.03809
1.03113
1.03642
1.04985
1.07051
1.09212
1.11114
1.12848
1.14547
1.163
1.18165
1.20151
1.22261
1.24473
1.26785
1.29163
1.31604
1.3407
1.36556
1.39034
1.41503
1.43934
1.46341
1.48682
1.50989
1.53191
1.55358
1.57367
1.59325
1.61047
1.62681
1.6397
1.65102
1.65954
1.66685
1.67087
1.67197
1.66914
1.65945
1.64257
1.62157
1.59923
1.57922
1.56335
1.55265
1.54663
1.54435
1.54429
1.54518
1.54637
1.54808
1.55047
1.55333
1.55668
1.56039
1.56454
1.56896
1.57378
1.57878
1.58411
1.58954
1.59524
1.60098
1.60695
1.61294
1.61915
1.62535
1.63172
1.63809
1.64456
1.65103
1.65751
1.66401
1.67043
1.67691
1.68325
1.68964
1.69585
1.70206
1.70807
1.71397
1.71962
1.725
1.72991
1.73416
1.73679
1.26762
1.28329
1.305
1.32372
1.33903
1.35038
1.3519
1.34239
1.32423
1.29076
1.22976
1.14218
1.0656
1.03045
1.02499
1.03081
1.04598
1.06774
1.08893
1.10691
1.12265
1.13759
1.15316
1.16968
1.18768
1.20678
1.22729
1.24863
1.27112
1.29406
1.31783
1.34171
1.36608
1.3903
1.41474
1.4388
1.46297
1.48644
1.50998
1.53261
1.55505
1.57639
1.59716
1.61653
1.63495
1.65127
1.66626
1.67795
1.68842
1.69637
1.70271
1.70509
1.70514
1.70023
1.68775
1.66881
1.64679
1.62458
1.6053
1.59095
1.58192
1.57735
1.57635
1.57693
1.57783
1.57931
1.58167
1.58464
1.58796
1.59164
1.59564
1.60003
1.60469
1.60969
1.61486
1.62032
1.62585
1.63163
1.63741
1.64342
1.64942
1.65562
1.66183
1.66814
1.67449
1.68083
1.68721
1.69351
1.69984
1.70603
1.71222
1.71822
1.72415
1.72988
1.7354
1.74064
1.74546
1.74979
1.75325
1.7554
1.29259
1.29882
1.31373
1.33273
1.34499
1.34608
1.33464
1.31505
1.27765
1.21299
1.12466
1.05244
1.02194
1.01882
1.02547
1.04289
1.0667
1.08766
1.10502
1.11957
1.1333
1.14712
1.16208
1.17811
1.19565
1.21422
1.23413
1.25478
1.27654
1.29873
1.32182
1.34502
1.36892
1.39264
1.41684
1.44066
1.4647
1.48822
1.51178
1.53462
1.55736
1.57918
1.60067
1.62101
1.64076
1.65894
1.67622
1.69137
1.70476
1.71562
1.72499
1.73245
1.73711
1.73824
1.73672
1.72942
1.71464
1.69411
1.67113
1.6493
1.63127
1.61854
1.61118
1.60823
1.60807
1.60872
1.61002
1.61217
1.61504
1.61828
1.62183
1.62577
1.63004
1.63468
1.63956
1.64472
1.65006
1.6556
1.66128
1.66708
1.67299
1.67895
1.68505
1.69113
1.69734
1.70347
1.70971
1.71579
1.72195
1.72792
1.73389
1.73964
1.74527
1.75064
1.75572
1.76042
1.76453
1.76801
1.77034
1.77182
1.32128
1.31807
1.32519
1.33635
1.34137
1.32906
1.30691
1.26593
1.19619
1.10599
1.03835
1.01248
1.01251
1.02096
1.04105
1.06662
1.0884
1.10552
1.11948
1.13203
1.14465
1.15803
1.1726
1.18841
1.20546
1.22362
1.24286
1.26293
1.28392
1.30547
1.32774
1.3504
1.3735
1.39684
1.42033
1.4439
1.46742
1.49082
1.51408
1.53701
1.5597
1.58185
1.60355
1.62461
1.64485
1.66447
1.68276
1.70028
1.71595
1.73033
1.74213
1.75255
1.7611
1.76784
1.77098
1.77129
1.76783
1.75788
1.74092
1.7189
1.69549
1.67412
1.65739
1.64639
1.6405
1.63901
1.63936
1.64025
1.64221
1.64501
1.64845
1.65207
1.65605
1.66021
1.66476
1.66957
1.67466
1.67994
1.68533
1.69092
1.69652
1.70231
1.70805
1.71397
1.7198
1.72578