/*--------------------------------*- C++ -*----------------------------------*\
| =========                 |                                                 |
| \\      /  F ield         | OpenFOAM: The Open Source CFD Toolbox           |
|  \\    /   O peration     | Version:  2112                                  |
|   \\  /    A nd           | Website:  www.openfoam.com                      |
|    \\/     M anipulation  |                                                 |
\*---------------------------------------------------------------------------*/
FoamFile
{
    version     2.0;
    format      ascii;
    arch        "LSB;label=32;scalar=64";
    class       volScalarField;
    location    "6.5";
    object      p;
}
// * * * * * * * * * * * * * * * * * * * * * * * * * * * * * * * * * * * * * //

dimensions      [1 -1 -2 0 0 0 0];

internalField   nonuniform List<scalar> 
5250
(
1.00001
1.00004
1.0001
1.0003
1.00061
1.00175
1.00344
1.01071
1.01876
1.0696
1.11403
1.4562
1.9554
4.172
9.32795
11.171
11.0252
10.9589
11.0452
11.2635
11.4705
11.599
11.6972
11.7738
11.8311
1.00001
1.00004
1.0001
1.00029
1.0006
1.00173
1.00338
1.01054
1.01845
1.06851
1.11212
1.44895
1.93698
4.12383
9.21591
11.1789
11.0279
10.953
11.0391
11.2571
11.4636
11.5923
11.6916
11.7694
11.828
1.00001
1.00004
1.0001
1.00028
1.00058
1.00168
1.00328
1.01022
1.0179
1.06641
1.10858
1.43423
1.90457
4.01313
8.96444
11.1956
11.0278
10.9297
11.013
11.227
11.4307
11.5576
11.6563
11.7333
11.7925
1.00001
1.00004
1.00009
1.00027
1.00056
1.0016
1.00313
1.00974
1.01708
1.06326
1.1033
1.41192
1.85557
3.84359
8.56623
11.2301
11.0297
10.8894
10.9671
11.1728
11.3722
11.4951
11.591
11.6664
11.7271
1.00001
1.00004
1.00009
1.00025
1.00052
1.0015
1.00294
1.00911
1.01601
1.05909
1.09635
1.38238
1.79037
3.61964
8.0181
11.2876
11.0358
10.8342
10.9041
11.0979
11.2915
11.4085
11.4991
11.571
11.6337
1
1.00003
1.00008
1.00024
1.00049
1.00139
1.00275
1.00835
1.01503
1.05356
1.08862
1.34577
1.71006
3.34608
7.31286
11.3634
11.0469
10.7633
10.8226
10.998
11.1832
11.2905
11.3718
11.4373
11.5019
1
1.00003
1.00007
1.00021
1.00045
1.00126
1.00253
1.00749
1.01394
1.04726
1.07998
1.30453
1.61977
3.03966
6.48252
11.4337
11.059
10.6832
10.7258
10.8712
11.0443
11.1362
11.1994
11.2484
11.3087
1
1.00003
1.00007
1.00019
1.0004
1.00113
1.00229
1.00659
1.01274
1.04075
1.07096
1.26199
1.52319
2.72273
5.55239
11.3879
11.0368
10.5987
10.613
10.7116
10.8662
10.9343
10.9679
10.9831
11.0196
1
1.00002
1.00006
1.00017
1.00036
1.00101
1.00204
1.00584
1.01145
1.03553
1.06362
1.22783
1.44569
2.51068
4.93993
11.0304
10.8818
10.5155
10.4629
10.5209
10.6404
10.6712
10.6569
10.599
10.5477
1
1.00002
1.00005
1.00015
1.00031
1.00088
1.00179
1.00514
1.01015
1.03122
1.05671
1.20132
1.38133
2.37169
4.38996
10.2442
10.5923
10.4084
10.2791
10.3041
10.3608
10.3433
10.2552
10.0405
9.70691
1
1.00001
1.00005
1.0001
1.00029
1.00057
1.00176
1.00309
1.01111
1.01799
1.06995
1.1153
1.46006
1.97357
4.15767
9.2053
10.3973
10.281
10.0886
10.0671
10.0485
9.9646
9.72315
9.15203
7.7051
1
1.00002
1.00004
1.00011
1.00023
1.00066
1.00134
1.00389
1.0074
1.02411
1.04151
1.15511
1.27227
2.06045
3.45916
8.11227
10.2794
10.1668
9.91785
9.82021
9.74146
9.56596
9.18437
8.41292
6.93724
1
1.00001
1.00003
1.0001
1.00021
1.00058
1.00118
1.00336
1.00666
1.02017
1.03672
1.12979
1.23052
1.86146
2.99524
6.8702
10.1976
10.0671
9.75853
9.57508
9.44047
9.19043
8.72026
7.93548
6.76948
1
1.00001
1.00003
1.00009
1.00018
1.0005
1.00102
1.00286
1.00578
1.01669
1.0328
1.10243
1.19615
1.67109
2.56226
5.55692
10.0287
9.93366
9.63062
9.34901
9.15231
8.86132
8.38037
7.66288
6.73813
1
1.00001
1.00002
1.00007
1.00015
1.00041
1.00084
1.00235
1.00475
1.0136
1.02695
1.08172
1.16075
1.52225
2.2135
4.54489
9.51261
9.68674
9.49377
9.14574
8.89639
8.58607
8.13149
7.49357
6.71676
1
1.00001
1.00002
1.00006
1.00012
1.00032
1.00066
1.00185
1.0037
1.01086
1.02022
1.06786
1.11729
1.43455
1.92716
3.91271
8.37849
9.40076
9.27809
8.98294
8.68297
8.36008
7.93337
7.36409
6.68871
1
1.00001
1.00002
1.00004
1.00009
1.00026
1.00052
1.00147
1.00293
1.0086
1.01599
1.05385
1.0911
1.34545
1.69921
3.28567
6.86221
9.15831
9.09277
8.86452
8.51819
8.1772
7.77121
7.25703
6.66085
1
1
1.00001
1.00003
1.00007
1.0002
1.00041
1.00115
1.00232
1.00664
1.01283
1.04077
1.07113
1.25962
1.51844
2.67974
5.26779
8.89363
8.94368
8.77863
8.41408
8.03038
7.63451
7.16965
6.63864
1
1
1.00001
1.00003
1.00005
1.00015
1.00031
1.00087
1.00177
1.00501
1.00994
1.02976
1.05502
1.187
1.35805
2.21619
3.88462
8.26866
8.81325
8.67025
8.32984
7.9101
7.5198
7.09363
6.61727
1
1
1.00001
1.00002
1.00005
1.0001
1.00026
1.00053
1.00151
1.00293
1.00907
1.01578
1.05725
1.09406
1.3618
1.7287
3.34729
6.81447
8.55002
8.48485
8.24804
7.81954
7.42644
7.02704
6.59488
1
1
1.00001
1.00001
1.00004
1.00007
1.00021
1.00042
1.00117
1.00236
1.00672
1.01312
1.04076
1.0729
1.25675
1.51654
2.63913
5.1105
8.20676
8.30692
8.15745
7.79838
7.36946
6.98017
6.57618
1
1
1
1.00001
1.00002
1.00006
1.00013
1.00036
1.00073
1.00204
1.00411
1.0118
1.0234
1.07001
1.1414
1.434
2.00123
3.76622
7.44511
8.14402
8.04252
7.76385
7.33647
6.94341
6.56358
1
1
1
1.00001
1.00002
1.00004
1.0001
1.00021
1.00059
1.00119
1.00339
1.00646
1.02053
1.03548
1.12856
1.22353
1.83356
2.83976
6.00098
7.9142
7.88734
7.71837
7.34218
6.92863
6.55218
1
1
1
1.00001
1.00001
1.00003
1.00006
1.00018
1.00036
1.001
1.00201
1.00576
1.01099
1.03493
1.06072
1.21615
1.41782
2.33109
4.19091
7.43467
7.78785
7.66729
7.35895
6.93265
6.5527
1
1
1
1
1.00001
1.00002
1.00005
1.00013
1.00026
1.00072
1.00145
1.00405
1.00808
1.02359
1.04399
1.14655
1.26719
1.92439
3.09039
6.36996
7.59343
7.54646
7.35038
6.94997
6.55828
1
1
1
1
1.00001
1.00002
1.00003
1.00009
1.00018
1.0005
1.00102
1.00282
1.00568
1.01616
1.03174
1.09716
1.18579
1.61176
2.37471
4.70925
7.19338
7.38977
7.29038
7.00349
6.57719
1
1
1
1
1
1.00001
1.00003
1.00005
1.00014
1.00029
1.00079
1.0016
1.00444
1.00881
1.02583
1.04801
1.15749
1.29905
1.96668
3.20388
6.36066
7.23253
7.18144
6.99816
6.61961
1
1
1
1
1
1.00001
1.00002
1.00004
1.0001
1.0002
1.00054
1.00109
1.00301
1.00607
1.01715
1.03342
1.1033
1.19209
1.64325
2.42019
4.74455
6.89213
7.05189
6.96006
6.7089
1
1
1
1
1
1
1.00001
1.00002
1.00006
1.00013
1.00035
1.00072
1.00198
1.00399
1.01114
1.02242
1.06379
1.13234
1.38236
1.8643
3.27918
6.12617
6.90557
6.87117
6.71419
1
1
1
1
1
1
1.00001
1.00002
1.00004
1.0001
1.00019
1.00053
1.00108
1.00298
1.00587
1.01729
1.03137
1.10573
1.18661
1.64258
2.39504
4.64652
6.57988
6.76164
6.68472
1
1
1
1
1
1
1
1.00001
1.00002
1.00006
1.00013
1.00035
1.00071
1.00194
1.00393
1.01089
1.02192
1.06189
1.12848
1.3663
1.82868
3.14594
5.82326
6.61269
6.59772
1
1
1
1
1
1
1
1.00001
1.00001
1.00004
1.00008
1.00022
1.00045
1.00122
1.00246
1.00683
1.01347
1.03966
1.07412
1.23579
1.48679
2.39788
4.29552
6.24832
6.50752
1
1
1
1
1
1
1
1
1.00001
1.00002
1.00006
1.00012
1.00032
1.00066
1.0018
1.00362
1.01007
1.02027
1.05706
1.11891
1.33496
1.757
2.95116
5.4107
6.31864
1
1
1
1
1
1
1
1
1.00001
1.00002
1.00003
1.00009
1.00017
1.00047
1.00095
1.0026
1.00523
1.0146
1.02851
1.08564
1.16182
1.50892
2.10657
3.79582
5.87104
1
1
1
1
1
1
1
1
1
1.00001
1.00002
1.00005
1.00011
1.00029
1.00059
1.00159
1.00322
1.00883
1.01774
1.04964
1.10202
1.28826
1.641
2.6706
4.8472
1
1
1
1
1
1
1
1
1
1.00001
1.00001
1.00003
1.00006
1.00017
1.00035
1.00093
1.00189
1.00514
1.01024
1.02907
1.05454
1.17108
1.32757
1.96657
3.15857
1
1
1
1
1
1
1
1
1
1
1.00001
1.00002
1.00004
1.00009
1.00024
1.00049
1.00132
1.00265
1.00731
1.01433
1.04208
1.07826
1.24658
1.50078
2.4147
1
1
1
1
1
1
1
1
1
1
1
1.00001
1.00003
1.00005
1.00014
1.00029
1.00079
1.00159
1.00431
1.00864
1.02405
1.04714
1.13846
1.277
1.80492
1
1
1
1
1
1
1
1
1
1
1
1.00001
1.00001
1.00004
1.00008
1.0002
1.00041
1.00111
1.00225
1.00612
1.01215
1.03475
1.06507
1.2036
1.40091
1
1
1
1
1
1
1
1
1
1
1
1
1.00001
1.00002
1.00005
1.00013
1.00027
1.00074
1.00151
1.00409
1.00825
1.02292
1.04515
1.13388
1.2627
1
1
1
1
1
1
1
1
1
1
1
1
1.00001
1.00002
1.00004
1.0001
1.0002
1.00056
1.00114
1.00317
1.00638
1.01813
1.03566
1.10935
1.21035
1
1
1
1
1
1
1
1
1
1
1
1
1.00001
1.00001
1.00004
1.00007
1.0002
1.00041
1.00114
1.00229
1.00657
1.0126
1.04046
1.07014
1.25828
1
1
1
1
1
1
1
1
1
1
1
1
1.00001
1.00001
1.00003
1.00007
1.00019
1.00038
1.00108
1.00218
1.00624
1.0122
1.03824
1.06798
1.24687
1
1
1
1
1
1
1
1
1
1
1
1
1.00001
1.00001
1.00003
1.00006
1.00018
1.00036
1.00102
1.00205
1.006
1.01137
1.03762
1.06442
1.24398
1
1
1
1
1
1
1
1
1
1
1
1
1
1.00001
1.00003
1.00008
1.00015
1.00044
1.00089
1.00254
1.00511
1.01505
1.02899
1.09474
1.17671
1
1
1
1
1
1
1
1
1
1
1
1
1
1.00001
1.00003
1.00008
1.00015
1.00043
1.00088
1.00252
1.00509
1.01486
1.02923
1.09228
1.17662
1
1
1
1
1
1
1
1
1
1
1
1
1
1.00001
1.00003
1.00007
1.00015
1.00043
1.00087
1.00249
1.00502
1.01478
1.02859
1.09281
1.17357
1
1
1
1
1
1
1
1
1
1
1
1
1
1.00001
1.00003
1.00006
1.00016
1.00033
1.00095
1.00186
1.00581
1.01014
1.03726
1.06062
1.23701
1
1
1
1
1
1
1
1
1
1
1
1
1
1.00001
1.00003
1.00007
1.00015
1.00043
1.00087
1.00247
1.00499
1.01466
1.02838
1.09189
1.17182
1
1
1
1
1
1
1
1
1
1
1
1
1
1.00001
1.00003
1.00007
1.00015
1.00043
1.00088
1.00249
1.00504
1.01467
1.02888
1.09067
1.17367
3.57573
2.61719
3.13861
4.08348
3.8942
3.74451
3.64986
3.60329
3.54116
3.45495
3.36988
3.29646
3.22828
3.15391
3.07613
2.99966
2.93006
2.86756
2.80432
2.73655
2.69907
2.68365
2.67985
2.696
2.75442
2.85497
2.99011
3.1454
3.3077
3.46948
3.62654
3.77592
3.91593
4.04417
4.1613
4.26791
4.36488
4.45379
4.53474
4.607
4.66959
4.72383
4.77006
4.80788
4.84554
4.8736
4.89328
4.90695
4.9148
4.91756
4.91633
4.91163
4.90122
4.88604
4.86784
4.84726
4.82403
4.79841
4.77051
4.74071
4.70907
4.67587
4.64117
4.60521
4.56799
4.52973
4.49041
4.45022
4.40913
4.36728
4.32465
4.28135
4.23739
4.19284
4.14774
4.10215
4.05613
4.00975
3.96308
3.91619
3.86915
3.82205
3.77495
3.72794
3.68107
3.63442
3.58805
3.54203
3.49643
3.45134
3.40685
3.3631
3.32026
3.27856
3.23836
3.20013
3.16462
3.13299
3.10687
3.0895
4.35839
3.55205
3.70925
4.04635
3.88247
3.71784
3.66495
3.6391
3.56427
3.45548
3.35823
3.283
3.22261
3.15183
3.0746
2.99745
2.92574
2.86209
2.80336
2.74448
2.70046
2.68056
2.67523
2.68863
2.74391
2.84153
2.97652
3.13345
3.29721
3.45991
3.61671
3.76574
3.9053
4.03357
4.15002
4.25588
4.3518
4.43966
4.52205
4.59544
4.65828
4.71312
4.76017
4.80037
4.83632
4.8649
4.88542
4.89954
4.90785
4.9109
4.9101
4.90638
4.89714
4.88115
4.86287
4.84257
4.81976
4.79449
4.76687
4.73727
4.70583
4.6728
4.63826
4.60242
4.56534
4.52716
4.48794
4.44781
4.4068
4.365
4.32244
4.27918
4.23528
4.19079
4.14575
4.10022
4.05427
4.00795
3.96134
3.91451
3.86754
3.8205
3.77347
3.72651
3.67971
3.63311
3.58679
3.54081
3.49525
3.45018
3.4057
3.36193
3.31905
3.27725
3.2369
3.1984
3.16267
3.13069
3.10402
3.08613
5.16058
4.22939
3.96419
3.9682
3.90325
3.75063
3.65625
3.60211
3.53352
3.44159
3.35265
3.28528
3.23134
3.15179
3.07088
2.99032
2.91533
2.8494
2.79375
2.74481
2.70211
2.67614
2.66724
2.67847
2.72736
2.8185
2.95268
3.11157
3.27481
3.43687
3.59298
3.74392
3.88627
4.01632
4.13418
4.24197
4.33985
4.42954
4.51169
4.58501
4.64862
4.70396
4.7515
4.79214
4.82706
4.85543
4.87647
4.89097
4.89951
4.90267
4.90206
4.89912
4.89142
4.87578
4.85676
4.83618
4.81366
4.78878
4.76152
4.73218
4.70096
4.66812
4.63378
4.5981
4.56117
4.52312
4.48403
4.444
4.40308
4.36139
4.31892
4.27574
4.23192
4.1875
4.14254
4.0971
4.05123
4.00499
3.95847
3.91172
3.86484
3.81787
3.77094
3.72406
3.67735
3.63081
3.58458
3.53863
3.49313
3.44805
3.4036
3.3598
3.31685
3.27491
3.23444
3.19577
3.15961
3.12697
3.09934
3.08043
5.55944
4.6564
4.18296
4.01296
3.92264
3.78115
3.67167
3.60372
3.52559
3.43452
3.34712
3.27724
3.21323
3.1398
3.06061
2.98293
2.90992
2.84515
2.7909
2.7417
2.70096
2.66862
2.65042
2.66034
2.71194
2.79653
2.92722
3.08507
3.24943
3.41326
3.57128
3.72201
3.86356
3.99353
4.1119
4.22011
4.31864
4.40862
4.49058
4.56422
4.62868
4.68478
4.733
4.77431
4.80924
4.83782
4.85952
4.87479
4.88396
4.88765
4.88724
4.8851
4.87912
4.86614
4.8464
4.82534
4.80301
4.77869
4.75209
4.7233
4.69256
4.66009
4.62609
4.59069
4.55404
4.51622
4.47735
4.4375
4.39677
4.35518
4.31286
4.26983
4.22617
4.18189
4.13708
4.09177
4.04605
3.99993
3.95357
3.90694
3.86022
3.81339
3.76662
3.71989
3.67334
3.62694
3.58084
3.53501
3.4896
3.44458
3.40012
3.35636
3.31345
3.2715
3.23077
3.19173
3.15496
3.12148
3.09264
3.0722
5.77581
4.95493
4.41294
4.12097
3.97121
3.83896
3.71429
3.62141
3.53543
3.44363
3.35582
3.28063
3.20905
3.13263
3.05441
2.97906
2.90786
2.84403
2.7884
2.73967
2.7009
2.67366
2.66311
2.67196
2.71272
2.80018
2.91971
3.06364
3.21826
3.37786
3.53453
3.68458
3.82596
3.95674
4.07665
4.18647
4.2868
4.37833
4.46144
4.53599
4.60165
4.65879
4.70797
4.74996
4.78531
4.81428
4.83678
4.85297
4.86312
4.86764
4.86743
4.86598
4.86163
4.85172
4.83297
4.81169
4.78919
4.76519
4.73921
4.71112
4.68103
4.64913
4.61562
4.58067
4.54441
4.50695
4.46842
4.42887
4.38841
4.34709
4.305
4.26219
4.21872
4.17463
4.13
4.08485
4.03929
3.99337
3.94716
3.90073
3.85418
3.80757
3.76097
3.71444
3.66805
3.62186
3.57589
3.53019
3.48488
3.44007
3.3958
3.3521
3.30915
3.26706
3.22613
3.18668
3.14931
3.11492
3.08486
3.06285
5.90919
5.18453
4.63265
4.27626
4.06498
3.9102
3.77659
3.66282
3.56332
3.46853
3.37742
3.29326
3.21563
3.13824
3.06052
2.9854
2.91539
2.85374
2.80158
2.75855
2.72702
2.70863
2.7088
2.7198
2.75773
2.83686
2.93788
3.05608
3.18257
3.32277
3.47295
3.62409
3.76949
3.90529
4.02929
4.14176
4.24379
4.33653
4.42069
4.49636
4.56353
4.62235
4.67316
4.71655
4.75304
4.78306
4.80677
4.82431
4.83588
4.84186
4.84215
4.84129
4.83825
4.83091
4.81573
4.7948
4.77218
4.74835
4.72293
4.6956
4.6663
4.63515
4.60229
4.56791
4.53216
4.49515
4.45702
4.41785
4.37772
4.33672
4.29493
4.25238
4.20918
4.16532
4.12093
4.076
4.03067
3.98494
3.93897
3.89274
3.84643
3.80002
3.75368
3.70737
3.66117
3.61517
3.56949
3.52413
3.47912
3.43449
3.39031
3.34664
3.30363
3.26142
3.22023
3.18039
3.14237
3.10708
3.07577
3.05192
5.99766
5.35717
4.82483
4.43594
4.17274
3.98831
3.84037
3.7153
3.60656
3.50619
3.41055
3.31996
3.23482
3.15492
3.07762
3.00321
2.93556
2.87816
2.83388
2.8041
2.78829
2.78965
2.80068
2.83203
2.88864
2.94333
3.00397
3.07656
3.16637
3.25729
3.37321
3.51651
3.66826
3.8191
3.95672
4.07909
4.18696
4.28264
4.36829
4.445
4.5138
4.57475
4.62803
4.67375
4.71237
4.7443
4.76984
4.7892
4.8026
4.81037
4.81228
4.81173
4.80964
4.8044
4.79324
4.77423
4.75224
4.72868
4.70367
4.677
4.64852
4.61819
4.58613
4.55246
4.51735
4.48091
4.4433
4.40458
4.36489
4.32428
4.28284
4.24062
4.19771
4.15414
4.11
4.06532
4.02023
3.97476
3.92902
3.88308
3.83704
3.79088
3.74483
3.69894
3.6532
3.60764
3.56224
3.51714
3.47227
3.42779
3.38367
3.34008
3.29704
3.25478
3.2134
3.17325
3.13471
3.09862
3.06623
3.0407
6.05826
5.48821
4.98662
4.58715
4.29152
4.07513
3.90888
3.77163
3.65344
3.54672
3.44714
3.35319
3.26562
3.18358
3.10617
3.03377
2.9703
2.92131
2.89204
2.88373
2.88818
2.90775
2.95813
3.03973
3.0889
3.11219
3.12922
3.14521
3.17232
3.22837
3.28676
3.37339
3.50837
3.67201
3.83239
3.97834
4.10512
4.21298
4.30536
4.3849
4.45558
4.5182
4.57372
4.62192
4.66328
4.69789
4.72596
4.74769
4.76337
4.77334
4.77756
4.77734
4.7761
4.77262
4.76486
4.74923
4.72878
4.70593
4.68144
4.65538
4.62766
4.59821
4.56703
4.53421
4.49987
4.46413
4.42713
4.38898
4.34979
4.30964
4.26862
4.22679
4.18422
4.14098
4.09714
4.05276
4.00793
3.96277
3.91733
3.87169
3.82601
3.78047
3.73487
3.68936
3.64396
3.59867
3.55352
3.50858
3.4639
3.41954
3.37556
3.33203
3.28905
3.24674
3.20525
3.16482
3.12587
3.08907
3.05579
3.02881
6.1037
5.58986
5.12069
4.72475
4.41128
4.17089
3.98415
3.8324
3.70527
3.59128
3.48789
3.39069
3.30084
3.21725
3.14038
3.07186
3.01655
2.98319
2.98076
2.98819
3.01629
3.08568
3.22584
3.3246
3.34689
3.3411
3.32026
3.27296
3.22983
3.23302
3.25373
3.30143
3.37641
3.49132
3.64781
3.81255
3.96858
4.10409
4.21721
4.31052
4.38829
4.45446
4.51194
4.56185
4.60535
4.64271
4.67367
4.69835
4.71707
4.72987
4.73701
4.7382
4.73756
4.73535
4.73005
4.71898
4.70101
4.67959
4.65601
4.6307
4.60377
4.57518
4.54493
4.51303
4.47957
4.44465
4.4084
4.37091
4.33232
4.29271
4.25218
4.21079
4.16862
4.12574
4.08224
4.03816
3.9937
3.94888
3.90388
3.85883
3.81373
3.76861
3.72348
3.67833
3.63323
3.58822
3.54333
3.49864
3.45418
3.41002
3.36622
3.32283
3.27994
3.23765
3.19611
3.15552
3.11625
3.0789
3.0449
3.01661
6.13369
5.66863
5.23048
4.84573
4.5254
4.26873
4.06434
3.89871
3.76047
3.63941
3.5321
3.43201
3.34022
3.25625
3.18164
3.12004
3.07938
3.07679
3.08561
3.11814
3.19993
3.37415
3.57788
3.65705
3.65111
3.62269
3.55259
3.42702
3.32649
3.27073
3.27146
3.28467
3.32162
3.38172
3.47452
3.60222
3.76295
3.92302
4.06975
4.19426
4.29513
4.37567
4.44079
4.49469
4.54043
4.57976
4.61317
4.64063
4.66281
4.67902
4.68965
4.69427
4.69413
4.69306
4.68994
4.68295
4.66883
4.64962
4.62751
4.60329
4.5773
4.54962
4.52032
4.48938
4.45688
4.42286
4.38743
4.3507
4.31279
4.27379
4.2338
4.1929
4.15116
4.10866
4.06552
4.02175
3.97774
3.93354
3.88922
3.84476
3.80017
3.75547
3.71068
3.66587
3.62107
3.57635
3.53174
3.48732
3.44309
3.39916
3.35553
3.31231
3.26954
3.22733
3.18579
3.14513
3.10565
3.0679
3.03336
3.00395
6.15433
5.72849
5.32023
4.95044
4.63068
4.36461
4.14671
3.96825
3.81935
3.69131
3.57859
3.47609
3.38358
3.30087
3.23232
3.18214
3.17361
3.18209
3.21412
3.29663
3.47652
3.79003
3.98695
4.00376
3.98282
3.91765
3.77702
3.60453
3.46741
3.37308
3.32102
3.31091
3.31769
3.34212
3.3916
3.45835
3.55368
3.6926
3.85123
4.00662
4.14382
4.25663
4.34536
4.41404
4.46774
4.51104
4.54691
4.57684
4.60168
4.62107
4.63528
4.64383
4.64666
4.64629
4.64466
4.64049
4.63153
4.61548
4.59546
4.57276
4.54797
4.52134
4.49304
4.46309
4.43157
4.3985
4.36398
4.32809
4.29095
4.25264
4.21328
4.17292
4.13166
4.08961
4.04693
4.00393
3.96055
3.91696
3.87317
3.82921
3.78505
3.74075
3.69635
3.6519
3.60744
3.56305
3.51875
3.47461
3.43065
3.38696
3.34356
3.30053
3.25794
3.21586
3.17441
3.13375
3.0942
3.05617
3.02131
2.99102
6.17242
5.77582
5.39289
5.03965
4.72548
4.45578
4.22897
4.03988
3.88138
3.74603
3.62824
3.52374
3.43108
3.3525
3.29488
3.27498
3.28204
3.31107
3.3885
3.56117
3.91329
4.26715
4.37935
4.36521
4.31165
4.18734
3.98086
3.79019
3.635
3.51641
3.43144
3.37827
3.35231
3.35428
3.36699
3.39748
3.44211
3.51411
3.62028
3.76498
3.9185
4.06493
4.19179
4.29351
4.3709
4.42876
4.47256
4.50673
4.53416
4.55631
4.57348
4.58561
4.59285
4.59456
4.59401
4.59197
4.58694
4.57636
4.55931
4.53862
4.51538
4.49005
4.46288
4.434
4.4035
4.37143
4.33787
4.30289
4.26661
4.22907
4.1904
4.15063
4.10989
4.06844
4.02653
3.98427
3.94162
3.89864
3.85539
3.81189
3.76818
3.72431
3.68032
3.63627
3.59218
3.54813
3.50415
3.46032
3.41665
3.37323
3.33009
3.2873
3.24493
3.20304
3.16175
3.12118
3.08166
3.04349
3.00844
2.97746
6.18297
5.81482
5.45549
5.11766
4.81051
4.54073
4.30918
4.11252
3.94599
3.80407
3.68172
3.57584
3.48575
3.4159
3.38485
3.38991
3.41468
3.48474
3.64665
3.98568
4.46247
4.72334
4.72714
4.69621
4.6037
4.40861
4.17966
3.98156
3.81814
3.68525
3.57876
3.49629
3.43611
3.3971
3.38259
3.38644
3.40068
3.42984
3.47759
3.55274
3.67096
3.81349
3.96393
4.10276
4.21923
4.30987
4.37666
4.42482
4.45986
4.48611
4.50631
4.52136
4.53206
4.53796
4.53899
4.53833
4.53599
4.53035
4.51866
4.50092
4.47972
4.45597
4.43013
4.40243
4.37302
4.34201
4.30947
4.27548
4.24013
4.20345
4.16551
4.12641
4.08649
4.04591
4.00482
3.96328
3.9213
3.87893
3.83621
3.79321
3.74996
3.70655
3.66298
3.61934
3.57563
3.53195
3.48832
3.44482
3.40147
3.35835
3.3155
3.273
3.23089
3.18925
3.14818
3.10778
3.0684
3.03022
2.99515
2.96364
6.19368
5.84513
5.50582
5.18354
4.88684
4.62067
4.38687
4.18542
4.01272
3.86554
3.73988
3.63485
3.5511
3.50417
3.5071
3.52725
3.5892
3.73729
4.05221
4.60154
4.99647
5.08262
5.06012
4.98586
4.82207
4.58701
4.36631
4.17408
4.00964
3.86827
3.74688
3.64333
3.55726
3.48858
3.43858
3.40472
3.3977
3.40216
3.41566
3.44531
3.49755
3.57842
3.70686
3.84864
3.99325
4.12356
4.2298
4.30978
4.36649
4.40559
4.4327
4.45195
4.46565
4.47482
4.47977
4.48
4.47926
4.47673
4.4707
4.45828
4.44006
4.41839
4.39415
4.36778
4.33958
4.3097
4.27827
4.24535
4.21099
4.1752
4.13809
4.09993
4.061
4.02136
3.9811
3.94029
3.89897
3.85722
3.81507
3.77261
3.72986
3.68691
3.64378
3.60055
3.55725
3.51396
3.47071
3.42756
3.38457
3.34179
3.29929
3.25711
3.21533
3.174
3.13323
3.0931
3.05396
3.0159
2.98094
2.94909
6.20432
5.8714
5.55006
5.24298
4.95639
4.69572
4.46236
4.25862
4.08213
3.93143
3.80508
3.70516
3.637
3.63727
3.65275
3.70702
3.84187
4.13087
4.7067
5.21098
5.39637
5.38527
5.33434
5.21047
4.98036
4.75183
4.54712
4.36496
4.20241
4.05582
3.92386
3.8054
3.70062
3.6095
3.53292
3.47106
3.42778
3.3994
3.39957
3.40258
3.41502
3.44482
3.50444
3.59668
3.7271
3.86914
4.00873
4.1307
4.22664
4.29593
4.34295
4.3738
4.39384
4.40694
4.41482
4.41845
4.41833
4.41741
4.41465
4.40829
4.39531
4.37679
4.35481
4.33017
4.30341
4.27483
4.2446
4.21283
4.17952
4.1447
4.10866
4.07163
4.03374
3.99506
3.95565
3.91562
3.87501
3.83391
3.79237
3.75047
3.70825
3.6658
3.62314
3.58036
3.53749
3.49461
3.45177
3.40902
3.36643
3.32404
3.28192
3.24013
3.19872
3.15777
3.11737
3.07759
3.03879
3.00098
2.96628
2.93424
6.21965
5.89822
5.59224
5.29944
5.02303
4.76792
4.53742
4.33245
4.15468
4.00335
3.88151
3.79497
3.77581
3.78929
3.83925
3.96608
4.24188
4.79916
5.38234
5.67361
5.67225
5.64017
5.54775
5.3538
5.12273
4.91205
4.72364
4.55099
4.39076
4.24096
4.1015
3.97229
3.85396
3.74691
3.65184
3.56919
3.49945
3.4444
3.40613
3.38854
3.38547
3.38849
3.40224
3.43616
3.50401
3.60674
3.7393
3.88103
4.01443
4.12674
4.21199
4.27102
4.30892
4.33197
4.34549
4.35251
4.35475
4.35446
4.35327
4.35016
4.34335
4.3297
4.31116
4.28911
4.26432
4.23731
4.20843
4.17784
4.14558
4.11191
4.07709
4.04123
4.00439
3.96669
3.92817
3.88895
3.84909
3.80868
3.76777
3.72646
3.68479
3.64286
3.60069
3.55839
3.51598
3.47356
3.43116
3.38885
3.34669
3.30475
3.26305
3.22171
3.18074
3.14024
3.10028
3.06097
3.02262
2.9852
2.95091
2.91888
6.25001
5.92914
5.63415
5.35363
5.08685
4.83823
4.61111
4.40845
4.23189
4.08615
3.97693
3.93404
3.94461
3.98903
4.1075
4.37062
4.90836
5.54499
5.90198
5.94968
5.92377
5.84315
5.67243
5.45775
5.25409
5.06783
4.89455
4.72974
4.57143
4.41966
4.27486
4.13818
4.01008
3.89157
3.78278
3.68465
3.59726
3.52155
3.45896
3.41007
3.37874
3.36701
3.35943
3.36305
3.37989
3.42001
3.49838
3.61193
3.74561
3.8845
4.01125
4.11375
4.18786
4.23634
4.26522
4.28081
4.28783
4.28899
4.28853
4.28701
4.28338
4.27572
4.26175
4.24342
4.22152
4.19673
4.16955
4.14025
4.10922
4.07683
4.04324
4.00854
3.9728
3.93613
3.89856
3.86022
3.82115
3.78148
3.74124
3.70057
3.65949
3.61813
3.5765
3.53474
3.49284
3.45093
3.40901
3.36721
3.32553
3.28409
3.24289
3.20207
3.1616
3.12165
3.08224
3.04349
3.00573
2.96886
2.93516
2.90336
6.31003
5.97518
5.6813
5.40717
5.14838
4.90705
4.68524
4.48759
4.31846
4.18605
4.11618
4.12318
4.16139
4.27105
4.52188
5.03996
5.7162
6.12509
6.21155
6.18933
6.11646
5.95947
5.75429
5.56135
5.38527
5.21919
5.05752
4.89869
4.74203
4.58919
4.44096
4.29921
4.16428
4.03753
3.91887
3.80934
3.70868
3.61799
3.53703
3.46829
3.41137
3.36747
3.34475
3.32888
3.3249
3.33002
3.35147
3.39938
3.48866
3.60891
3.74611
3.88166
3.99981
4.09123
4.15394
4.19209
4.21231
4.22082
4.22153
4.2209
4.21898
4.21468
4.2059
4.19181
4.17367
4.152
4.12719
4.09977
4.07032
4.0393
4.00694
3.97341
3.9388
3.9032
3.86663
3.82923
3.791
3.75212
3.71261
3.67262
3.63218
3.59144
3.55041
3.50922
3.46788
3.42654
3.38517
3.34393
3.3028
3.26193
3.22131
3.18107
3.14122
3.1019
3.06316
3.02511
2.9881
2.95198
2.91908
2.88785
6.38372
6.03162
5.73132
5.46244
5.21136
4.97623
4.76154
4.57311
4.42011
4.32287
4.3261
4.3584
4.46053
4.70232
5.207
5.90777
6.35318
6.46347
6.44277
6.37346
6.22309
6.02425
5.83921
5.67311
5.51738
5.36458
5.21093
5.05613
4.90109
4.74802
4.59807
4.45318
4.3137
4.18114
4.05537
3.93746
3.82708
3.72522
3.63123
3.54701
3.47243
3.40893
3.35789
3.32173
3.30225
3.28393
3.28367
3.29149
3.31832
3.37671
3.47845
3.60319
3.74016
3.87071
3.97959
4.05943
4.11078
4.13894
4.15106
4.1523
4.15151
4.14916
4.14404
4.13385
4.11962
4.10165
4.08008
4.05535
4.02809
3.99881
3.96788
3.93562
3.90217
3.86768
3.83215
3.79571
3.7584
3.72037
3.68165
3.64242
3.60269
3.56264
3.52227
3.48173
3.44104
3.40032
3.35959
3.31898
3.27849
3.23827
3.19832
3.15876
3.11964
3.08108
3.04316
3.00597
2.96993
2.93482
2.90299
2.87276
6.47479
6.1075
5.79099
5.51915
5.27327
5.04771
4.84595
4.67788
4.55859
4.55213
4.58001
4.67823
4.91762
5.42067
6.13576
6.59872
6.71967
6.6988
6.62705
6.47222
6.27301
6.09389
5.93663
5.79104
5.64801
5.50271
5.35376
5.20198
5.04893
4.89631
4.74578
4.59881
4.45652
4.31975
4.18906
4.06478
3.94735
3.83693
3.73384
3.63842
3.55126
3.47281
3.40391
3.346
3.30028
3.27078
3.24895
3.235
3.23697
3.24958
3.28325
3.35362
3.46258
3.59284
3.72851
3.85227
3.95082
4.01875
4.05863
4.07711
4.08069
4.07984
4.0771
4.07108
4.06001
4.04525
4.02717
4.00586
3.98153
3.95464
3.92563
3.89494
3.8628
3.82946
3.79498
3.75953
3.72317
3.68604
3.6482
3.6098
3.57088
3.5316
3.49198
3.45218
3.41222
3.37221
3.33221
3.29231
3.25257
3.21308
3.17392
3.13517
3.09692
3.05927
3.02236
2.98627
2.95145
2.91773
2.88731
2.85875
6.47861
6.2091
5.86778
5.58393
5.34095
5.12722
4.94685
4.81635
4.79669
4.82449
4.92457
5.17062
5.68768
6.4128
6.87608
6.98937
6.96489
6.88242
6.70835
6.50497
6.33072
6.18141
6.04518
5.9117
5.77521
5.63361
5.48722
5.33731
5.1857
5.03395
4.88371
4.73607
4.59219
4.45267
4.31829
4.18947
4.06665
3.94997
3.83996
3.73633
3.63977
3.55037
3.46894
3.39587
3.33249
3.27953
3.24085
3.21382
3.1915
3.1819
3.18606
3.20382
3.24575
3.3306
3.44434
3.57783
3.71082
3.82605
3.91273
3.96819
3.99676
4.00576
4.00508
4.00234
3.99609
3.98402
3.96897
3.95074
3.92952
3.90556
3.87914
3.85059
3.82016
3.78818
3.75486
3.72047
3.68511
3.64896
3.61208
3.5746
3.5366
3.49819
3.45944
3.42047
3.38134
3.34215
3.30298
3.26391
3.22504
3.18642
3.14818
3.11039
3.07319
3.03665
3.00099
2.96632
2.93309
2.90131
2.87278
2.84687
6.44922
6.28212
5.95182
5.66083
5.42264
5.22915
5.08952
5.0628
5.0917
5.1984
5.46095
6.01111
6.74473
7.19357
7.28286
7.25159
7.15183
6.94676
6.73545
6.55832
6.41211
6.2834
6.15868
6.03074
5.89695
5.75697
5.61208
5.46364
5.31347
5.16278
5.01311
4.86527
4.72047
4.57923
4.44244
4.31029
4.18351
4.06201
3.94641
3.83651
3.73289
3.63551
3.54484
3.4611
3.38501
3.31711
3.25904
3.21124
3.17817
3.15031
3.12933
3.12704
3.13368
3.15634
3.20666
3.30417
3.42368
3.55699
3.68485
3.79026
3.86452
3.90739
3.92631
3.92612
3.92408
3.91868
3.90752
3.89142
3.87247
3.85123
3.82762
3.80164
3.77339
3.74319
3.71136
3.67825
3.64407
3.60901
3.57319
3.53675
3.49976
3.46235
3.42458
3.38657
3.3484
3.31016
3.27195
3.23385
3.19597
3.15839
3.12124
3.08461
3.04867
3.01354
2.97946
2.94665
2.91552
2.8865
2.86058
2.83886
6.35364
6.27486
6.07438
5.77057
5.5326
5.37357
5.3457
5.37856
5.49757
5.7882
6.39249
7.13583
7.55676
7.60475
7.56281
7.43915
7.19205
6.96687
6.7843
6.63777
6.51248
6.39313
6.27231
6.14579
6.01263
5.87335
5.72948
5.58227
5.43333
5.28365
5.1346
4.98685
4.84155
4.69915
4.56055
4.42597
4.29611
4.171
4.05118
3.93655
3.82761
3.7241
3.62662
3.53495
3.44983
3.37124
3.30011
3.23728
3.18337
3.14221
3.10953
3.0833
3.06599
3.06773
3.07872
3.10811
3.17016
3.27306
3.39796
3.5303
3.65108
3.74523
3.80664
3.838
3.84468
3.8432
3.83851
3.82826
3.81184
3.79263
3.77119
3.74757
3.72172
3.69379
3.664
3.63262
3.59991
3.56615
3.53152
3.49622
3.46035
3.42404
3.38738
3.35046
3.3134
3.27626
3.23917
3.2022
3.1655
3.12915
3.09331
3.0581
3.02373
2.9904
2.95838
2.92809
2.89989
2.87482
2.85269
2.83736
6.25793
6.23508
6.13536
5.9154
5.69136
5.64418
5.68251
5.82135
6.15448
6.83964
7.58489
7.97187
7.96559
7.90069
7.73661
7.45555
7.20899
7.01512
6.86493
6.73914
6.62307
6.50651
6.38514
6.25735
6.12331
5.98392
5.84048
5.69412
5.54607
5.39724
5.24871
5.10119
4.95558
4.81249
4.67256
4.53628
4.40408
4.27628
4.15315
4.03488
3.92162
3.81349
3.71059
3.61308
3.52103
3.43479
3.35449
3.28083
3.21411
3.15597
3.10657
3.07021
3.03674
3.01221
3.00026
3.00404
3.01968
3.0569
3.13266
3.24038
3.36814
3.49748
3.60927
3.69115
3.73945
3.75955
3.75889
3.75551
3.74726
3.73072
3.71108
3.68884
3.66489
3.63929
3.61193
3.5828
3.55206
3.52
3.48686
3.45292
3.41832
3.38326
3.34783
3.31219
3.27637
3.24054
3.20474
3.16914
3.13382
3.09897
3.06472
3.03131
2.99893
2.96797
2.93876
2.91195
2.88812
2.86853
2.85284
2.84192
6.03261
6.19389
6.16383
6.07207
5.98168
6.02254
6.18107
6.56502
7.34801
8.09792
8.41487
8.39258
8.28296
8.03903
7.73564
7.46927
7.25879
7.10112
6.97243
6.85552
6.74016
6.6209
6.49595
6.36516
6.22916
6.08894
5.94539
5.79946
5.65197
5.50377
5.35564
5.20834
5.06256
4.91899
4.77813
4.64057
4.50662
4.37676
4.25108
4.12998
4.01337
3.90162
3.79452
3.69247
3.59519
3.50314
3.4161
3.33463
3.25883
3.18943
3.12717
3.07247
3.02878
2.99188
2.96107
2.93742
2.93586
2.9416
2.96104
3.00455
3.09202
3.20514
3.33383
3.45806
3.55929
3.62833
3.66355
3.67014
3.66819
3.66183
3.64805
3.6275
3.60466
3.58048
3.55501
3.52813
3.49971
3.46989
3.43873
3.40656
3.37352
3.33996
3.30595
3.27174
3.23736
3.20303
3.16876
3.13478
3.10116
3.06814
3.03591
3.00479
2.97509
2.94734
2.92215
2.90031
2.88337
2.87037
2.85952
2.85577
5.50529
6.10272
6.2297
6.26426
6.35443
6.58601
7.08212
7.98108
8.67832
8.90029
8.85579
8.69634
8.36628
8.03364
7.74944
7.52329
7.35492
7.21931
7.0982
6.9801
6.85939
6.73399
6.60365
6.46879
6.33019
6.18848
6.04433
5.8983
5.75104
5.60313
5.45532
5.30816
5.16237
5.01847
4.87708
4.73858
4.60347
4.47201
4.3445
4.22111
4.102
3.98726
3.877
3.77126
3.67004
3.57335
3.48123
3.39386
3.31147
3.23424
3.16262
3.09701
3.03865
2.9881
2.94835
2.9101
2.88183
2.86313
2.86474
2.87433
2.89993
2.95409
3.04988
3.16796
3.29566
3.41189
3.50227
3.55516
3.57693
3.57624
3.57216
3.56236
3.54248
3.51958
3.49476
3.46923
3.44283
3.41538
3.38662
3.3567
3.32573
3.29402
3.26178
3.22925
3.19659
3.16398
3.13156
3.09948
3.06797
3.03723
3.00764
2.97954
2.95359
2.93043
2.91111
2.89724
2.88737
2.88061
2.88089
2.88408
4.27538
5.81183
6.27613
6.5631
7.00315
7.74178
8.70615
9.35119
9.43893
9.35952
9.13002
8.71378
8.3515
8.05036
7.81015
7.63174
7.48708
7.35812
7.23361
7.10763
6.97814
6.84504
6.70843
6.56911
6.42757
6.28383
6.13854
5.99177
5.84423
5.69617
5.54833
5.40112
5.25522
5.11107
4.96924
4.83011
4.69415
4.56154
4.43265
4.30749
4.18641
4.06938