/*--------------------------------*- C++ -*----------------------------------*\
| =========                 |                                                 |
| \\      /  F ield         | OpenFOAM: The Open Source CFD Toolbox           |
|  \\    /   O peration     | Version:  2112                                  |
|   \\  /    A nd           | Website:  www.openfoam.com                      |
|    \\/     M anipulation  |                                                 |
\*---------------------------------------------------------------------------*/
FoamFile
{
    version     2.0;
    format      ascii;
    arch        "LSB;label=32;scalar=64";
    class       surfaceScalarField;
    location    "6.5";
    object      phi;
}
// * * * * * * * * * * * * * * * * * * * * * * * * * * * * * * * * * * * * * //

dimensions      [1 0 -1 0 0 0 0];

oriented        oriented;

internalField   nonuniform List<scalar> 
10325
(
0.00840003
9.20461e-11
0.00840003
7.12536e-10
0.00840003
2.1842e-09
0.00840002
6.59965e-09
0.0084
1.56119e-08
0.00839996
4.18137e-08
0.00839987
9.37696e-08
0.00839959
2.51941e-07
0.00839908
5.41676e-07
0.00839731
1.63384e-06
0.00839393
3.52877e-06
0.00838099
1.24641e-05
0.00834504
3.59887e-05
0.00820309
0.000141225
0.00752925
0.000671303
0.0068448
0.000685144
0.00620459
0.000640211
0.00555302
0.000650898
0.00488168
0.000670545
0.00417447
0.000705558
0.00342324
0.000749785
0.00262665
0.00079466
0.00178875
0.000835897
0.000911715
0.000876098
0.000910568
0.00840003
1.74801e-10
0.00840003
1.35577e-09
0.00840003
4.16977e-09
0.00840002
1.25815e-08
0.00840001
2.97018e-08
0.00839996
8.00042e-08
0.00839988
1.75867e-07
0.00839963
4.90183e-07
0.00839917
1.02052e-06
0.00839752
3.16093e-06
0.00839444
6.72146e-06
0.00838183
2.46435e-05
0.00835159
6.62332e-05
0.008201
0.000291135
0.00753276
0.00133697
0.00683914
0.00137933
0.00620781
0.00127134
0.00556298
0.00129486
0.00489454
0.00133808
0.00418123
0.00141717
0.00342248
0.00150717
0.00261928
0.00159587
0.00177396
0.00167913
0.000892782
0.00175634
0.00180215
0.00840003
2.55588e-10
0.00840003
1.98265e-09
0.00840003
6.08976e-09
0.00840002
1.83989e-08
0.00840001
4.3397e-08
0.00839997
1.17395e-07
0.00839989
2.57254e-07
0.00839963
7.24773e-07
0.00839917
1.50175e-06
0.00839751
4.70255e-06
0.00839437
9.96774e-06
0.00838175
3.68441e-05
0.00834916
9.87889e-05
0.00820967
0.000429808
0.00756686
0.00197696
0.00686782
0.00207904
0.00624279
0.00189621
0.00560806
0.00192865
0.00494607
0.00199914
0.00423434
0.00212735
0.0034739
0.00226609
0.00266344
0.00240464
0.00180683
0.00253388
0.000910668
0.00265161
0.00271175
0.00840003
3.26837e-10
0.00840003
2.53587e-09
0.00840003
7.75198e-09
0.00840002
2.34836e-08
0.00840001
5.52721e-08
0.00839997
1.50324e-07
0.0083999
3.28883e-07
0.00839968
9.32867e-07
0.00839926
1.93654e-06
0.00839774
6.10941e-06
0.00839476
1.30448e-05
0.00838304
4.81314e-05
0.00835206
0.00012972
0.00822922
0.000551791
0.00765575
0.00254732
0.00695263
0.00278308
0.0063305
0.00251825
0.00570401
0.00255419
0.00505109
0.00265102
0.00434594
0.00283108
0.00358576
0.00302498
0.00276857
0.00322009
0.00188761
0.00341301
0.000956259
0.00358225
0.00366704
0.00840003
3.59023e-10
0.00840003
2.78404e-09
0.00840003
8.57933e-09
0.00840002
2.5923e-08
0.00840002
6.07982e-08
0.0084
1.68213e-07
0.00839998
3.48853e-07
0.00839979
1.10376e-06
0.00839973
2.01128e-06
0.00839806
7.66795e-06
0.00839611
1.50784e-05
0.00838565
5.81608e-05
0.00835893
0.00015635
0.00826075
0.000649204
0.00782568
0.00297875
0.00711466
0.00349531
0.00648333
0.00314966
0.0058609
0.00317579
0.00521663
0.00329426
0.00451692
0.00352931
0.00375625
0.00378458
0.00292855
0.00404596
0.00202619
0.0043135
0.00104019
0.00456702
0.00470622
0.00840003
4.0558e-10
0.00840003
3.14249e-09
0.00840003
9.6418e-09
0.00840002
2.9177e-08
0.00840002
6.84226e-08
0.00839999
1.89145e-07
0.00839995
3.94623e-07
0.0083998
1.23768e-06
0.00839958
2.2458e-06
0.00839853
8.608e-06
0.00839685
1.6836e-05
0.00839017
6.44122e-05
0.00837352
0.000172867
0.00832182
0.000700191
0.00813895
0.0031577
0.0074116
0.00422415
0.00673904
0.00382236
0.00610795
0.00380605
0.00547392
0.00392754
0.00477859
0.00422331
0.00401298
0.00454943
0.00316766
0.0048896
0.00222049
0.00525864
0.00116347
0.0056232
0.0058688
0.00840003
4.36279e-10
0.00840003
3.37758e-09
0.00840003
1.03502e-08
0.00840003
3.13043e-08
0.00840002
7.35893e-08
0.00840001
2.01297e-07
0.00839997
4.29352e-07
0.0083999
1.29259e-06
0.00839977
2.38035e-06
0.00839939
8.89023e-06
0.0083991
1.71928e-05
0.00839824
6.48419e-05
0.00839629
0.000174713
0.00840936
0.000685922
0.00865274
0.00291015
0.00791685
0.00496177
0.0071342
0.00460534
0.00647885
0.00446059
0.00583798
0.00456768
0.00513599
0.00492395
0.00436341
0.00532121
0.0035005
0.00575113
0.0025198
0.00623712
0.00136403
0.00677779
0.00723214
0.00840003
4.34234e-10
0.00840003
3.35635e-09
0.00840003
1.03533e-08
0.00840003
3.10517e-08
0.00840003
7.34176e-08
0.00840003
1.94448e-07
0.00840003
4.3215e-07
0.00840015
1.16589e-06
0.00840012
2.40178e-06
0.00840131
7.61851e-06
0.00840375
1.4773e-05
0.00841483
5.3411e-05
0.00844567
0.000143178
0.00862603
0.000509009
0.00956093
0.00196867
0.00877998
0.00574487
0.00776233
0.00562415
0.00708356
0.00513937
0.00636144
0.00528955
0.00565018
0.00563338
0.00485868
0.00611124
0.00396093
0.00664757
0.00293372
0.00726322
0.00167735
0.00803307
0.0089088
0.00840003
3.90384e-10
0.00840003
3.65378e-09
0.00840003
1.10077e-08
0.00840003
3.35542e-08
0.00840002
7.8285e-08
0.0084
2.10344e-07
0.00839998
4.55385e-07
0.00839989
1.24409e-06
0.00839986
2.43477e-06
0.00839985
7.56289e-06
0.00840169
1.299e-05
0.00840506
4.97423e-05
0.00843579
0.000112182
0.00854153
0.000403001
0.00899374
0.00151193
0.00887187
0.00586574
0.0083007
0.0061963
0.00758112
0.00585975
0.0068739
0.00599785
0.00619043
0.00631656
0.00543056
0.00686938
0.00458279
0.00749373
0.00358371
0.0082611
0.00223191
0.00938394
0.0111401
0.00840003
1.77524e-10
0.00840003
5.44992e-09
0.00840003
8.36122e-09
0.00840002
4.71097e-08
0.00840003
6.00509e-08
0.00839994
3.02246e-07
0.00840007
3.2196e-07
0.00839944
1.87401e-06
0.00840042
1.45157e-06
0.00839646
1.14666e-05
0.00840341
6.04926e-06
0.00837831
7.45691e-05
0.00843897
5.13502e-05
0.00833986
0.00050155
0.00875707
0.00109253
0.00877135
0.00584756
0.00848156
0.0064842
0.00790115
0.0064394
0.00732366
0.00657459
0.0067144
0.00692546
0.00607287
0.00750994
0.00535723
0.00820756
0.00443285
0.00918366
0.00312129
0.0106944
0.0142604
0.00840003
6.27597e-10
0.00840003
1.00795e-09
0.00840003
9.4477e-09
0.00840007
1.10064e-08
0.00840006
6.74281e-08
0.0084003
6.63314e-08
0.00840016
4.51809e-07
0.00840171
3.33403e-07
0.00839987
3.25109e-06
0.00840961
1.68098e-06
0.00839257
2.28384e-05
0.00845497
1.13839e-05
0.00833579
0.000169563
0.00864732
0.000189931
0.00842571
0.00131329
0.00861534
0.00565396
0.00836209
0.0067357
0.00800974
0.0067903
0.00764594
0.00693734
0.00719588
0.00737446
0.00674963
0.00795504
0.00624703
0.00870858
0.00578083
0.00964769
0.00571308
0.0107598
0.0114979
0.00847459
0.00840003
3.31332e-10
0.00840003
1.77507e-09
0.00840003
6.11604e-09
0.00840003
1.69255e-08
0.00840005
4.31624e-08
0.00840001
1.05812e-07
0.0084002
2.63402e-07
0.00839988
6.36335e-07
0.00840156
1.59439e-06
0.00839893
4.36478e-06
0.00841105
1.08847e-05
0.0083919
3.12456e-05
0.00847555
8.62955e-05
0.00832187
0.000342695
0.00865783
0.000976252
0.00884866
0.00545951
0.00852661
0.00705693
0.00819822
0.00711712
0.00789798
0.00723568
0.00759666
0.00767424
0.00727784
0.00827278
0.00700451
0.00898053
0.0068859
0.00976387
0.00725596
0.0103857
0.0105307
0.00821984
0.00840003
2.80399e-10
0.00840003
2.17389e-09
0.00840003
6.69055e-09
0.00840003
2.01983e-08
0.00840002
4.77699e-08
0.0084
1.27678e-07
0.00839998
2.86017e-07
0.00839984
7.68516e-07
0.00839982
1.6128e-06
0.0083991
5.05344e-06
0.00840115
8.8816e-06
0.00839437
3.77786e-05
0.00840899
7.18824e-05
0.00842131
0.000329761
0.00849985
0.000897007
0.00923014
0.0047255
0.00888382
0.00740307
0.00845685
0.00754312
0.00818018
0.00751055
0.00798323
0.00786895
0.00780471
0.00844905
0.0077121
0.00907144
0.00782815
0.00964645
0.00825933
0.00995149
0.0099095
0.00887638
0.00840003
2.97333e-10
0.00840003
2.30687e-09
0.00840003
7.0709e-09
0.00840003
2.13603e-08
0.00840003
5.05914e-08
0.00840002
1.35044e-07
0.0084
3.04306e-07
0.00839996
7.97974e-07
0.00839981
1.77081e-06
0.00840006
4.76741e-06
0.00839856
1.03834e-05
0.00840462
3.15424e-05
0.0084084
6.81057e-05
0.00847505
0.000262462
0.00866212
0.0007096
0.0100746
0.0033083
0.00951035
0.00796733
0.00900324
0.00805017
0.00859737
0.00791554
0.0083809
0.0080836
0.0083048
0.00852291
0.00834733
0.00902524
0.0085209
0.00947034
0.00887658
0.00959262
0.00943843
0.00934341
0.00840003
2.85821e-10
0.00840003
2.22185e-09
0.00840003
6.78862e-09
0.00840003
2.05573e-08
0.00840003
4.86425e-08
0.00840004
1.30235e-07
0.00840005
2.93698e-07
0.00840008
7.65922e-07
0.00840011
1.73802e-06
0.0084005
4.34977e-06
0.00840024
1.06435e-05
0.00840714
2.45098e-05
0.00840658
6.86121e-05
0.0084867
0.000181777
0.00862869
0.000567871
0.00973972
0.00219516
0.00988516
0.00781947
0.00957648
0.00835753
0.00906665
0.00842373
0.00881853
0.00832994
0.00875272
0.008587
0.00884132
0.00893396
0.00904916
0.0092592
0.00934232
0.00929569
0.00907736
0.00969853
0.00840003
2.34136e-10
0.00840003
1.81448e-09
0.00840003
5.60734e-09
0.00840004
1.68428e-08
0.00840004
3.99916e-08
0.00840007
1.05567e-07
0.00840012
2.3794e-07
0.00840027
6.14417e-07
0.00840065
1.36096e-06
0.00840139
3.58965e-06
0.00840429
7.73818e-06
0.0084065
2.21732e-05
0.00842649
4.85904e-05
0.00845013
0.000157611
0.00856994
0.00044765
0.0090006
0.00176317
0.00984949
0.00696627
0.00970036
0.00850504
0.00944446
0.00867822
0.0092143
0.00855805
0.00914476
0.00865448
0.00921881
0.00885738
0.00941697
0.00905779
0.00967967
0.00902904
0.00878315
0.00996912
0.00840003
1.93963e-10
0.00840003
1.5015e-09
0.00840003
4.64258e-09
0.00840003
1.39235e-08
0.00840004
3.30037e-08
0.00840006
8.69405e-08
0.0084001
1.95148e-07
0.00840021
5.06064e-07
0.00840047
1.09603e-06
0.00840102
3.02458e-06
0.00840272
6.04244e-06
0.00840543
1.93419e-05
0.00841537
3.87131e-05
0.00843489
0.000137573
0.00852533
0.000356957
0.00886518
0.00142187
0.0100007
0.00582594
0.00993887
0.00856589
0.00974686
0.00886915
0.00955154
0.00875196
0.00951215
0.00869185
0.00957717
0.0087899
0.0097281
0.00890413
0.00992341
0.00883013
0.00855233
0.0101498
0.00840003
1.59676e-10
0.00840003
1.29485e-09
0.00840003
4.01699e-09
0.00840003
1.1951e-08
0.00840004
2.8577e-08
0.00840005
7.46761e-08
0.00840007
1.69379e-07
0.00840014
4.33765e-07
0.00840028
9.63827e-07
0.00840073
2.55342e-06
0.00840144
5.33148e-06
0.00840436
1.63233e-05
0.00841147
3.1629e-05
0.00843551
0.000113061
0.00850552
0.000286646
0.00886011
0.00106608
0.0108705
0.00380999
0.0105016
0.00893338
0.0103002
0.00906973
0.0100113
0.00903965
0.00986662
0.00883467
0.00989329
0.00876072
0.0100245
0.00876985
0.0101698
0.00868167
0.00840504
0.0103134
0.00840003
6.44348e-11
0.00840003
1.36542e-09
0.00840003
2.59956e-09
0.00840003
1.19528e-08
0.00840004
1.91526e-08
0.00840004
7.43836e-08
0.00840009
1.15162e-07
0.00840009
4.34912e-07
0.0084004
6.50836e-07
0.00840036
2.58789e-06
0.00840233
3.35986e-06
0.00840211
1.64761e-05
0.00841739
1.63307e-05
0.00842011
0.000110004
0.00857124
0.000135265
0.00881527
0.000820878
0.0104061
0.00221603
0.0111914
0.0081449
0.0109023
0.00935756
0.0105363
0.00940415
0.0102731
0.0090966
0.0101893
0.00884227
0.0102596
0.00869666
0.0103858
0.00855183
0.00829434
0.0104933
0.00840003
1.14747e-10
0.00840003
6.74062e-10
0.00840003
2.44954e-09
0.00840004
6.42625e-09
0.00840004
1.72551e-08
0.00840007
4.00434e-08
0.00840009
1.0118e-07
0.00840029
2.28386e-07
0.00840035
5.85964e-07
0.00840169
1.25207e-06
0.00840137
3.64799e-06
0.00841083
7.03924e-06
0.00840365
2.33097e-05
0.00846666
4.70804e-05
0.00843386
0.000167249
0.00882859
0.000425848
0.00920526
0.00183731
0.0109443
0.0063988
0.0110922
0.00920813
0.0109442
0.00955076
0.0106652
0.00937371
0.0105329
0.00897319
0.0105002
0.00872708
0.010559
0.00848977
0.00820781
0.0106421
0.00840003
1.44842e-10
0.00840003
4.22161e-10
0.00840003
2.46615e-09
0.00840003
4.31004e-09
0.00840003
1.70437e-08
0.00840005
2.73315e-08
0.00840005
1.0052e-07
0.00840012
1.56985e-07
0.00840012
5.76977e-07
0.0084005
8.72897e-07
0.00840074
3.38674e-06
0.00840304
4.73004e-06
0.00840471
2.15314e-05
0.00842418
2.75724e-05
0.00844337
0.000147506
0.0086004
0.000268271
0.00926986
0.00116619
0.0113134
0.00434813
0.0114358
0.00908326
0.0113925
0.00959305
0.0111867
0.00957836
0.0109491
0.00920879
0.0108385
0.00883639
0.0107976
0.00852819
0.00819895
0.0108031
0.00840003
5.19566e-11
0.00840003
5.70124e-10
0.00840003
1.30754e-09
0.00840003
5.14323e-09
0.00840004
9.46572e-09
0.00840003
3.22301e-08
0.00840008
5.6919e-08
0.00840004
1.8835e-07
0.00840029
3.28996e-07
0.00840007
1.09303e-06
0.00840158
1.87254e-06
0.00839979
6.48716e-06
0.00841065
1.06573e-05
0.00839825
3.97806e-05
0.00847818
6.74661e-05
0.00846228
0.000283323
0.00901731
0.000611087
0.0109071
0.00245401
0.0118195
0.00816561
0.0116975
0.00971327
0.0114778
0.00979649
0.0112364
0.00944859
0.0111385
0.00893234
0.0110798
0.00858559
0.00824682
0.0110286
0.00840003
7.24981e-11
0.00840003
2.54626e-10
0.00840003
1.32867e-09
0.00840003
2.55261e-09
0.00840003
9.27006e-09
0.00840005
1.62556e-08
0.00840005
5.48903e-08
0.00840014
9.44647e-08
0.00840016
3.15386e-07
0.00840071
5.36096e-07
0.00840073
1.84693e-06
0.00840428
2.94443e-06
0.00840322
1.16328e-05
0.0084268
1.62328e-05
0.00841548
7.8393e-05
0.00858624
0.000112442
0.00858803
0.000607977
0.00954186
0.00149811
0.0117323
0.00596577
0.0119574
0.00948541
0.0118918
0.00986025
0.0116429
0.00969627
0.0114088
0.00916492
0.0113097
0.00868372
0.00830415
0.0112506
0.00840003
3.6218e-11
0.00840003
2.41331e-10
0.00840003
7.61879e-10
0.00840003
2.26333e-09
0.00840003
5.4077e-09
0.00840004
1.41688e-08
0.00840006
3.19912e-08
0.00840007
8.16053e-08
0.00840021
1.81718e-07
0.00840028
4.62787e-07
0.00840109
1.02719e-06
0.00840134
2.67357e-06
0.00840715
5.83558e-06
0.00840674
1.64619e-05
0.00844933
3.585e-05
0.00845122
0.00010977
0.00877198
0.000286504
0.00926514
0.00100304
0.0119763
0.00324452
0.012412
0.00904677
0.0124065
0.00986484
0.012123
0.00997861
0.0117708
0.00951602
0.0115817
0.00887135
0.00841809
0.011466
0.00840003
2.34408e-11
0.00840003
1.84949e-10
0.00840003
5.75709e-10
0.00840003
1.70906e-09
0.00840003
4.09169e-09
0.00840004
1.06423e-08
0.00840004
2.41979e-08
0.00840006
6.1178e-08
0.00840011
1.37393e-07
0.00840022
3.45744e-07
0.00840047
7.72389e-07
0.00840116
1.96627e-06
0.00840268
4.30777e-06
0.00840734
1.17236e-05
0.00841899
2.40863e-05
0.00845125
7.71351e-05
0.00856829
0.000168823
0.00892634
0.000643293
0.0103188
0.00184839
0.0123345
0.00702436
0.0125226
0.00967548
0.0125137
0.00998671
0.0121171
0.00991201
0.0119022
0.00908572
0.00858958
0.011729
0.00840003
1.04724e-11
0.00840003
1.65992e-10
0.00840003
3.55338e-10
0.00840003
1.46665e-09
0.00840003
2.5915e-09
0.00840003
9.06951e-09
0.00840004
1.54861e-08
0.00840005
5.2231e-08
0.0084001
8.85726e-08
0.00840015
2.96812e-07
0.00840042
5.00787e-07
0.00840068
1.69232e-06
0.00840217
2.80494e-06
0.00840388
9.95994e-06
0.00841256
1.53546e-05
0.00842504
6.43292e-05
0.00849754
9.61185e-05
0.00866904
0.0004705
0.00935171
0.00116377
0.0121518
0.00421491
0.0126704
0.0091543
0.012714
0.00994269
0.0126686
0.00995693
0.0122216
0.00953236
0.00883446
0.0119758
0.00840003
1.4078e-11
0.00840003
8.52691e-11
0.00840003
3.11559e-10
0.00840003
8.10107e-10
0.00840003
2.20426e-09
0.00840004
5.07599e-09
0.00840004
1.30193e-08
0.00840006
2.9219e-08
0.00840007
7.39501e-08
0.00840021
1.64959e-07
0.00840029
4.16723e-07
0.00840105
9.28268e-07
0.00840147
2.36564e-06
0.0084062
5.2277e-06
0.00840748
1.39683e-05
0.00844145
3.03145e-05
0.00844815
8.89158e-05
0.008703
0.000215131
0.00913224
0.000732905
0.0111406
0.00220201
0.0128549
0.00743366
0.012973
0.00982357
0.0129037
0.0100254
0.0125517
0.00988386
0.00912528
0.0122601
0.00840003
1.12702e-11
0.00840003
6.09724e-11
0.00840003
2.24141e-10
0.00840003
5.80146e-10
0.00840003
1.57338e-09
0.00840003
3.63326e-09
0.00840004
9.26598e-09
0.00840004
2.08773e-08
0.00840007
5.24947e-08
0.00840011
1.17582e-07
0.00840023
2.9475e-07
0.0084005
6.58278e-07
0.0084012
1.65647e-06
0.00840275
3.67613e-06
0.0084071
9.55456e-06
0.00841699
2.04315e-05
0.00844464
6.08866e-05
0.00853473
0.000125066
0.00879371
0.000472733
0.0097187
0.00127506
0.012368
0.00477566
0.0130409
0.00914785
0.0131645
0.00990099
0.0130637
0.0099838
0.00952324
0.0126653
0.00840003
1.02111e-11
0.00840003
3.43373e-11
0.00840003
1.77486e-10
0.00840003
3.47185e-10
0.00840003
1.22687e-09
0.00840003
2.20135e-09
0.00840003
7.19152e-09
0.00840004
1.26951e-08
0.00840005
4.07011e-08
0.0084001
7.15947e-08
0.00840016
2.28936e-07
0.00840042
4.01121e-07
0.00840078
1.29157e-06
0.00840222
2.23194e-06
0.0084043
7.43795e-06
0.0084124
1.22975e-05
0.00842804
4.50649e-05
0.00847919
7.36983e-05
0.00865295
0.00029812
0.00925109
0.000676682
0.011573
0.00244972
0.0131468
0.00756747
0.013254
0.00979123
0.0132994
0.00993637
0.00984714
0.0129737
0.00840003
4.36126e-12
0.00840003
2.96283e-11
0.00840003
9.34679e-11
0.00840003
2.77279e-10
0.00840003
6.62161e-10
0.00840003
1.72613e-09
0.00840003
3.89736e-09
0.00840004
9.86089e-09
0.00840006
2.19888e-08
0.00840007
5.52078e-08
0.00840018
1.22719e-07
0.00840027
3.07662e-07
0.00840088
6.83057e-07
0.00840137
1.73072e-06
0.00840503
3.77271e-06
0.00840704
1.02184e-05
0.0084312
2.08834e-05
0.00843876
6.57999e-05
0.00860186
0.000134862
0.00877564
0.000501612
0.00987979
0.00134292
0.0126894
0.00474609
0.0134068
0.00907284
0.0135191
0.00982376
0.00998396
0.0133809
0.00840003
2.62341e-12
0.00840003
2.04092e-11
0.00840003
6.357e-11
0.00840003
1.88466e-10
0.00840003
4.50252e-10
0.00840003
1.16724e-09
0.00840003
2.64418e-09
0.00840004
6.65283e-09
0.00840004
1.48821e-08
0.00840006
3.72025e-08
0.0084001
8.28894e-08
0.0084002
2.07274e-07
0.00840042
4.60767e-07
0.00840098
1.15786e-06
0.00840218
2.56825e-06
0.00840584
6.52503e-06
0.00841197
1.46878e-05
0.00844
3.77494e-05
0.00848052
9.36567e-05
0.0087248
0.000257819
0.00931126
0.000751036
0.0115134
0.00255401
0.0134014
0.00718175
0.013558
0.0096595
0.00981032
0.0137248
0.00840003
1.25823e-12
0.00840003
1.56448e-11
0.00840003
3.67942e-11
0.00840003
1.3931e-10
0.00840003
2.64928e-10
0.00840003
8.55648e-10
0.00840003
1.56243e-09
0.00840003
4.86367e-09
0.00840004
8.8078e-09
0.00840005
2.7156e-08
0.00840008
4.90498e-08
0.00840014
1.5094e-07
0.00840033
2.71479e-07
0.00840066
8.39032e-07
0.00840174
1.49567e-06
0.00840353
4.7203e-06
0.00840981
8.21407e-06
0.00841936
2.77836e-05
0.00846386
4.733e-05
0.00855369
0.000176065
0.00891187
0.000381272
0.010093
0.00138342
0.0128229
0.00440843
0.0137181
0.00875932
0.00968392
0.0138452
0.00840003
1.6502e-12
0.00840003
6.77916e-12
0.00840003
3.15186e-11
0.00840003
6.66167e-11
0.00840003
2.18949e-10
0.00840003
4.18213e-10
0.00840003
1.27861e-09
0.00840003
2.39247e-09
0.00840004
7.1862e-09
0.00840005
1.33906e-08
0.00840006
4.00404e-08
0.00840013
7.4497e-08
0.00840018
2.22763e-07
0.00840061
4.13568e-07
0.00840086
1.24291e-06
0.00840327
2.30032e-06
0.00840445
7.00502e-06
0.00841906
1.31044e-05
0.00842508
4.09199e-05
0.00852069
8.01871e-05
0.008627
0.000273972
0.00933623
0.000668879
0.0115041
0.00223964
0.0136172
0.00665443
0.00946385
0.0138364
0.00840003
7.75192e-13
0.00840003
5.30615e-12
0.00840003
1.66562e-11
0.00840003
4.95379e-11
0.00840003
1.17834e-10
0.00840003
3.07634e-10
0.00840003
6.91444e-10
0.00840003
1.7521e-09
0.00840003
3.88748e-09
0.00840004
9.7798e-09
0.00840006
2.16358e-08
0.00840008
5.43264e-08
0.00840018
1.20102e-07
0.00840029
3.01523e-07
0.00840086
6.66666e-07
0.00840147
1.67873e-06
0.00840477
3.70782e-06
0.00840823
9.5493e-06
0.00842835
2.07707e-05
0.00844951
5.85136e-05
0.00859625
0.000126949
0.00884349
0.000419604
0.00993457
0.00114756
0.0128531
0.00372443
0.00833754
0.0139699
0.00840003
4.4528e-13
0.00840003
3.44998e-12
0.00840003
1.07452e-11
0.00840003
3.18805e-11
0.00840003
7.60348e-11
0.00840003
1.97063e-10
0.00840003
4.45274e-10
0.00840003
1.11979e-09
0.00840003
2.49861e-09
0.00840004
6.24039e-09
0.00840004
1.38792e-08
0.00840006
3.46189e-08
0.00840011
7.68686e-08
0.00840021
1.9188e-07
0.00840046
4.25128e-07
0.00840106
1.06521e-06
0.0084024
2.35386e-06
0.00840595
5.95586e-06
0.00841337
1.32879e-05
0.00843753
3.40183e-05
0.00848236
8.19328e-05
0.0086811
0.000219012
0.00919671
0.000633353
0.0108696
0.00204355
0.00569352
0.0135052
0.00840003
1.97125e-13
0.00840003
2.43787e-12
0.00840003
5.88335e-12
0.00840003
2.17306e-11
0.00840003
4.23305e-11
0.00840003
1.32865e-10
0.00840003
2.48394e-10
0.00840003
7.49385e-10
0.00840003
1.38944e-09
0.00840003
4.14377e-09
0.00840004
7.6711e-09
0.00840005
2.27737e-08
0.00840009
4.21353e-08
0.00840015
1.24841e-07
0.00840034
2.30732e-07
0.00840071
6.84519e-07
0.00840179
1.26172e-06
0.0084039
3.78934e-06
0.00841035
6.85952e-06
0.00842242
2.19028e-05
0.00846642
3.76877e-05
0.00854631
0.000136794
0.00890922
0.000268869
0.0099404
0.00101386
0.00282205
0.0128038
0.00840003
2.0069e-13
0.00840003
1.1566e-12
0.00840003
4.26486e-12
0.00840003
1.09993e-11
0.00840003
2.98752e-11
0.00840003
6.81736e-11
0.00840003
1.73705e-10
0.00840003
3.85547e-10
0.00840003
9.67351e-10
0.00840003
2.13203e-09
0.00840004
5.33193e-09
0.00840005
1.17246e-08
0.00840006
2.93289e-08
0.00840012
6.43875e-08
0.00840019
1.6128e-07
0.00840052
3.53161e-07
0.00840091
8.87419e-07
0.00840278
1.93634e-06
0.00840473
4.92688e-06
0.00841615
1.0693e-05
0.00842278
2.8437e-05
0.00851341
6.20588e-05
0.00858008
0.000182087
0.00919367
0.000467344
0.00164585
0.0102429
0.00840003
1.60586e-13
0.00840003
5.87702e-13
0.00840003
2.84241e-12
0.00840003
5.875e-12
0.00840003
1.95416e-11
0.00840003
3.67648e-11
0.00840003
1.12861e-10
0.00840003
2.08098e-10
0.00840003
6.26035e-10
0.00840003
1.14915e-09
0.00840003
3.43863e-09
0.00840004
6.30711e-09
0.00840005
1.88425e-08
0.00840008
3.45579e-08
0.00840014
1.03202e-07
0.0084003
1.89023e-07
0.00840062
5.65646e-07
0.00840152
1.03151e-06
0.0084033
3.11831e-06
0.0084084
5.61071e-06
0.00841865
1.77022e-05
0.00845066
3.10333e-05
0.00852093
0.000108422
0.0087807
0.000210199
0.000790582
0.00961924
0.00840003
6.24855e-14
0.00840003
4.20386e-13
0.00840003
1.33611e-12
0.00840003
3.92391e-12
0.00840003
9.39146e-12
0.00840003
2.41345e-11
0.00840003
5.44022e-11
0.00840003
1.35315e-10
0.00840003
3.00622e-10
0.00840003
7.40914e-10
0.00840003
1.64015e-09
0.00840004
4.02902e-09
0.00840004
8.91139e-09
0.00840006
2.1853e-08
0.00840011
4.83165e-08
0.00840018
1.18373e-07
0.00840048
2.61505e-07
0.00840085
6.41065e-07
0.00840254
1.41558e-06
0.00840456
3.50114e-06
0.00841452
7.68023e-06
0.00842528
1.99326e-05
0.00849028
4.30003e-05
0.00857391
0.000123657
0.000307768
0.00905362
0.00840003
3.00425e-14
0.00840003
2.36489e-13
0.00840003
7.37336e-13
0.00840003
2.17327e-12
0.00840003
5.1747e-12
0.00840003
1.32147e-11
0.00840003
2.97049e-11
0.00840003
7.32369e-11
0.00840003
1.6214e-10
0.00840003
3.95723e-10
0.00840003
8.71708e-10
0.00840003
2.11953e-09
0.00840004
4.65679e-09
0.00840005
1.12992e-08
0.00840007
2.47686e-08
0.00840013
6.00033e-08
0.00840025
1.31155e-07
0.00840056
3.17484e-07
0.00840126
6.90849e-07
0.00840297
1.67985e-06
0.0084069
3.62678e-06
0.00841718
9.08142e-06
0.00844022
1.9289e-05
0.00850847
5.24073e-05
0.000118873
0.00869329
0.00840003
6.73203e-15
0.00840003
1.59083e-13
0.00840003
2.94452e-13
0.00840003
1.37611e-12
0.00840003
2.11712e-12
0.00840003
8.2524e-12
0.00840003
1.20272e-11
0.00840003
4.54922e-11
0.00840003
6.41442e-11
0.00840003
2.45131e-10
0.00840003
3.34994e-10
0.00840003
1.31133e-09
0.00840003
1.73247e-09
0.00840004
6.99621e-09
0.00840005
8.89381e-09
0.00840007
3.73221e-08
0.00840015
4.5254e-08
0.00840025
1.99749e-07
0.00840069
2.26638e-07
0.00840118
1.0821e-06
0.00840362
1.06092e-06
0.00840583
6.25771e-06
0.00842051
3.84319e-06
0.00842939
4.01991e-05
1.39139e-05
0.00853013
0.00840003
7.81623e-15
0.00840003
5.71913e-14
0.00840003
1.92202e-13
0.00840003
5.30497e-13
0.00840003
1.33091e-12
0.00840003
3.18827e-12
0.00840003
7.43985e-12
0.00840003
1.72796e-11
0.00840003
3.91772e-11
0.00840003
9.07479e-11
0.00840003
2.01876e-10
0.00840003
4.70882e-10
0.00840003
1.02863e-09
0.00840004
2.42857e-09
0.00840004
5.19825e-09
0.00840006
1.24829e-08
0.00840007
2.60823e-08
0.0084002
6.41557e-08
0.00840026
1.30587e-07
0.00840097
3.30783e-07
0.00840115
6.62962e-07
0.00840559
1.75721e-06
0.00840462
3.2245e-06
0.00843352
1.03885e-05
1.38243e-05
0.00842782
0.00840003
6.58474e-15
0.00840003
2.85309e-14
0.00840003
1.14137e-13
0.00840003
2.72593e-13
0.00840003
7.68909e-13
0.00840003
1.62938e-12
0.00840003
4.27437e-12
0.00840003
8.64738e-12
0.00840003
2.2508e-11
0.00840003
4.39943e-11
0.00840003
1.16326e-10
0.00840003
2.18971e-10
0.00840003
5.96481e-10
0.00840003
1.07125e-09
0.00840003
3.04769e-09
0.00840004
5.14155e-09
0.00840004
1.55609e-08
0.00840007
2.39387e-08
0.00840009
7.91851e-08
0.00840027
1.05816e-07
0.00840033
3.94021e-07
0.00840148
3.33913e-07
0.00840099
2.25107e-06
0.00841106
-6.4341e-07
1.51609e-05
0.00840288
0.00840003
1.05912e-14
0.00840003
-8.23178e-15
0.00840003
1.11855e-13
0.00840003
-1.55933e-14
0.00840003
7.21674e-13
0.00840003
-1.12347e-13
0.00840003
4.03247e-12
0.00840003
-1.2099e-12
0.00840003
2.16485e-11
0.00840003
-1.2899e-11
0.00840003
1.14407e-10
0.00840003
-1.04704e-10
0.00840003
5.99075e-10
0.00840003
-7.63637e-10
0.00840003
3.12241e-09
0.00840004
-5.2867e-09
0.00840003
1.63192e-08
0.00840009
-3.58928e-08
0.00840005
8.73286e-08
0.00840036
-2.47388e-07
0.00840001
5.49344e-07
0.00840231
-2.01049e-06
0.00839808
5.06864e-06
0.00841432
-1.75128e-05
4.22905e-05
0.00838122
0.00840003
2.42181e-15
0.00840003
7.31836e-19
0.00840003
2.84994e-14
0.00840003
1.82418e-14
0.00840003
1.87696e-13
0.00840003
9.42049e-14
0.00840003
1.03714e-12
0.00840003
2.11942e-13
0.00840003
5.43723e-12
0.00840003
-4.90353e-13
0.00840003
2.79986e-11
0.00840003
-1.25088e-11
0.00840003
1.42764e-10
0.00840003
-1.1604e-10
0.00840003
7.20246e-10
0.00840002
-9.02399e-10
0.00840003
3.60422e-09
0.00839999
-6.64469e-09
0.00840004
1.83274e-08
0.00839976
-4.81534e-08
0.00840011
1.11296e-07
0.00839797
-3.85858e-07
0.00840172
9.61269e-07
0.00838423
-3.1254e-06
8.44392e-06
0.00841527
0.00840003
-5.87665e-16
0.00840003
1.23577e-14
0.00840003
1.64334e-14
0.00840003
1.01958e-13
0.00840003
1.25266e-13
0.00840003
6.13973e-13
0.00840003
7.32254e-13
0.00840003
3.50073e-12
0.00840003
4.08631e-12
0.00840003
1.98047e-11
0.00840003
2.28699e-11
0.00840003
1.12606e-10
0.00840003
1.30491e-10
0.00840003
6.47032e-10
0.00840003
7.61154e-10
0.00840002
3.76985e-09
0.00840002
4.48869e-09
0.00839997
2.22624e-08
0.00839995
2.42976e-08
0.00839968
1.37395e-07
0.00839963
7.07185e-08
0.0083979
8.77139e-07
0.00839858
-2.73259e-07
0.00838728
5.34417e-06
-4.14393e-06
0.0083968
0.00840003
-4.66847e-15
0.00840003
2.32204e-14
0.00840003
-2.01331e-14
0.00840003
1.72625e-13
0.00840003
-1.01102e-13
0.00840003
1.06355e-12
0.00840003
-5.07415e-13
0.00840003
6.37433e-12
0.00840003
-2.46621e-12
0.00840003
3.81614e-11
0.00840003
-1.16513e-11
0.00840003
2.28977e-10
0.00840003
-4.97942e-11
0.00840003
1.37933e-09
0.00840003
-1.78611e-10
0.00840002
8.37112e-09
0.00840002
-4.59372e-10
0.00839998
5.12799e-08
0.00839999
-3.9388e-09
0.00839972
3.33803e-07
0.00839984
-1.35076e-07
0.00839794
2.33613e-06
0.00839998
-2.63317e-06
0.00838703
1.56478e-05
-2.26077e-05
0.00840314
0.00840003
4.71338e-15
0.00840003
-2.24141e-14
0.00840003
2.3095e-14
0.00840003
-1.65199e-13
0.00840003
1.24196e-13
0.00840003
-1.01513e-12
0.00840003
6.52345e-13
0.00840003
-6.07971e-12
0.00840003
3.30796e-12
0.00840003
-3.63176e-11
0.00840003
1.59554e-11
0.00840003
-2.16966e-10
0.00840003
7.22542e-11
0.00840003
-1.29956e-09
0.00840003
3.28067e-10
0.00840005
-7.83972e-09
0.00840004
1.45071e-09
0.00840013
-4.77375e-08
0.00840009
1.05253e-08
0.0084007
-3.09783e-07
0.0084002
2.02268e-07
0.00840462
-2.16378e-06
0.00839785
3.03792e-06
0.00842717
-1.42583e-05
2.61284e-05
0.00837349
0.00840003
8.54921e-16
0.00840003
-1.0675e-14
0.00840003
-9.05396e-15
0.00840003
-8.67467e-14
0.00840003
-7.78812e-14
0.00840003
-5.28059e-13
0.00840003
-4.86129e-13
0.00840003
-3.07205e-12
0.00840003
-2.89808e-12
0.00840003
-1.77299e-11
0.00840003
-1.71307e-11
0.00840003
-1.02226e-10
0.00840003
-1.01318e-10
0.00840003
-5.91478e-10
0.00840003
-6.02185e-10
0.00840002
-3.4516e-09
0.00840002
-3.56897e-09
0.00839998
-2.03343e-08
0.0084
-1.85219e-08
0.00839974
-1.24754e-07
0.0083999
-2.98604e-08
0.00839811
-7.74118e-07
0.00840049
4.43712e-07
0.00838815
-4.35728e-06
5.6122e-06
0.00840668
0.00840003
0.00840003
0.00840003
0.00840003
0.00840003
0.00840003
0.00840003
0.00840003
0.00840003
0.00840003
0.00840003
0.00840003
0.00840003
0.00840003
0.00840003
0.00840002
0.00840001
0.00839998
0.00839995
0.00839975
0.00839964
0.00839848
0.00839846
0.00839185
0.008395
0.00423514
0.00422938
0.00217229
0.00205209
0.000824
0.00130552
-0.000810402
0.00161966
-0.00153759
0.000725302
-0.00209004
0.000545837
-0.00241894
0.000322904
-0.00255563
0.000131479
-0.00267485
0.000117515
-0.00283622
0.000161963
-0.00299068
0.000156037
-0.00311398
0.000125576
-0.00320967
9.87139e-05
-0.00330017
9.51341e-05
-0.00338636
9.18819e-05
-0.00346624
8.56947e-05
-0.0035362
7.53248e-05
-0.00358973
5.81027e-05
-0.00362165
3.58805e-05
-0.00363947
2.11745e-05
-0.00367369
3.52806e-05
-0.00371228
3.88078e-05
-0.00374229
2.98305e-05
-0.00376242
1.5736e-05
-0.00376533
-4.72218e-06
-0.00373704
-3.71527e-05
-0.00366921
-8.00045e-05
-0.00355882
-0.000121222
-0.00341748
-0.000152977
-0.00324991
-0.000177706
-0.00306457
-0.000196039
-0.00286026
-0.000212685
-0.00264486
-0.000224001
-0.00242151
-0.000230829
-0.00219254
-0.000233741
-0.0019609
-0.000236523
-0.00172505
-0.000239546
-0.00148402
-0.000244156
-0.00123753
-0.00024884
-0.000989659
-0.000249362
-0.000744605
-0.0002459
-0.0005002
-0.000244679
-0.000255934
-0.000243691
-5.07736e-08
-0.000253682
0.000241226
-0.000240728
0.000470017
-0.000226987
0.000690965
-0.000218693
0.000903618
-0.000210151
0.0011084
-0.000202148
0.0013049
-0.000193488
0.00149293
-0.000184992
0.00167483
-0.000178626
0.00185419
-0.00017609