/*--------------------------------*- C++ -*----------------------------------*\
| =========                 |                                                 |
| \\      /  F ield         | OpenFOAM: The Open Source CFD Toolbox           |
|  \\    /   O peration     | Version:  2112                                  |
|   \\  /    A nd           | Website:  www.openfoam.com                      |
|    \\/     M anipulation  |                                                 |
\*---------------------------------------------------------------------------*/
FoamFile
{
    version     2.0;
    format      ascii;
    arch        "LSB;label=32;scalar=64";
    class       volScalarField;
    location    "6.5";
    object      T;
}
// * * * * * * * * * * * * * * * * * * * * * * * * * * * * * * * * * * * * * //

dimensions      [0 0 0 1 0 0 0];

internalField   nonuniform List<scalar> 
5250
(
1.00001
1.00002
1.00007
1.00013
1.00042
1.00078
1.00227
1.00481
1.01225
1.03288
1.07307
1.22957
1.53364
2.34691
2.68572
2.73468
2.73288
2.73456
2.74805
2.76085
2.77327
2.78098
2.78871
2.79302
2.79324
1.00001
1.00002
1.00007
1.00013
1.00041
1.00076
1.00223
1.00474
1.01204
1.03237
1.07182
1.22613
1.52222
2.33453
2.6816
2.73475
2.73277
2.73402
2.74735
2.75997
2.77201
2.77946
2.78717
2.79052
2.79042
1.00001
1.00002
1.00007
1.00012
1.0004
1.00074
1.00216
1.00459
1.01168
1.03135
1.06967
1.21874
1.50444
2.30893
2.67121
2.73391
2.73154
2.73209
2.74542
2.75759
2.76989
2.77694
2.78483
2.78824
2.78726
1.00001
1.00002
1.00007
1.00012
1.00038
1.00071
1.00207
1.00437
1.01116
1.02981
1.06649
1.20743
1.4776
2.26648
2.65417
2.73195
2.72856
2.7283
2.74162
2.7528
2.76482
2.77143
2.77799
2.78318
2.78314
1.00001
1.00002
1.00006
1.00011
1.00036
1.00066
1.00194
1.00409
1.01046
1.02778
1.06229
1.19239
1.44193
2.20267
2.63003
2.72881
2.72451
2.72179
2.73517
2.74663
2.7592
2.7663
2.77292
2.77502
2.77392
1.00001
1.00002
1.00006
1.0001
1.00033
1.00061
1.00183
1.00373
1.0098
1.02501
1.05714
1.17338
1.39778
2.11253
2.59632
2.72329
2.71959
2.71246
2.72584
2.73515
2.7465
2.75392
2.76052
2.76642
2.76534
1.00001
1.00001
1.00005
1.00009
1.00031
1.00055
1.0017
1.00334
1.00905
1.02186
1.05132
1.15189
1.3478
1.99894
2.55082
2.71234
2.70911
2.70167
2.7165
2.72568
2.73661
2.74369
2.74892
2.74878
2.7466
1.00001
1.00001
1.00005
1.00009
1.00027
1.0005
1.00155
1.00293
1.00826
1.0186
1.04543
1.12946
1.29578
1.84103
2.49857
2.68679
2.68387
2.67753
2.69557
2.7057
2.71602
2.72175
2.7294
2.73127
2.72486
1.00001
1.00001
1.00004
1.00008
1.00024
1.00044
1.00139
1.00258
1.00754
1.01608
1.04101
1.11118
1.25876
1.70156
2.5094
2.6739
2.66272
2.6604
2.67622
2.68842
2.69929
2.7005
2.70051
2.6956
2.676
1
1.00001
1.00004
1.00007
1.00021
1.00039
1.00121
1.00229
1.00666
1.01417
1.03664
1.09762
1.22916
1.643
2.49426
2.64651
2.64235
2.64104
2.64397
2.65903
2.67198
2.67247
2.66771
2.65059
2.59924
1
1.00001
1.00002
1.00007
1.00013
1.00037
1.0008
1.00198
1.00519
1.01168
1.03402
1.07136
1.23286
1.54504
2.33576
2.62759
2.64472
2.6367
2.62891
2.63308
2.64133
2.6385
2.62062
2.57301
2.39903
1
1.00001
1.00003
1.00005
1.00016
1.00029
1.00089
1.00175
1.00473
1.01109
1.02658
1.07615
1.16165
1.52471
2.26669
2.55837
2.63652
2.62753
2.61571
2.60881
2.60942
2.60253
2.57737
2.51957
2.33799
1
1.00001
1.00002
1.00004
1.00014
1.00025
1.00081
1.00148
1.00444
1.00905
1.02388
1.06215
1.14078
1.42226
2.11952
2.5
2.62576
2.61531
2.6059
2.5906
2.57603
2.56061
2.52893
2.47876
2.33915
1
1.00001
1.00002
1.00004
1.00012
1.00022
1.00069
1.00126
1.00391
1.00743
1.02123
1.04776
1.11881
1.32164
1.92094
2.40285
2.59559
2.58728
2.58546
2.57666
2.55782
2.53059
2.4887
2.44719
2.34266
1
1
1.00002
1.00003
1.0001
1.00018
1.00057
1.00103
1.00321
1.00604
1.01756
1.03766
1.09794
1.24728
1.72901
2.33017
2.5596
2.55708
2.55258
2.54724
2.53429
2.51116
2.45725
2.41818
2.33768
1
1
1.00001
1.00002
1.00008
1.00014
1.00045
1.00081
1.00246
1.00484
1.01301
1.03161
1.07337
1.21511
1.51814
2.23548
2.52137
2.54015
2.52886
2.51944
2.5072
2.48988
2.44715
2.40041
2.33149
1
1
1.00001
1.00002
1.00006
1.00011
1.00035
1.00064
1.00195
1.00383
1.01031
1.02488
1.05809
1.17192
1.39324
2.03031
2.44434
2.52709
2.51257
2.50245
2.47829
2.46077
2.42461
2.38874
2.32984
1
1
1.00001
1.00002
1.00005
1.00009
1.00028
1.0005
1.00156
1.00295
1.00828
1.0186
1.04524
1.12829
1.29101
1.85181
2.29284
2.4921
2.4936
2.48712
2.4673
2.44236
2.40503
2.36361
2.32265
1
1
1.00001
1.00001
1.00004
1.00007
1.00021
1.00038
1.00119
1.00221
1.00653
1.01343
1.03511
1.08999
1.21191
1.57195
2.25721
2.41786
2.44347
2.44643
2.43931
2.42495
2.39584
2.35382
2.30745
1
1
1
1.00001
1.00002
1.00006
1.00012
1.00035
1.00067
1.00186
1.00411
1.01006
1.02706
1.05964
1.18113
1.40844
2.06569
2.38618
2.42994
2.42114
2.41011
2.38913
2.37614
2.34696
2.3043
1
1
1
1.00001
1.00002
1.00005
1.00009
1.00028
1.00051
1.00158
1.00298
1.00848
1.01859
1.04601
1.12573
1.29585
1.75271
2.27241
2.41175
2.40672
2.39079
2.36883
2.33878
2.32285
2.29591
1
1
1
1
1.00001
1.00003
1.00008
1.00016
1.00048
1.00091
1.00268
1.00532
1.01474
1.0325
1.08526
1.20275
1.63068
2.0662
2.34441
2.38418
2.37911
2.36248
2.3297
2.29916
2.27268
1
1
1
1
1.00001
1.00002
1.00005
1.00014
1.00026
1.00077
1.00152
1.00406
1.00941
1.02238
1.06257
1.13266
1.4141
1.99486
2.24616
2.32883
2.34398
2.33951
2.32315
2.29298
2.26101
1
1
1
1
1.00001
1.00001
1.00004
1.00008
1.00024
1.00044
1.00132
1.00258
1.00692
1.01604
1.03823
1.10633
1.23647
1.6723
2.13335
2.30386
2.31248
2.30782
2.2979
2.27794
2.2523
1
1
1
1
1.00001
1.00001
1.00003
1.00006
1.00017
1.00031
1.00098
1.00177
1.00533
1.01052
1.02798
1.06995
1.15717
1.45011
2.01816
2.24754
2.29412
2.29178
2.27896
2.25865
2.23438
1
1
1
1
1
1.00001
1.00002
1.00004
1.00012
1.00022
1.00068
1.00124
1.00376
1.0072
1.02013
1.04529
1.11063
1.29391
1.80919
2.12523
2.25427
2.26577
2.25983
2.24722
2.22279
1
1
1
1
1
1.00001
1.00001
1.00003
1.00006
1.00019
1.00035
1.00105
1.00196
1.00565
1.01166
1.03001
1.07549
1.1742
1.46671
2.01481
2.19936
2.2303
2.23248
2.22348
2.20793
1
1
1
1
1
1
1.00001
1.00002
1.00004
1.00013
1.00024
1.00073
1.00132
1.00401
1.00762
1.02107
1.0483
1.11313
1.31304
1.79405
2.1077
2.20989
2.20934
2.20174
2.18708
1
1
1
1
1
1
1
1.00002
1.00003
1.00009
1.00016
1.00047
1.00087
1.00261
1.00496
1.01415
1.02904
1.07904
1.17622
1.54995
1.91366
2.15477
2.1903
2.18957
2.17769
1
1
1
1
1
1
1
1.00001
1.00002
1.00004
1.00013
1.00023
1.0007
1.00132
1.00373
1.00777
1.01964
1.0503
1.11126
1.3162
1.77808
2.05386
2.15082
2.16127
2.15709
1
1
1
1
1
1
1
1
1.00002
1.00003
1.00008
1.00015
1.00047
1.00085
1.00257
1.00482
1.01383
1.02811
1.07552
1.16994
1.50528
1.90075
2.10783
2.13713
2.13697
1
1
1
1
1
1
1
1
1.00001
1.00002
1.00005
1.0001
1.00029
1.00054
1.00161
1.00302
1.00854
1.01806
1.04557
1.1121
1.27955
1.64043
2.00726
2.11344
2.11926
1
1
1
1
1
1
1
1
1
1.00001
1.00003
1.00008
1.00014
1.00042
1.0008
1.0023
1.00452
1.0124
1.02616
1.06976
1.15438
1.47374
1.81047
2.04788
2.09012
1
1
1
1
1
1
1
1
1
1.00001
1.00002
1.00004
1.00011
1.00021
1.00062
1.00115
1.00335
1.00653
1.01754
1.04005
1.09375
1.24672
1.63808
1.92484
2.05601
1
1
1
1
1
1
1
1
1
1
1.00001
1.00002
1.00007
1.00013
1.00038
1.0007
1.00208
1.00391
1.01111
1.02252
1.05959
1.13414
1.37628
1.75498
1.99081
1
1
1
1
1
1
1
1
1
1
1.00001
1.00001
1.00004
1.00007
1.00022
1.00041
1.00122
1.00225
1.0065
1.013
1.03326
1.08189
1.18304
1.4794
1.84034
1
1
1
1
1
1
1
1
1
1
1
1.00001
1.00002
1.00006
1.00011
1.00031
1.00058
1.00169
1.00327
1.00881
1.01952
1.04571
1.1176
1.27831
1.66856
1
1
1
1
1
1
1
1
1
1
1
1.00001
1.00001
1.00003
1.00006
1.00019
1.00034
1.00103
1.00189
1.00549
1.01077
1.02851
1.06461
1.15736
1.38302
1
1
1
1
1
1
1
1
1
1
1
1
1.00001
1.00002
1.00005
1.00009
1.00026
1.00049
1.00143
1.0027
1.00758
1.01566
1.03929
1.09707
1.22429
1
1
1
1
1
1
1
1
1
1
1
1
1.00001
1.00001
1.00003
1.00006
1.00018
1.00032
1.00098
1.00178
1.00532
1.01011
1.02787
1.06163
1.15051
1
1
1
1
1
1
1
1
1
1
1
1
1
1.00001
1.00002
1.00004
1.00013
1.00024
1.00075
1.00138
1.00415
1.00804
1.02231
1.05052
1.12467
1
1
1
1
1
1
1
1
1
1
1
1
1
1.00001
1.00002
1.00005
1.00009
1.00027
1.0005
1.00151
1.00292
1.00797
1.01844
1.04426
1.12644
1
1
1
1
1
1
1
1
1
1
1
1
1
1.00001
1.00001
1.00005
1.00008
1.00026
1.00047
1.00147
1.00274
1.00796
1.01722
1.04346
1.11994
1
1
1
1
1
1
1
1
1
1
1
1
1
1.00001
1.00001
1.00004
1.00008
1.00024
1.00045
1.00136
1.00267
1.00727
1.01721
1.04129
1.12004
1
1
1
1
1
1
1
1
1
1
1
1
1
1.00001
1.00002
1.00003
1.0001
1.00019
1.0006
1.00111
1.0034
1.00671
1.01858
1.04448
1.10724
1
1
1
1
1
1
1
1
1
1
1
1
1
1.00001
1.00002
1.00003
1.0001
1.00019
1.0006
1.0011
1.00344
1.00657
1.01897
1.04274
1.10761
1
1
1
1
1
1
1
1
1
1
1
1
1
1.00001
1.00002
1.00003
1.0001
1.00019
1.00059
1.00109
1.00334
1.0066
1.01833
1.04353
1.10538
1
1
1
1
1
1
1
1
1
1
1
1
1
1.00001
1.00001
1.00004
1.00007
1.00022
1.00042
1.00118
1.00262
1.00649
1.01743
1.03937
1.11778
1
1
1
1
1
1
1
1
1
1
1
1
1
1.00001
1.00002
1.00003
1.0001
1.00019
1.00058
1.00108
1.00332
1.00655
1.01818
1.04311
1.10425
1
1
1
1
1
1
1
1
1
1
1
1
1
1.00001
1.00002
1.00003
1.0001
1.00019
1.0006
1.00109
1.0034
1.00649
1.01874
1.04198
1.10572
2.42207
2.53908
2.96709
2.96875
2.98538
2.98029
2.94454
2.93304
2.92144
2.91051
2.89319
2.87993
2.86513
2.85236
2.83605
2.82108
2.80404
2.79038
2.77406
2.75829
2.74516
2.73779
2.7355
2.74031
2.74908
2.77301
2.80193
2.83387
2.86805
2.89547
2.92389
2.94059
2.96269
2.97257
2.98589
2.9955
3.0008
3.0065
3.00853
3.00969
3.00875
3.006
3.00099
2.99854
2.99141
2.98583
2.97749
2.97123
2.96337
2.95682
2.94747
2.94049
2.93036
2.92296
2.91312
2.90481
2.89529
2.88668
2.87666
2.8678
2.85815
2.84947
2.83983
2.83128
2.8216
2.81298
2.80313
2.79441
2.78457
2.77577
2.7659
2.75698
2.74721
2.7382
2.72852
2.71931
2.7097
2.70034
2.69079
2.68136
2.67176
2.66234
2.65267
2.64333
2.63366
2.62436
2.61474
2.60548
2.59596
2.58683
2.57747
2.56859
2.55946
2.55109
2.54243
2.53505
2.52746
2.52199
2.51689
2.51419
2.29959
2.37371
2.63398
2.86204
2.93852
3.0125
3.06509
3.07463
3.05732
3.07733
3.08196
3.08178
3.0813
3.08063
3.07585
3.07206
3.06542
3.05729
3.0488
3.03562
3.02617
3.01921
3.0187
3.02371
3.03234
3.05254
3.06991
3.09218
3.10544
3.11781
3.12526
3.12888
3.1295
3.12666
3.11925
3.11256
3.10135
3.09546
3.07985
3.07113
3.05529
3.04262
3.02767
3.01525
3.0013
2.98918
2.97429
2.95944
2.94329
2.92678
2.91045
2.89427
2.87766
2.8613
2.8446
2.82959
2.81421
2.79996
2.78497
2.77103
2.75631
2.74279
2.7287
2.71576
2.70241
2.68987
2.67694
2.66455
2.65187
2.63961
2.62731
2.61533
2.60356
2.59191
2.58062
2.56925
2.55831
2.54718
2.53647
2.52564
2.51513
2.50466
2.49439
2.48429
2.47433
2.46457
2.45496
2.44556
2.43624
2.42728
2.41821
2.40983
2.40101
2.39343
2.38501
2.37858
2.37108
2.3665
2.36149
2.36
2.28331
2.26023
2.34943
2.49655
2.65072
2.75822
2.87802
2.97083
3.00931
3.0627
3.08421
3.09884
3.12348
3.14327
3.18299
3.1956
3.19877
3.19811
3.19018
3.18215
3.17714
3.17109
3.17449
3.17648
3.18505
3.19555
3.20324
3.20949
3.2104
3.19693
3.17901
3.16341
3.14333
3.12471
3.10049
3.07909
3.05688
3.0357
3.01391
2.99346
2.97253
2.95246
2.93239
2.91305
2.89388
2.87569
2.85705
2.83968
2.82204
2.8054
2.78937
2.77354
2.75876
2.74321
2.7287
2.71396
2.70021
2.68661
2.67392
2.66131
2.64935
2.63721
2.62575
2.61411
2.60326
2.59215
2.58166
2.5707
2.5602
2.54909
2.53847
2.52729
2.5166
2.50547
2.49463
2.48359
2.47249
2.46161
2.45021
2.43961
2.42798
2.41776
2.406
2.39622
2.38446
2.37512
2.36348
2.35461
2.34318
2.33483
2.32376
2.31599
2.30546
2.29839
2.28857
2.28242
2.27402
2.26962
2.26419
2.26278
2.28222
2.23021
2.24568
2.3044
2.37923
2.47271
2.55748
2.67467
2.78436
2.87003
2.94951
2.99594
3.04032
3.07613
3.12616
3.17171
3.19222
3.1966
3.20211
3.21234
3.21643
3.22216
3.23684
3.24382
3.24591
3.24045
3.22232
3.19922
3.15635
3.11924
3.0827
3.04626
3.01386
2.9816
2.95003
2.92121
2.89229
2.86619
2.83925
2.8154
2.79029
2.76874
2.74588
2.72631
2.70594
2.68845
2.66969
2.65398
2.63656
2.62224
2.60685
2.59456
2.58065
2.5685
2.55484
2.54342
2.53122
2.52069
2.50935
2.49965
2.48906
2.48004
2.46998
2.46142
2.45181
2.44377
2.43462
2.42708
2.41823
2.41108
2.4024
2.39557
2.38692
2.38033
2.37159
2.36515
2.35626
2.3499
2.34092
2.33459
2.32564
2.31925
2.31042
2.3038
2.29515
2.28813
2.27959
2.27204
2.26357
2.25551
2.24713
2.23865
2.2303
2.22158
2.21366
2.20522
2.19829
2.19091
2.18631
2.18155
2.27663
2.23128
2.20106
2.22139
2.25049
2.29521
2.34915
2.41263
2.4897
2.56909
2.65116
2.73997
2.82056
2.89086
2.9483
2.99874
3.05638
3.09422
3.11859
3.14248
3.16235
3.17658
3.18422
3.17848
3.16222
3.13402
3.08921
3.04764
2.99773
2.9518
2.90605
2.86373
2.82678
2.7933
2.762
2.73315
2.70677
2.6825
2.66081
2.64076
2.62251
2.60561
2.59045
2.57617
2.56328
2.55089
2.5396
2.52875
2.51843
2.50851
2.49918
2.49062
2.4821
2.47362
2.46475
2.45627
2.448
2.44008
2.43199
2.42426
2.4161
2.40835
2.39998
2.3922
2.38373
2.37591
2.36729
2.35928
2.35046
2.34222
2.33337
2.32511
2.31643
2.30824
2.2998
2.29168
2.28345
2.27531
2.26722
2.25899
2.251
2.24268
2.23478
2.22647
2.2187
2.2106
2.20306
2.19536
2.18807
2.18084
2.17368
2.16704
2.16009
2.15412
2.14741
2.14224
2.13611
2.13225
2.12788
2.12682
2.26609
2.22233
2.19563
2.17989
2.19261
2.20811
2.23464
2.26599
2.30696
2.35322
2.40745
2.46496
2.53113
2.59561
2.66241
2.72742
2.78721
2.85384
2.90878
2.96227
2.9977
3.02325
3.03805
3.03066
3.00332
2.9551
2.89846
2.83702
2.77408
2.71697
2.67238
2.63346
2.6032
2.57648
2.55345
2.53371
2.51697
2.50287
2.49125
2.48136
2.47268
2.46533
2.45839
2.45226
2.44621
2.44071
2.43517
2.43003
2.42461
2.41952
2.41414
2.40943
2.40436
2.39936
2.39319
2.38725
2.38081
2.375
2.36856
2.36259
2.35596
2.34978
2.34299
2.33667
2.32976
2.32338
2.31644
2.3101
2.30317
2.29686
2.28982
2.2834
2.27602
2.26941
2.26158
2.25484
2.24658
2.23979
2.23121
2.22438
2.21561
2.20867
2.19977
2.19263
2.18363
2.17607
2.16697
2.15899
2.14995
2.14173
2.13287
2.12456
2.11599
2.1078
2.09974
2.09199
2.08492
2.07824
2.07334
2.06937
2.26687
2.21589
2.18281
2.16473
2.15561
2.16059
2.17028
2.18645
2.20539
2.23051
2.25875
2.29254
2.32975
2.37293
2.41737
2.46769
2.51719
2.57089
2.62737
2.67737
2.72942
2.76136
2.78552
2.78187
2.75352
2.69953
2.63499
2.56837
2.51276
2.46651
2.43527
2.41786
2.40812
2.40365
2.39804
2.39515
2.39313
2.39199
2.39162
2.39087
2.39008
2.38926
2.38836
2.38733
2.38589
2.38384
2.38138
2.37819
2.37467
2.37061
2.36637
2.3621
2.35778
2.35311
2.34744
2.34132
2.33454
2.32823
2.32124
2.31491
2.30771
2.30129
2.29395
2.28748
2.28002
2.27343
2.2658
2.25905
2.25126
2.24442
2.23661
2.22978
2.22205
2.21525
2.20768
2.20086
2.19351
2.1866
2.17952
2.17243
2.1657
2.15838
2.152
2.14441
2.13824
2.1305
2.12452
2.11675
2.11082
2.10311
2.09717
2.0896
2.08361
2.07625
2.07028
2.06324
2.0576
2.05136
2.04706
2.04339
2.2687
2.21717
2.17756
2.15148
2.1364
2.12888
2.12922
2.13432
2.14403
2.15515
2.17
2.18803
2.20802
2.2329
2.25914
2.28969
2.32483
2.36274
2.40722
2.45041
2.49468
2.53129
2.56194
2.56238
2.53801
2.49267
2.43615
2.385
2.34388
2.31412
2.29601
2.2867
2.29106
2.29945
2.30885
2.31657
2.32244
2.3256
2.3292
2.32993
2.33089
2.33086
2.33045
2.32952
2.32752
2.32559
2.32265
2.31992
2.31605
2.31237
2.30764
2.30333
2.29879
2.29465
2.28967
2.28449
2.27853
2.27294
2.26681
2.26111
2.25483
2.24894
2.24251
2.23649
2.23005
2.22396
2.21754
2.2113
2.20485
2.1984
2.1919
2.18523
2.17872
2.17184
2.16533
2.15824
2.1517
2.14446
2.1378
2.13045
2.12355
2.11612
2.10896
2.10158
2.09428
2.08701
2.07964
2.07248
2.06516
2.05816
2.05101
2.04428
2.03736
2.03099
2.0244
2.01851
2.01247
2.00747
2.00284
2.00051
2.26429
2.21839
2.17732
2.14597
2.12473
2.11029
2.10386
2.10007
2.10185
2.10694
2.11182
2.12203
2.13054
2.14516
2.16012
2.17831
2.20309
2.23063
2.26677
2.3015
2.3423
2.38539
2.41811
2.42336
2.39936
2.36231
2.31545
2.27463
2.23732
2.21509
2.19649
2.18942
2.18928
2.19734
2.21104
2.22419
2.23514
2.24406
2.24904
2.25335
2.2557
2.25769
2.25869
2.25867
2.25839
2.25773
2.25667
2.25549
2.25365
2.25182
2.24903
2.24649
2.24337
2.24079
2.23722
2.23361
2.22882
2.22432
2.21912
2.21436
2.20897
2.20398
2.19835
2.19305
2.18717
2.18158
2.17553
2.16968
2.1635
2.15741
2.1511
2.14483
2.13837
2.13197
2.12531
2.11885
2.11202
2.10561
2.0987
2.09236
2.08546
2.07923
2.0724
2.06608
2.05929
2.05279
2.04603
2.03937
2.03262
2.0259
2.01914
2.0125
2.00572
1.99926
1.99258
1.98639
1.98011
1.97456
1.96965
1.96662
2.25904
2.21744
2.17818
2.14352
2.11869
2.0989
2.08698
2.07841
2.07439
2.07245
2.07337
2.07645
2.08085
2.08664
2.09676
2.10842
2.12771
2.15252
2.17973
2.21647
2.2589
2.31293
2.34205
2.34269
2.32227
2.28714
2.25108
2.20685
2.17385
2.1481
2.13623
2.12524
2.1226
2.12313
2.1315
2.14472
2.16201
2.17853
2.19207
2.20235
2.20943
2.21432
2.21789
2.21976
2.222
2.22261
2.2239
2.22382
2.22351
2.2228
2.22114
2.21957
2.21688
2.21503
2.21211
2.20947
2.20533
2.20146
2.19671
2.19238
2.18738
2.18272
2.17749
2.17246
2.16693
2.16154
2.15572
2.15007
2.14401
2.13818
2.1319
2.12593
2.11945
2.11333
2.10669
2.10042
2.09362
2.08713
2.08028
2.0736
2.06676
2.05989
2.05312
2.04613
2.03946
2.03243
2.02582
2.01881
2.01223
2.00527
1.99874
1.99183
1.98543
1.9786
1.97244
1.96577
1.96
1.95388
1.9492
1.94553
2.2564
2.21556
2.17853
2.14354
2.11567
2.09226
2.07624
2.06305
2.05536
2.04912
2.0463
2.04473
2.04558
2.04897
2.05504
2.0683
2.08297
2.10921
2.13403
2.17697
2.23604
2.28904
2.31137
2.30315
2.28142
2.25207
2.2122
2.17251
2.13771
2.11352
2.09452
2.08387
2.0755
2.07324
2.07384
2.07924
2.09169
2.10856
2.12674
2.14232
2.1549
2.16398
2.17008
2.1744
2.17716
2.17929
2.18066
2.18128
2.18149
2.18101
2.17992
2.17855
2.1764
2.17448
2.17212
2.16985
2.16662
2.16319
2.15901
2.15497
2.15039
2.14595
2.1411
2.13627
2.1311
2.12585
2.12037
2.11478
2.10908
2.10323
2.09735
2.09129
2.08528
2.07907
2.07297
2.06663
2.06055
2.0542
2.04816
2.04177
2.03572
2.02927
2.02315
2.01665
2.01045
2.00392
1.99766
1.99112
1.98483
1.9783
1.97197
1.96551
1.95915
1.95286
1.94655
1.94058
1.93454
1.92926
1.9243
1.92158
2.24703
2.21177
2.17744
2.14376
2.11515
2.0897
2.06994
2.0543
2.04167
2.03316
2.02592
2.02177
2.01965
2.02066
2.02733
2.04174
2.05865
2.08334
2.11957
2.17505
2.24628
2.28914
2.29671
2.28387
2.26108
2.2288
2.18885
2.15179
2.12039
2.09371
2.07205
2.0558
2.04512
2.03864
2.03421
2.03434
2.03708
2.04642
2.05965
2.0775
2.09545
2.1111
2.12371
2.13282
2.13915
2.14322
2.14582
2.14752
2.14839
2.14895
2.1488
2.14822
2.14687
2.14558
2.14356
2.14195
2.13944
2.13677
2.13305
2.12936
2.12506
2.12085
2.11611
2.1115
2.10638
2.10143
2.09597
2.09072
2.08499
2.07953
2.07359
2.06797
2.06188
2.0561
2.04989
2.044
2.03775
2.03169
2.02536
2.01913
2.01275
2.00635
1.99991
1.99339
1.98693
1.98036
1.97389
1.96737
1.96088
1.95449
1.94799
1.94174
1.93525
1.92911
1.92273
1.91668
1.91061
1.90493
1.89992
1.89654
2.23045
2.20041
2.17037
2.14076
2.11343
2.08839
2.0668
2.04964
2.03515
2.02358
2.01503
2.00815
2.00449
2.00534
2.01421
2.02788
2.048
2.07903
2.12997
2.20448
2.26887
2.29235
2.28729
2.27114
2.24811
2.2131
2.17568
2.14207
2.11173
2.08481
2.06137
2.04203
2.02674
2.01538
2.0089
2.00443
2.00341
2.00394
2.00909
2.0199
2.03649
2.05529
2.07336
2.08893
2.10054
2.10881
2.11387
2.11719
2.11884
2.1201
2.12057
2.12077
2.12026
2.11957
2.11811
2.11702
2.11524
2.11344
2.11056
2.10738
2.1035
2.09962
2.09526
2.09091
2.08618
2.08146
2.07642
2.07137
2.06604
2.06068
2.05511
2.04948
2.04374
2.03796
2.03222
2.02635
2.02061
2.0146
2.00879
2.00263
1.99675
1.99046
1.9845
1.97811
1.97206
1.9656
1.95948
1.95299
1.94682
1.94035
1.93419
1.92777
1.92166
1.91532
1.90934
1.90318
1.89746
1.89179
1.88694
1.88365
2.22377
2.19351
2.16468
2.13519
2.10859
2.08453
2.06334
2.04382
2.02972
2.01565
2.00694
1.99955
1.99682
2.0014
2.01248
2.02864
2.05279
2.09885
2.17262
2.24921
2.28793
2.29274
2.28357
2.26519
2.23619
2.20174
2.16777
2.13749
2.10887
2.08331
2.05942
2.03897
2.02026
2.0058
1.99376
1.98569
1.98034
1.97752
1.97664
1.97876
1.9865
1.99802
2.01535
2.03345
2.05028
2.06417
2.0745
2.08152
2.08579
2.08837
2.08973
2.09033
2.09037
2.0899
2.08887
2.08767
2.08617
2.08462
2.0823
2.07941
2.07572
2.07189
2.06763
2.06341
2.05876
2.05421
2.04918
2.04432
2.03898
2.03383
2.02828
2.02284
2.01719
2.01159
2.00592
2.00016
1.99444
1.98852
1.9827
1.97662
1.97068
1.96449
1.95843
1.9522
1.94605
1.93985
1.93365
1.92753
1.9213
1.91529
1.90905
1.90315
1.89695
1.89117
1.88509
1.87944
1.87363
1.86839
1.86347
1.86051
2.20997
2.18336
2.15706
2.13088
2.10563
2.08156
2.06141
2.04098
2.02555
2.01187
2.00083
1.99567
1.9953
2.00487
2.01837
2.03987
2.08124
2.14861
2.23319
2.28512
2.29776
2.29267
2.2776
2.25921
2.22621
2.19636
2.165
2.1388
2.11144
2.08761
2.06386
2.04262
2.02292
2.00534
1.98917
1.97556
1.96426
1.95827
1.95309
1.95145
1.95056
1.95407
1.96346
1.97726
1.99516
2.01346
2.02991
2.04313
2.05249
2.05888
2.06257
2.06499
2.06576
2.06646
2.06606
2.06554
2.06452
2.06364
2.06217
2.06043
2.05767
2.05458
2.05088
2.04715
2.04303
2.03889
2.03441
2.02983
2.02498
2.01996
2.01477
2.00943
2.00408
1.99852
1.99306
1.98734
1.98177
1.97592
1.97021
1.9642
1.95831
1.95214
1.94609
1.9398
1.93362
1.92729
1.92105
1.91473
1.90848
1.9022
1.896
1.88975
1.88366
1.87748
1.87156
1.8655
1.85988
1.85422
1.84943
1.846
2.19862
2.1728
2.14735
2.12153
2.09869
2.07554
2.05611
2.03863
2.02182
2.0104
1.99992
1.99818
2.00448
2.01539
2.03641
2.07253
2.13517
2.22028
2.28133
2.30306
2.30052
2.29177
2.2744
2.2494
2.22013
2.19273
2.1658
2.14123
2.11602
2.09302
2.06927
2.04781
2.0264
2.00689
1.98852
1.97229
1.95778
1.94567
1.93694
1.93239
1.92845
1.92812
1.92835
1.93362
1.9447
1.96042
1.97884
1.99686
2.01278
2.02486
2.03359
2.03875
2.04185
2.043
2.04374
2.04332
2.04255
2.04158
2.04053
2.0391
2.03711
2.03431
2.03101
2.02737
2.02346
2.01936
2.01511
2.01065
2.00604
2.00115
1.99622
1.99103
1.98589
1.98046
1.97515
1.96952
1.96405
1.95826
1.95262
1.94668
1.94088
1.93481
1.92886
1.9227
1.91665
1.91045
1.90434
1.89811
1.89201
1.88578
1.87973
1.87351
1.86757
1.86138
1.85562
1.84954
1.84406
1.83837
1.83367
1.83013
2.18937
2.16694
2.14342
2.11813
2.09432
2.0712
2.05062
2.03271
2.01857
2.00674
2.00314
2.0067
2.01749
2.03607
2.06934
2.12783
2.21129
2.27771
2.30592
2.30761
2.30119
2.28734
2.26565
2.24032
2.21549
2.19107
2.16776
2.14407
2.12119
2.09774
2.07555
2.05284
2.0318
2.01028
1.99147
1.97203
1.95666
1.9411
1.93022
1.92055
1.91394
1.91071
1.90715
1.90715
1.90851
1.91566
1.92812
1.9452
1.96379
1.98143
1.99613
2.007
2.01409
2.01832
2.02028
2.02087
2.02037
2.0194
2.01826
2.0171
2.01559
2.01358
2.011
2.00787
2.00445
2.00063
1.99667
1.99237
1.98795
1.98322
1.9785
1.97349
1.96856
1.96334
1.95825
1.95281
1.94754
1.94189
1.93646
1.93064
1.92508
1.91913
1.91348
1.90742
1.90171
1.89559
1.88986
1.88371
1.87799
1.87181
1.86612
1.85992
1.85429
1.84811
1.8426
1.83653
1.83125
1.82558
1.82103
1.81746
2.16735
2.15016
2.13345
2.11306
2.09163
2.06955
2.04943
2.03135
2.01715
2.0099
2.01124
2.02146
2.03971
2.06871
2.12549
2.20605
2.27711
2.30982
2.31417
2.30885
2.29714
2.27764
2.25497
2.23257
2.21219
2.19042
2.1693
2.14615
2.12468
2.10135
2.08019
2.05736
2.03683
2.01515
1.99596
1.97636
1.95976
1.94285
1.92955
1.91584
1.9071
1.89734
1.89251
1.88787
1.88542
1.88534
1.88791
1.89683
1.9105
1.9282
1.94635
1.96292
1.97595
1.98546
1.99103
1.99408
1.99489
1.99451
1.9935
1.99235
1.99114
1.98948
1.98735
1.98458
1.98153
1.97803
1.97435
1.97022
1.96607
1.96157
1.95719
1.95241
1.94784
1.94279
1.93802
1.93274
1.9278
1.92232
1.91722
1.91155
1.90632
1.90052
1.89518
1.88931
1.88391
1.87799
1.87256
1.86664
1.86122
1.85532
1.84992
1.84407
1.83872
1.83293
1.82768
1.82199
1.81696
1.81165
1.80732
1.80399
2.15937
2.1374
2.11857
2.1004
2.08346
2.06584
2.04802
2.03323
2.02131
2.01995
2.0283
2.04487
2.07234
2.12642
2.20402
2.27669
2.312
2.31809
2.31364
2.30277
2.28594
2.26516
2.24592
2.22666
2.20792
2.18826
2.16881
2.14802
2.12783
2.10597
2.0855
2.0632
2.04297
2.02126
2.00226
1.98232
1.96532
1.94731
1.93252
1.916
1.90379
1.88988
1.88165
1.87228
1.86793
1.8623
1.86126
1.86099
1.86519
1.87523
1.89082
1.9084
1.9264
1.94184
1.95361
1.96136
1.96554
1.96709
1.96704
1.96603
1.96499
1.96371
1.96215
1.95988
1.95738
1.95435
1.95115
1.94735
1.94353
1.93923
1.93509
1.93047
1.92609
1.9212
1.9166
1.91146
1.90671
1.90138
1.8965
1.89103
1.88603
1.88044
1.87532
1.86967
1.86447
1.85882
1.85356
1.84794
1.84266
1.83712
1.83185
1.8264
1.8212
1.81585
1.8108
1.80559
1.80081
1.79599
1.79192
1.78899
2.14807
2.12952
2.11111
2.09221
2.07417
2.0574
2.04356
2.03322
2.03136
2.04004
2.05577
2.08162
2.13299
2.20798
2.28045
2.31602
2.3229
2.31881
2.30902
2.29297
2.27409
2.25642
2.23989
2.22331
2.20649
2.18895
2.17036
2.15122
2.13132
2.11102
2.09016
2.06904
2.04805
2.02737
2.00732
1.98784
1.96897
1.95077
1.93313
1.91634
1.90046
1.88599
1.87272
1.86131
1.85219
1.84497
1.83965
1.83555
1.83469
1.83549
1.84147
1.85347
1.86975
1.88791
1.90517
1.91942
1.92982
1.93586
1.93908
1.93959
1.93898
1.93792
1.93666
1.93489
1.93275
1.93013
1.92728
1.92384
1.92034
1.91628
1.91235
1.90788
1.90367
1.89892
1.89449
1.88951
1.8849
1.87976
1.875
1.86974
1.86483
1.85948
1.85444
1.84907
1.84394
1.83861
1.83343
1.82818
1.82297
1.81781
1.81265
1.80759
1.80255
1.79762
1.79279
1.78805
1.78357
1.77927
1.77555
1.77305
2.1275
2.11516
2.09848
2.08448
2.06948
2.05574
2.04477
2.04131
2.04964
2.06619
2.09296
2.14371
2.21776
2.28839
2.32296
2.32894
2.32471
2.31463
2.29808
2.28008
2.26416
2.24961
2.23518
2.22042
2.20469
2.1881
2.17042
2.15203
2.13252
2.11253
2.09179
2.07107
2.05024
2.02983
2.00955
1.98997
1.97047
1.95195
1.93335
1.9163
1.89872
1.88339
1.86735
1.85458
1.84109
1.83192
1.82262
1.81698
1.8112
1.80869
1.80814
1.81042
1.81812
1.83213
1.84914
1.86765
1.88407
1.89732
1.90614
1.9111
1.91278
1.91265
1.9116
1.91033
1.90882
1.90663
1.90407
1.90105
1.89785
1.89422
1.89053
1.88642
1.8823
1.8778
1.8734
1.86867
1.86409
1.8592
1.85448
1.84945
1.84457
1.83944
1.83441
1.82925
1.82413
1.81902
1.81386
1.80886
1.80371
1.79882
1.79374
1.78894
1.78402
1.77936
1.77474
1.77033
1.76617
1.76233
1.75905
1.75696
2.11446
2.10184
2.08237
2.0684
2.058
2.04996
2.05
2.05961
2.07624
2.10551
2.15636
2.23081
2.2986
2.33148
2.33536
2.33062
2.31907
2.30146
2.2835
2.26869
2.25547
2.2431
2.22976
2.216
2.20045
2.18451
2.16673
2.14886
2.12928
2.11008
2.08956
2.06979
2.04924
2.02952
2.00935
1.99017
1.97038
1.95199
1.93277
1.91508
1.89689
1.88023
1.86361
1.8487
1.83409
1.82192
1.80998
1.80181
1.79348
1.7885
1.78329
1.78253
1.78266
1.7867
1.79671
1.81189
1.8298
1.84796
1.86383
1.87558
1.88292
1.88663
1.8872
1.88653
1.88553
1.88415
1.88206
1.87943
1.87651
1.8733
1.86987
1.86613
1.8623
1.85816
1.85401
1.84952
1.84514
1.84043
1.83592
1.83108
1.82639
1.8214
1.81648
1.81141
1.80632
1.80126
1.79611
1.79111
1.78599
1.78111
1.77613
1.7714
1.76666
1.76214
1.75778
1.75362
1.74985
1.74638
1.74368
1.74187
2.09719
2.09258
2.08106
2.06256
2.05305
2.05259
2.06494
2.08181
2.11731
2.17066
2.24719
2.3107
2.34014
2.34153
2.33619
2.32339
2.30347
2.28621
2.27151
2.25957
2.24764
2.23605
2.22287
2.20928
2.19384
2.17812
2.16063
2.14319
2.12417
2.10556
2.08557
2.0664
2.04597
2.02668
2.00638
1.98732
1.96756
1.94898
1.9299
1.91209
1.89388
1.87707
1.86007
1.84464
1.82921
1.81577
1.80239
1.79142
1.7813
1.77365
1.76692
1.76184
1.75857
1.75847
1.75974
1.7656
1.77743
1.79363
1.8122
1.82972
1.84423
1.85452
1.86034
1.86269
1.86256
1.86184
1.86061
1.85881
1.8564
1.85368
1.85074
1.84748
1.844
1.84019
1.83626
1.83209
1.82783
1.82337
1.81883
1.8142
1.80947
1.80474
1.79983
1.79502
1.78996
1.78511
1.77999
1.77517
1.77011
1.76536
1.76048
1.75588
1.7513
1.74696
1.74284
1.739
1.73567
1.73277
1.73085
1.72948
2.06756
2.07352
2.07029
2.06356
2.05662
2.06899
2.08748
2.12505
2.18058
2.26051
2.32
2.34813
2.3478
2.34056
2.32469
2.30396
2.28548
2.27094
2.25904
2.24844
2.23758
2.22615
2.21357
2.2
2.18524
2.16961
2.15286
2.13568
2.1175
2.09928
2.08026
2.06129
2.04195
2.02268
2.00348
1.98439
1.96552
1.9469
1.92842
1.91041
1.89255
1.87537
1.85854
1.84236
1.82707
1.81204
1.79859
1.78525
1.77394
1.76307
1.75471
1.74698
1.74123
1.736
1.73411
1.73386
1.73652
1.74424
1.75738
1.7748
1.79337
1.81047
1.82391
1.83271
1.83758
1.83848
1.8381
1.8373
1.83561
1.83331
1.83028
1.82737
1.8241
1.82083
1.81714
1.81331
1.80926
1.80508
1.8009
1.7965
1.79221
1.78764
1.78326
1.77857
1.7741
1.76931
1.76477
1.75998
1.75547
1.75077
1.74642
1.74193
1.73794
1.73381
1.73047
1.72698
1.72475
1.7224
1.7217
1.7203
2.05055
2.05569
2.05866
2.0615
2.07291
2.09597
2.13766
2.20008
2.2803
2.33388
2.35175
2.34998
2.34133
2.32346
2.30165
2.28409
2.26971
2.2585
2.24867
2.23875
2.22817
2.21651
2.20423
2.1907
2.17654
2.16099
2.14497
2.12781
2.11039
2.09217
2.07385
2.05498
2.03634
2.01729
1.99884
1.97988
1.96186
1.9431
1.92558
1.90718
1.89036
1.8725
1.85663
1.83955
1.82467
1.80876
1.79491
1.78047
1.768
1.75545
1.745
1.73495
1.7273
1.72
1.71463
1.71053
1.71016
1.71092
1.71506
1.72471
1.73935
1.75743
1.77556
1.79155
1.80338
1.81042
1.81358
1.81345
1.81286
1.81129
1.80943
1.80636
1.80374
1.80029
1.79752
1.79354
1.79037
1.78594
1.78251
1.77787
1.77422
1.76945
1.76567
1.76094
1.75711
1.75246
1.74859
1.74399
1.74019
1.73572
1.73214
1.7279
1.72477
1.72103
1.7187
1.71606
1.71509
1.71383
1.71381
1.7133
2.01367
2.04224
2.05384
2.06828
2.09682
2.14871
2.22065
2.29793
2.34839
2.36137
2.35768
2.34524
2.32358
2.30021
2.28105
2.26635
2.2554
2.24573
2.23638
2.22611
2.21498
2.20277
2.18994
2.17616
2.16186
2.14677
2.13125
2.11518
2.09871
2.08193
2.06465
2.04741
2.02958
2.01206
1.99397
1.97627
1.95815
1.94041
1.92251
1.90503
1.88758
1.87066
1.85389
1.83768
1.82183
1.80642
1.79156
1.77724
1.76351
1.75068
1.73835
1.72743
1.71717
1.70894
1.70122
1.69516
1.6896
1.68762
1.6869
1.68876
1.69437
1.70499
1.7211
1.7393
1.75719
1.77212
1.78212
1.78758
1.78877
1.78844
1.78762
1.78548
1.78332
1.77975
1.77721
1.77362
1.77072
1.76684
1.7635
1.7595
1.75592
1.75186
1.74803
1.74397
1.74
1.73608
1.73211
1.7284
1.72449
1.72115
1.7175
1.71477
1.71171
1.70996
1.7081
1.70782
1.70736
1.70812
1.70985
1.70962
1.93481
2.02576
2.05588
2.09659
2.15806
2.24623
2.31918
2.36227
2.36784
2.36193
2.34471
2.32064
2.29807
2.27914
2.26392
2.25352
2.2446
2.23604
2.22633
2.21622
2.20473
2.19335
2.18042
2.1679
2.15344
2.13951
2.12376
2.10859
2.09196
2.07569
2.05838
2.0412
2.02338
2.00569
1.98761
1.96989
1.95187
1.93449
1.91681
1.89996
1.88271
1.86643
1.84973
1.83413
1.81819
1.80316
1.78793
1.77356
1.75937
1.74594
1.7331
1.721
1.70975
1.69942
1.69031
1.68219
1.67527
1.66882
1.66495
1.66286
1.66358
1.66663
1.67392