/*--------------------------------*- C++ -*----------------------------------*\
| =========                 |                                                 |
| \\      /  F ield         | OpenFOAM: The Open Source CFD Toolbox           |
|  \\    /   O peration     | Version:  2112                                  |
|   \\  /    A nd           | Website:  www.openfoam.com                      |
|    \\/     M anipulation  |                                                 |
\*---------------------------------------------------------------------------*/
FoamFile
{
    version     2.0;
    format      ascii;
    arch        "LSB;label=32;scalar=64";
    class       volVectorField;
    location    "6.5";
    object      U;
}
// * * * * * * * * * * * * * * * * * * * * * * * * * * * * * * * * * * * * * //

dimensions      [0 1 -1 0 0 0 0];

internalField   nonuniform List<vector> 
5250
(
(2.99999 1.37299e-08 0)
(2.99998 1.0661e-07 0)
(2.99995 3.28272e-07 0)
(2.99989 9.92363e-07 0)
(2.99972 2.35355e-06 0)
(2.99938 6.29488e-06 0)
(2.99831 1.4143e-05 0)
(2.99651 3.78184e-05 0)
(2.98941 8.09051e-05 0)
(2.97825 0.000238823 0)
(2.93201 0.000502676 0)
(2.82765 0.00160877 0)
(2.52084 0.00406973 0)
(1.55859 0.0115994 0)
(0.743532 0.0273512 0)
(0.517033 0.0260963 0)
(0.547982 0.0256262 0)
(0.544631 0.0268021 0)
(0.489601 0.0281586 0)
(0.402194 0.0297851 0)
(0.321398 0.0318561 0)
(0.254627 0.034287 0)
(0.1871 0.0368624 0)
(0.110954 0.0396819 0)
(0.0467794 0.0427592 0)
(2.99999 3.97423e-08 0)
(2.99998 3.08416e-07 0)
(2.99995 9.49107e-07 0)
(2.99989 2.86539e-06 0)
(2.99972 6.7743e-06 0)
(2.99939 1.81917e-05 0)
(2.99834 4.02733e-05 0)
(2.99657 0.00011035 0)
(2.98958 0.000231346 0)
(2.97861 0.000696186 0)
(2.93309 0.00144918 0)
(2.83085 0.00480057 0)
(2.52845 0.0115462 0)
(1.57758 0.036087 0)
(0.755848 0.0826588 0)
(0.514376 0.0744016 0)
(0.547332 0.0698743 0)
(0.545217 0.0709796 0)
(0.490142 0.0726657 0)
(0.402878 0.0751819 0)
(0.322043 0.0784009 0)
(0.254753 0.0819526 0)
(0.186415 0.0852613 0)
(0.109294 0.0883128 0)
(0.0447784 0.0901725 0)
(2.99999 6.40566e-08 0)
(2.99998 4.97214e-07 0)
(2.99995 1.52935e-06 0)
(2.9999 4.61783e-06 0)
(2.99973 1.08965e-05 0)
(2.99941 2.93951e-05 0)
(2.99839 6.44601e-05 0)
(2.99667 0.000180059 0)
(2.9899 0.000372526 0)
(2.97928 0.00114024 0)
(2.93525 0.00235861 0)
(2.83671 0.00800575 0)
(2.54464 0.0188066 0)
(1.62142 0.0620179 0)
(0.782448 0.143329 0)
(0.509508 0.125938 0)
(0.547982 0.117029 0)
(0.549275 0.119357 0)
(0.494828 0.122944 0)
(0.408395 0.12834 0)
(0.327776 0.13447 0)
(0.259916 0.141025 0)
(0.190532 0.147249 0)
(0.111795 0.152617 0)
(0.0452314 0.154948 0)
(2.99999 8.68382e-08 0)
(2.99998 6.75474e-07 0)
(2.99996 2.07682e-06 0)
(2.9999 6.28596e-06 0)
(2.99974 1.48386e-05 0)
(2.99944 4.01998e-05 0)
(2.99846 8.81838e-05 0)
(2.99683 0.000248112 0)
(2.99037 0.000513194 0)
(2.98028 0.00158337 0)
(2.93853 0.00327366 0)
(2.84559 0.0111647 0)
(2.56942 0.0263459 0)
(1.69099 0.0869195 0)
(0.824619 0.204693 0)
(0.503407 0.176679 0)
(0.551416 0.162929 0)
(0.558384 0.166782 0)
(0.504938 0.172536 0)
(0.419691 0.181189 0)
(0.339208 0.190586 0)
(0.270608 0.200642 0)
(0.199709 0.210637 0)
(0.118069 0.219342 0)
(0.0475356 0.222887 0)
(3 1.02195e-07 0)
(2.99999 7.935e-07 0)
(2.99996 2.43918e-06 0)
(2.99991 7.37959e-06 0)
(2.99976 1.73484e-05 0)
(2.99947 4.75547e-05 0)
(2.99856 0.000101276 0)
(2.99703 0.00030281 0)
(2.991 0.000587047 0)
(2.98161 0.00201045 0)
(2.94286 0.00401984 0)
(2.85737 0.0140801 0)
(2.60228 0.0334733 0)
(1.78601 0.109972 0)
(0.882824 0.265872 0)
(0.49808 0.227591 0)
(0.559122 0.208692 0)
(0.573483 0.213762 0)
(0.521109 0.221483 0)
(0.43723 0.233573 0)
(0.356639 0.24657 0)
(0.287064 0.260656 0)
(0.214241 0.275161 0)
(0.128639 0.288226 0)
(0.0520728 0.294008 0)
(3 1.13777e-07 0)
(2.99999 8.81824e-07 0)
(2.99996 2.71064e-06 0)
(2.99991 8.19546e-06 0)
(2.99978 1.92129e-05 0)
(2.99951 5.30965e-05 0)
(2.99867 0.000110428 0)
(2.99723 0.000346397 0)
(2.99179 0.000630844 0)
(2.98317 0.00236995 0)
(2.94813 0.00459015 0)
(2.87193 0.0163998 0)
(2.64272 0.0392208 0)
(1.90748 0.128386 0)
(0.961256 0.320882 0)
(0.500579 0.27794 0)
(0.575003 0.254814 0)
(0.597271 0.260118 0)
(0.545742 0.269538 0)
(0.463252 0.28587 0)
(0.382043 0.303324 0)
(0.311003 0.322556 0)
(0.235558 0.343277 0)
(0.144401 0.363028 0)
(0.0593634 0.373534 0)
(3 1.25384e-07 0)
(2.99999 9.72901e-07 0)
(2.99997 2.99126e-06 0)
(2.99992 9.05102e-06 0)
(2.9998 2.12864e-05 0)
(2.99955 5.84727e-05 0)
(2.9988 0.000123683 0)
(2.99746 0.000378175 0)
(2.99268 0.00069441 0)
(2.98494 0.00257495 0)
(2.95407 0.00497347 0)
(2.88826 0.0176185 0)
(2.68828 0.0427771 0)
(2.05005 0.138715 0)
(1.06185 0.363146 0)
(0.521834 0.332979 0)
(0.6033 0.308805 0)
(0.63189 0.310108 0)
(0.581579 0.319166 0)
(0.50054 0.339568 0)
(0.417774 0.362027 0)
(0.34481 0.387517 0)
(0.266545 0.416329 0)
(0.168857 0.446308 0)
(0.071744 0.466815 0)
(3 1.29602e-07 0)
(2.99999 1.00329e-06 0)
(2.99997 3.08869e-06 0)
(2.99993 9.3048e-06 0)
(2.99982 2.19582e-05 0)
(2.99959 5.9095e-05 0)
(2.99894 0.00012872 0)
(2.99771 0.000366664 0)
(2.99361 0.00071252 0)
(2.98677 0.00242698 0)
(2.96022 0.00465763 0)
(2.90547 0.0161785 0)
(2.73617 0.0398108 0)
(2.20846 0.122531 0)
(1.20841 0.335148 0)
(0.59166 0.367575 0)
(0.65505 0.363493 0)
(0.681544 0.360616 0)
(0.633037 0.371638 0)
(0.553197 0.395107 0)
(0.467606 0.423474 0)
(0.391805 0.456781 0)
(0.310681 0.495982 0)
(0.206556 0.541519 0)
(0.0931357 0.583083 0)
(3 1.31233e-07 0)
(2.99999 1.00391e-06 0)
(2.99997 3.09638e-06 0)
(2.99994 9.22735e-06 0)
(2.99984 2.1818e-05 0)
(2.99964 5.72482e-05 0)
(2.99906 0.000127391 0)
(2.99795 0.000335613 0)
(2.99439 0.000699914 0)
(2.98825 0.0020826 0)
(2.96517 0.00405219 0)
(2.91916 0.0131216 0)
(2.76979 0.0325655 0)
(2.31607 0.0886418 0)
(1.35279 0.258423 0)
(0.640076 0.3957 0)
(0.681755 0.420263 0)
(0.712918 0.414582 0)
(0.67991 0.42824 0)
(0.608975 0.45261 0)
(0.526907 0.487675 0)
(0.451551 0.529618 0)
(0.371594 0.581359 0)
(0.267114 0.651233 0)
(0.132748 0.73804 0)
(3 5.65966e-08 0)
(2.99999 1.51047e-06 0)
(2.99998 3.04705e-06 0)
(2.99995 1.33797e-05 0)
(2.99986 2.20046e-05 0)
(2.99968 8.55885e-05 0)
(2.99917 0.000120599 0)
(2.99819 0.000524685 0)
(2.99506 0.000537309 0)
(2.98958 0.00315031 0)
(2.96916 0.00196822 0)
(2.93026 0.0191591 0)
(2.79323 0.0154416 0)
(2.40132 0.102094 0)
(1.52183 0.207192 0)
(0.720572 0.441324 0)
(0.693913 0.471344 0)
(0.723359 0.46787 0)
(0.712189 0.483196 0)
(0.6586 0.509114 0)
(0.589406 0.550762 0)
(0.521366 0.601803 0)
(0.453061 0.671886 0)
(0.366718 0.783669 0)
(0.20753 0.987292 0)
(3 1.11156e-07 0)
(2.99999 8.68932e-07 0)
(2.99998 2.6725e-06 0)
(2.99995 8.08863e-06 0)
(2.9999 1.91942e-05 0)
(2.99972 5.10767e-05 0)
(2.99943 0.000116135 0)
(2.9983 0.000296086 0)
(2.99656 0.000688262 0)
(2.98946 0.00170521 0)
(2.97803 0.00388538 0)
(2.93135 0.010502 0)
(2.82522 0.0266474 0)
(2.51386 0.0701658 0)
(1.59283 0.210837 0)
(0.819728 0.477542 0)
(0.69384 0.499778 0)
(0.727558 0.505505 0)
(0.735324 0.525221 0)
(0.701729 0.557528 0)
(0.651544 0.60476 0)
(0.602129 0.665692 0)
(0.566363 0.752859 0)
(0.559533 0.891591 0)
(0.587663 1.12643 0)
(3 1.60507e-07 0)
(2.99999 1.72011e-07 0)
(2.99998 2.13154e-06 0)
(2.99996 2.20983e-06 0)
(2.99989 1.48839e-05 0)
(2.99976 1.23286e-05 0)
(2.99938 9.90571e-05 0)
(2.99866 5.11612e-05 0)
(2.99623 0.000716323 0)
(2.99224 0.000322602 0)
(2.97647 0.00527196 0)
(2.94902 0.00258782 0)
(2.84212 0.0360425 0)
(2.56034 0.0506076 0)
(1.86058 0.208178 0)
(0.939111 0.51899 0)
(0.701754 0.526426 0)
(0.73659 0.533926 0)
(0.75893 0.556131 0)
(0.742949 0.595537 0)
(0.712693 0.647285 0)
(0.687536 0.715579 0)
(0.686859 0.809633 0)
(0.736865 0.942535 0)
(0.861996 1.1153 0)
(3 8.1035e-08 0)
(2.99999 6.31839e-07 0)
(2.99998 1.94131e-06 0)
(2.99996 5.88513e-06 0)
(2.99991 1.38649e-05 0)
(2.99979 3.73968e-05 0)
(2.99946 8.25474e-05 0)
(2.99881 0.000230473 0)
(2.99679 0.000456544 0)
(2.99326 0.00153681 0)
(2.98008 0.0027196 0)
(2.9571 0.0105247 0)
(2.87037 0.020896 0)
(2.64239 0.0807431 0)
(2.07104 0.197482 0)
(1.08163 0.555152 0)
(0.721025 0.561209 0)
(0.755241 0.566602 0)
(0.788349 0.58377 0)
(0.786537 0.625179 0)
(0.772759 0.680005 0)
(0.770268 0.749539 0)
(0.795744 0.838471 0)
(0.869594 0.947386 0)
(1.01347 1.05436 0)
(3 8.60557e-08 0)
(3 6.68295e-07 0)
(2.99999 2.05563e-06 0)
(2.99997 6.20771e-06 0)
(2.99992 1.46979e-05 0)
(2.99982 3.9232e-05 0)
(2.99954 8.81272e-05 0)
(2.99897 0.00023348 0)
(2.99732 0.000503133 0)
(2.99413 0.00145351 0)
(2.98385 0.00281426 0)
(2.96445 0.00987889 0)
(2.89696 0.0193498 0)
(2.72383 0.0715626 0)
(2.27565 0.175574 0)
(1.26769 0.5287 0)
(0.786035 0.589625 0)
(0.795716 0.606194 0)
(0.827876 0.61529 0)
(0.837305 0.651355 0)
(0.834037 0.7046 0)
(0.845367 0.769898 0)
(0.885624 0.846046 0)
(0.966218 0.929475 0)
(1.10357 0.998845 0)
(3 8.7045e-08 0)
(3 6.78444e-07 0)
(2.99999 2.08694e-06 0)
(2.99997 6.31539e-06 0)
(2.99993 1.49912e-05 0)
(2.99985 4.00456e-05 0)
(2.99962 9.04813e-05 0)
(2.99916 0.000236127 0)
(2.99781 0.000530962 0)
(2.99519 0.00137031 0)
(2.98703 0.00315304 0)
(2.97114 0.00815121 0)
(2.91876 0.0192221 0)
(2.78743 0.0549361 0)
(2.43842 0.141951 0)
(1.47299 0.422778 0)
(0.880369 0.608112 0)
(0.843313 0.642862 0)
(0.867398 0.654653 0)
(0.888177 0.678776 0)
(0.894002 0.724009 0)
(0.912531 0.781216 0)
(0.958526 0.844132 0)
(1.0387 0.907378 0)
(1.16321 0.956591 0)
(3 7.75325e-08 0)
(3 6.02866e-07 0)
(2.99999 1.85538e-06 0)
(2.99998 5.59955e-06 0)
(2.99995 1.32848e-05 0)
(2.99988 3.53323e-05 0)
(2.9997 7.97327e-05 0)
(2.99934 0.000206753 0)
(2.99826 0.000464674 0)
(2.99632 0.001184 0)
(2.98946 0.00273884 0)
(2.97804 0.00676208 0)
(2.93416 0.0166067 0)
(2.83357 0.0431978 0)
(2.54783 0.114177 0)
(1.68187 0.329009 0)
(0.997275 0.642105 0)
(0.876974 0.677258 0)
(0.895712 0.693376 0)
(0.925759 0.705575 0)
(0.945573 0.740011 0)
(0.970893 0.787568 0)
(1.01884 0.839378 0)
(1.09553 0.888395 0)
(1.20627 0.925023 0)
(3 6.36426e-08 0)
(3 4.91931e-07 0)
(2.99999 1.51595e-06 0)
(2.99998 4.54873e-06 0)
(2.99996 1.07723e-05 0)
(2.99991 2.84105e-05 0)
(2.99976 6.3782e-05 0)
(2.99948 0.000164973 0)
(2.99862 0.000360671 0)
(2.99709 0.000968552 0)
(2.99164 0.0020081 0)
(2.98282 0.00595532 0)
(2.94784 0.0123688 0)
(2.87293 0.0387796 0)
(2.64693 0.0946746 0)
(1.93352 0.292375 0)
(1.17237 0.671274 0)
(0.915932 0.706915 0)
(0.922473 0.722208 0)
(0.955491 0.727869 0)
(0.988666 0.751401 0)
(1.02094 0.790415 0)
(1.06952 0.833502 0)
(1.14153 0.872405 0)
(1.23964 0.900338 0)
(3 5.39202e-08 0)
(3 4.15629e-07 0)
(2.99999 1.28133e-06 0)
(2.99999 3.83889e-06 0)
(2.99997 9.09175e-06 0)
(2.99993 2.39503e-05 0)
(2.99981 5.37371e-05 0)
(2.99959 0.000139002 0)
(2.99893 0.000303209 0)
(2.99769 0.000820978 0)
(2.99359 0.00166994 0)
(2.98674 0.00517687 0)
(2.96044 0.0101569 0)
(2.90592 0.0339372 0)
(2.73871 0.080626 0)
(2.21478 0.251426 0)
(1.40336 0.648857 0)
(0.999582 0.728711 0)
(0.97048 0.743297 0)
(0.991535 0.748514 0)
(1.03036 0.761978 0)
(1.06788 0.792586 0)
(1.11467 0.828044 0)
(1.18034 0.859237 0)
(1.26713 0.880799 0)
(3 2.98623e-08 0)
(3 4.03447e-07 0)
(3 9.88112e-07 0)
(2.99999 3.62152e-06 0)
(2.99998 7.1692e-06 0)
(2.99994 2.26135e-05 0)
(2.99986 4.28798e-05 0)
(2.99969 0.000132083 0)
(2.99919 0.000243449 0)
(2.99823 0.000783555 0)
(2.99526 0.00129074 0)
(2.98994 0.00495717 0)
(2.97106 0.00667156 0)
(2.93452 0.0315768 0)
(2.81208 0.0524128 0)
(2.46251 0.205777 0)
(1.7086 0.500686 0)
(1.1116 0.742427 0)
(1.02911 0.766085 0)
(1.03628 0.775874 0)
(1.07296 0.779877 0)
(1.11335 0.799051 0)
(1.15723 0.825649 0)
(1.21572 0.850082 0)
(1.29171 0.866596 0)
(3 2.20931e-08 0)
(3 3.03943e-07 0)
(3 7.39157e-07 0)
(2.99999 2.72589e-06 0)
(2.99998 5.35444e-06 0)
(2.99996 1.69509e-05 0)
(2.99991 3.18794e-05 0)
(2.99976 9.82325e-05 0)
(2.99947 0.000181777 0)
(2.99857 0.000566959 0)
(2.99706 0.00100898 0)
(2.99125 0.00343399 0)
(2.98208 0.00534193 0)
(2.94546 0.0220236 0)
(2.86715 0.0361946 0)
(2.62704 0.139078 0)
(1.93393 0.360435 0)
(1.26853 0.748561 0)
(1.0756 0.792114 0)
(1.07255 0.806013 0)
(1.10606 0.804541 0)
(1.15164 0.80896 0)
(1.19557 0.825899 0)
(1.24849 0.843887 0)
(1.31517 0.856454 0)
(3 4.20773e-08 0)
(3 1.52065e-07 0)
(3 7.2442e-07 0)
(2.99999 1.51471e-06 0)
(2.99999 5.00923e-06 0)
(2.99997 9.48633e-06 0)
(2.99993 2.9336e-05 0)
(2.99981 5.37479e-05 0)
(2.99958 0.000168308 0)
(2.99892 0.000289431 0)
(2.99765 0.00101505 0)
(2.99356 0.00153636 0)
(2.98652 0.00652879 0)
(2.96057 0.00962751 0)
(2.90636 0.042842 0)
(2.74164 0.0838594 0)
(2.22829 0.302721 0)
(1.50233 0.703941 0)
(1.15538 0.808587 0)
(1.12035 0.826892 0)
(1.13853 0.82875 0)
(1.1836 0.823306 0)
(1.23067 0.829948 0)
(1.27975 0.841236 0)
(1.33875 0.849728 0)
(3 2.75272e-08 0)
(3 1.49942e-07 0)
(3 5.58098e-07 0)
(3 1.4323e-06 0)
(2.99999 3.94519e-06 0)
(2.99998 9.04924e-06 0)
(2.99994 2.35332e-05 0)
(2.99987 5.2687e-05 0)
(2.99967 0.000135665 0)
(2.99927 0.000302006 0)
(2.9981 0.000780848 0)
(2.99582 0.00172471 0)
(2.98885 0.00463365 0)
(2.97483 0.00993868 0)
(2.93123 0.0284715 0)
(2.82443 0.0713855 0)
(2.5246 0.193459 0)
(1.76351 0.574652 0)
(1.27449 0.809917 0)
(1.17759 0.839775 0)
(1.17809 0.850147 0)
(1.21481 0.842906 0)
(1.26282 0.838852 0)
(1.30965 0.843002 0)
(1.36225 0.847291 0)
(3 1.57824e-08 0)
(3 1.23034e-07 0)
(3 3.7864e-07 0)
(3 1.14362e-06 0)
(2.99999 2.71125e-06 0)
(2.99998 7.20504e-06 0)
(2.99996 1.62317e-05 0)
(2.9999 4.21108e-05 0)
(2.99979 9.37673e-05 0)
(2.99945 0.000243274 0)
(2.99883 0.000539925 0)
(2.99677 0.00140983 0)
(2.99337 0.00317171 0)
(2.98035 0.00820633 0)
(2.95791 0.019887 0)
(2.87321 0.0510116 0)
(2.66077 0.143178 0)
(2.11579 0.380425 0)
(1.41914 0.81336 0)
(1.22237 0.865127 0)
(1.21143 0.872497 0)
(1.23858 0.864893 0)
(1.2876 0.852308 0)
(1.33674 0.848941 0)
(1.38583 0.848859 0)
(3 1.75848e-08 0)
(3 6.72722e-08 0)
(3 3.08624e-07 0)
(3 6.70581e-07 0)
(2.99999 2.15065e-06 0)
(2.99999 4.24866e-06 0)
(2.99997 1.26905e-05 0)
(2.99994 2.45013e-05 0)
(2.99984 7.24152e-05 0)
(2.99964 0.000137706 0)
(2.99907 0.000419063 0)
(2.99802 0.000751516 0)
(2.99451 0.0025669 0)
(2.98867 0.00417088 0)
(2.96685 0.0165258 0)
(2.92344 0.0272674 0)
(2.7862 0.109603 0)
(2.39334 0.263117 0)
(1.70403 0.69423 0)
(1.32365 0.854809 0)
(1.2639 0.878631 0)
(1.27239 0.881972 0)
(1.31359 0.868747 0)
(1.363 0.859071 0)
(1.40989 0.854393 0)
(3 8.15898e-09 0)
(3 6.31388e-08 0)
(3 1.94713e-07 0)
(3 5.84096e-07 0)
(3 1.3846e-06 0)
(2.99999 3.64028e-06 0)
(2.99998 8.18479e-06 0)
(2.99995 2.09305e-05 0)
(2.99988 4.64043e-05 0)
(2.99974 0.000118485 0)
(2.99934 0.000260042 0)
(2.99856 0.000682477 0)
(2.99622 0.00143078 0)
(2.99199 0.00414785 0)
(2.97722 0.00819737 0)
(2.95042 0.0257632 0)
(2.85699 0.0589482 0)
(2.60412 0.178861 0)
(2.02654 0.479582 0)
(1.45168 0.832105 0)
(1.31574 0.885183 0)
(1.30733 0.898545 0)
(1.33725 0.889398 0)
(1.38602 0.872496 0)
(1.43279 0.863494 0)
(3 4.65241e-09 0)
(3 5.24183e-08 0)
(3 1.37254e-07 0)
(3 4.72702e-07 0)
(3 9.87125e-07 0)
(2.99999 2.93127e-06 0)
(2.99999 5.86553e-06 0)
(2.99997 1.68669e-05 0)
(2.99992 3.34249e-05 0)
(2.99982 9.5598e-05 0)
(2.99954 0.000188392 0)
(2.99899 0.000543486 0)
(2.99739 0.00104924 0)
(2.99432 0.0031967 0)
(2.98461 0.00568817 0)
(2.96624 0.0202129 0)
(2.90453 0.0352342 0)
(2.74793 0.133386 0)
(2.34442 0.311209 0)
(1.65083 0.78024 0)
(1.37978 0.893753 0)
(1.34359 0.912575 0)
(1.35802 0.911365 0)
(1.40265 0.892438 0)
(1.45294 0.876896 0)
(3 3.32469e-09 0)
(3 3.6885e-08 0)
(3 9.71561e-08 0)
(3 3.33638e-07 0)
(3 6.99981e-07 0)
(3 2.07243e-06 0)
(2.99999 4.1656e-06 0)
(2.99998 1.1939e-05 0)
(2.99995 2.37794e-05 0)
(2.99987 6.77346e-05 0)
(2.99972 0.000134389 0)
(2.99928 0.00038446 0)
(2.99843 0.000757169 0)
(2.99586 0.00221823 0)
(2.99124 0.00424978 0)
(2.9754 0.0135002 0)
(2.94514 0.0251171 0)
(2.84558 0.0867652 0)
(2.57836 0.207747 0)
(1.98269 0.579443 0)
(1.50169 0.871401 0)
(1.39712 0.915736 0)
(1.39035 0.926317 0)
(1.42073 0.914239 0)
(1.46917 0.891382 0)
(3 3.90189e-09 0)
(3 2.10209e-08 0)
(3 7.8234e-08 0)
(3 2.00568e-07 0)
(3 5.4929e-07 0)
(3 1.25653e-06 0)
(2.99999 3.23547e-06 0)
(2.99998 7.21878e-06 0)
(2.99997 1.83321e-05 0)
(2.99991 4.06227e-05 0)
(2.99981 0.000102964 0)
(2.99951 0.00022729 0)
(2.99892 0.000580679 0)
(2.99723 0.00126291 0)
(2.994 0.00338033 0)
(2.98366 0.00698683 0)
(2.96471 0.0207103 0)
(2.89969 0.0445654 0)
(2.73541 0.138569 0)
(2.31935 0.362366 0)
(1.68886 0.810194 0)
(1.45601 0.916871 0)
(1.42452 0.935185 0)
(1.43786 0.932809 0)
(1.48015 0.91066 0)
(3 3.24494e-09 0)
(3 1.39485e-08 0)
(3 5.9557e-08 0)
(3 1.36371e-07 0)
(3 4.14462e-07 0)
(3 8.58698e-07 0)
(3 2.43501e-06 0)
(2.99999 4.94313e-06 0)
(2.99998 1.37913e-05 0)
(2.99994 2.78676e-05 0)
(2.99987 7.75249e-05 0)
(2.99968 0.000156107 0)
(2.99929 0.000436274 0)
(2.99819 0.000868865 0)
(2.99602 0.00250417 0)
(2.98971 0.0047475 0)
(2.9766 0.0152693 0)
(2.93837 0.0271939 0)
(2.84456 0.096948 0)
(2.59339 0.218803 0)
(1.96825 0.632435 0)
(1.57223 0.883832 0)
(1.47647 0.930574 0)
(1.46832 0.941816 0)
(1.49472 0.930127 0)
(3 2.14906e-09 0)
(3 9.22682e-09 0)
(3 3.93871e-08 0)
(3 9.02898e-08 0)
(3 2.7406e-07 0)
(3 5.68067e-07 0)
(3 1.60805e-06 0)
(2.99999 3.26308e-06 0)
(2.99998 9.08879e-06 0)
(2.99997 1.83459e-05 0)
(2.99991 5.09706e-05 0)
(2.99981 0.000102546 0)
(2.99952 0.000286065 0)
(2.99895 0.000572571 0)
(2.99723 0.00161724 0)
(2.99423 0.00323215 0)
(2.98358 0.00930537 0)
(2.96506 0.0193235 0)
(2.89983 0.056545 0)
(2.73946 0.136646 0)
(2.32189 0.38944 0)
(1.74073 0.819947 0)
(1.53204 0.92639 0)
(1.50043 0.946203 0)
(1.5104 0.945446 0)
(3 9.47478e-10 0)
(3 7.32175e-09 0)
(3 2.25815e-08 0)
(3 6.75508e-08 0)
(3 1.60015e-07 0)
(3 4.18563e-07 0)
(3 9.40328e-07 0)
(3 2.38608e-06 0)
(2.99999 5.29344e-06 0)
(2.99998 1.33368e-05 0)
(2.99994 2.94575e-05 0)
(2.99987 7.4202e-05 0)
(2.99968 0.000163325 0)
(2.9993 0.000415567 0)
(2.99823 0.000896992 0)
(2.99611 0.00240411 0)
(2.99 0.00491923 0)
(2.97728 0.0145562 0)
(2.94067 0.0305176 0)
(2.85035 0.0925972 0)
(2.60921 0.235801 0)
(2.02149 0.632496 0)
(1.64168 0.89269 0)
(1.5487 0.941624 0)
(1.53834 0.95231 0)
(3 5.30254e-10 0)
(3 5.34155e-09 0)
(3 1.46327e-08 0)
(3 4.82744e-08 0)
(3 1.04335e-07 0)
(3 2.97355e-07 0)
(3 6.13546e-07 0)
(3 1.69188e-06 0)
(2.99999 3.455e-06 0)
(2.99999 9.45363e-06 0)
(2.99996 1.92424e-05 0)
(2.99992 5.26193e-05 0)
(2.9998 0.000106753 0)
(2.99956 0.00029314 0)
(2.99889 0.000591263 0)
(2.99759 0.00164366 0)
(2.99365 0.00330029 0)
(2.9865 0.00936156 0)
(2.96275 0.019399 0)
(2.9121 0.0567522 0)
(2.76568 0.132143 0)
(2.33874 0.400322 0)
(1.83906 0.793868 0)
(1.6159 0.921805 0)
(1.57519 0.948784 0)
(3 4.16089e-10 0)
(3 3.20532e-09 0)
(3 9.89114e-09 0)
(3 2.95307e-08 0)
(3 6.99488e-08 0)
(3 1.8272e-07 0)
(3 4.10489e-07 0)
(3 1.04086e-06 0)
(3 2.31064e-06 0)
(2.99999 5.81649e-06 0)
(2.99998 1.28707e-05 0)
(2.99995 3.23372e-05 0)
(2.99988 7.13715e-05 0)
(2.99971 0.000179551 0)
(2.99936 0.000394726 0)
(2.99837 0.00100377 0)
(2.9964 0.00217583 0)
(2.99077 0.00578996 0)
(2.97901 0.0122374 0)
(2.94547 0.0342611 0)
(2.86485 0.0821988 0)
(2.6383 0.228402 0)
(2.1048 0.608939 0)
(1.73168 0.886227 0)
(1.62621 0.945189 0)
(3 3.80326e-10 0)
(3 1.66946e-09 0)
(3 7.00045e-09 0)
(3 1.63068e-08 0)
(3 4.86651e-08 0)
(3 1.02275e-07 0)
(3 2.84435e-07 0)
(3 5.8471e-07 0)
(3 1.59866e-06 0)
(2.99999 3.27049e-06 0)
(2.99999 8.90499e-06 0)
(2.99997 1.81876e-05 0)
(2.99992 4.95294e-05 0)
(2.99983 0.000100965 0)
(2.99958 0.000276198 0)
(2.99907 0.000560654 0)
(2.99763 0.00155151 0)
(2.99488 0.00315947 0)
(2.98636 0.00884563 0)
(2.97041 0.0187518 0)
(2.9188 0.0526965 0)
(2.79255 0.128346 0)
(2.45889 0.36013 0)
(1.92805 0.778256 0)
(1.69016 0.928668 0)
(3 1.66226e-10 0)
(3 1.28251e-09 0)
(3 3.95788e-09 0)
(3 1.18247e-08 0)
(3 2.8003e-08 0)
(3 7.31231e-08 0)
(3 1.64139e-07 0)
(3 4.15811e-07 0)
(3 9.21894e-07 0)
(3 2.31886e-06 0)
(2.99999 5.1254e-06 0)
(2.99998 1.28723e-05 0)
(2.99995 2.84123e-05 0)
(2.9999 7.13874e-05 0)
(2.99974 0.000157288 0)
(2.99943 0.000396639 0)
(2.99856 0.000869978 0)
(2.99685 0.0022317 0)
(2.99196 0.00482143 0)
(2.98191 0.0130236 0)
(2.95319 0.028323 0)
(2.88444 0.0798422 0)
(2.69821 0.203852 0)
(2.21906 0.546181 0)
(1.81916 0.878309 0)
(3 8.9891e-11 0)
(3 8.65628e-10 0)
(3 2.41524e-09 0)
(3 7.83028e-09 0)
(3 1.71655e-08 0)
(3 4.80822e-08 0)
(3 1.00511e-07 0)
(3 2.72188e-07 0)
(3 5.63063e-07 0)
(3 1.51154e-06 0)
(2.99999 3.11906e-06 0)
(2.99999 8.35145e-06 0)
(2.99997 1.72087e-05 0)
(2.99994 4.60685e-05 0)
(2.99985 9.4705e-05 0)
(2.99967 0.000254304 0)
(2.99916 0.000520735 0)
(2.99818 0.00141235 0)
(2.99531 0.00287726 0)
(2.99007 0.00798473 0)
(2.97295 0.0165069 0)
(2.9392 0.0476371 0)
(2.83742 0.108404 0)
(2.543 0.328116 0)
(2.06368 0.706514 0)
(3 5.40492e-11 0)
(3 5.19979e-10 0)
(3 1.45171e-09 0)
(3 4.70593e-09 0)
(3 1.0315e-08 0)
(3 2.88468e-08 0)
(3 6.0248e-08 0)
(3 1.627e-07 0)
(3 3.36078e-07 0)
(3 8.98914e-07 0)
(3 1.85172e-06 0)
(2.99999 4.93646e-06 0)
(2.99998 1.01566e-05 0)
(2.99996 2.70455e-05 0)
(2.99991 5.55516e-05 0)
(2.99978 0.000148088 0)
(2.99953 0.000303249 0)
(2.99881 0.000814915 0)
(2.99742 0.00164511 0)
(2.99331 0.00459803 0)
(2.98552 0.00889071 0)
(2.96121 0.0269757 0)
(2.90801 0.0553234 0)
(2.75243 0.167775 0)
(2.34581 0.438267 0)
(3 5.52702e-11 0)
(3 2.49058e-10 0)
(3 1.02616e-09 0)
(3 2.41596e-09 0)
(3 7.09696e-09 0)
(3 1.50338e-08 0)
(3 4.11154e-08 0)
(3 8.50574e-08 0)
(3 2.28564e-07 0)
(3 4.70165e-07 0)
(3 1.25815e-06 0)
(3 2.58478e-06 0)
(2.99999 6.91293e-06 0)
(2.99998 1.41974e-05 0)
(2.99995 3.79885e-05 0)
(2.99987 7.79149e-05 0)
(2.99972 0.000208978 0)
(2.9993 0.000426741 0)
(2.99846 0.00115826 0)
(2.9961 0.00232983 0)
(2.99153 0.00660948 0)
(2.97781 0.0129978 0)
(2.94969 0.0393354 0)
(2.86627 0.0849961 0)
(2.63468 0.263864 0)
(3 3.2367e-11 0)
(3 1.44241e-10 0)
(3 5.99549e-10 0)
(3 1.3996e-09 0)
(3 4.13851e-09 0)
(3 8.68966e-09 0)
(3 2.39035e-08 0)
(3 4.8977e-08 0)
(3 1.32367e-07 0)
(3 2.69473e-07 0)
(3 7.25202e-07 0)
(3 1.47333e-06 0)
(2.99999 3.96142e-06 0)
(2.99999 8.0382e-06 0)
(2.99997 2.16139e-05 0)
(2.99993 4.37656e-05 0)
(2.99982 0.000117867 0)
(2.9996 0.000237672 0)
(2.99901 0.000644591 0)
(2.99784 0.00128732 0)
(2.99442 0.00358065 0)
(2.98818 0.0070281 0)
(2.96788 0.0206674 0)
(2.92664 0.0421506 0)
(2.80302 0.128952 0)
(3 1.23308e-11 0)
(3 9.46376e-11 0)
(3 2.92488e-10 0)
(3 8.67597e-10 0)
(3 2.05164e-09 0)
(3 5.29348e-09 0)
(3 1.18317e-08 0)
(3 2.95005e-08 0)
(3 6.50073e-08 0)
(3 1.60491e-07 0)
(3 3.5222e-07 0)
(3 8.66294e-07 0)
(3 1.8981e-06 0)
(2.99999 4.65835e-06 0)
(2.99998 1.01929e-05 0)
(2.99995 2.49786e-05 0)
(2.99988 5.45459e-05 0)
(2.99974 0.000133619 0)
(2.99934 0.00029097 0)
(2.99855 0.000717341 0)
(2.99632 0.00154006 0)
(2.99199 0.00395363 0)
(2.97882 0.00816749 0)
(2.95298 0.0222683 0)
(2.87206 0.0512768 0)
(3 4.62344e-12 0)
(3 5.74613e-11 0)
(3 1.44507e-10 0)
(3 5.09571e-10 0)
(3 1.0193e-09 0)
(3 3.06796e-09 0)
(3 5.81429e-09 0)
(3 1.69215e-08 0)
(3 3.13967e-08 0)
(3 9.1108e-08 0)
(3 1.66628e-07 0)
(3 4.86474e-07 0)
(3 8.77504e-07 0)
(2.99999 2.58676e-06 0)
(2.99998 4.59494e-06 0)
(2.99996 1.37177e-05 0)
(2.99991 2.39036e-05 0)
(2.9998 7.26406e-05 0)
(2.99949 0.00012301 0)
(2.99888 0.000385658 0)
(2.99711 0.00061058 0)
(2.9937 0.00211345 0)
(2.98292 0.00269414 0)
(2.96251 0.0121844 0)
(2.89312 0.0124943 0)
(3 1.46501e-12 0)
(3 3.00905e-11 0)
(3 6.40749e-11 0)
(3 2.62352e-10 0)
(3 4.54061e-10 0)
(3 1.56629e-09 0)
(3 2.54874e-09 0)
(3 8.5602e-09 0)
(3 1.3404e-08 0)
(3 4.56111e-08 0)
(3 6.8843e-08 0)
(3 2.40904e-07 0)
(3 3.49201e-07 0)
(2.99999 1.26775e-06 0)
(2.99999 1.75365e-06 0)
(2.99997 6.66678e-06 0)
(2.99993 8.70628e-06 0)
(2.99982 3.51806e-05 0)
(2.9996 4.25035e-05 0)
(2.99896 0.00018777 0)
(2.99775 0.000193852 0)
(2.99374 0.00106379 0)
(2.98708 0.000605045 0)
(2.96129 0.00669409 0)
(2.90879 0.000582643 0)
(3 2.14474e-12 0)
(3 1.17331e-11 0)
(3 4.29253e-11 0)
(3 1.10127e-10 0)
(3 2.91763e-10 0)
(3 6.6024e-10 0)
(3 1.62151e-09 0)
(3 3.54961e-09 0)
(3 8.513e-09 0)
(3 1.84333e-08 0)
(3 4.37989e-08 0)
(3 9.44116e-08 0)
(3 2.23297e-07 0)
(2.99999 4.80181e-07 0)
(2.99999 1.13249e-06 0)
(2.99997 2.43184e-06 0)
(2.99993 5.72389e-06 0)
(2.99983 1.22827e-05 0)
(2.99962 2.88473e-05 0)
(2.99901 6.20763e-05 0)
(2.99784 0.000143682 0)
(2.99405 0.000318484 0)
(2.98759 0.000719836 0)
(2.9629 0.0015319 0)
(2.913 0.0035655 0)
(3 2.72532e-12 0)
(3 1.58419e-12 0)
(3 3.42026e-11 0)
(3 2.51506e-11 0)
(3 2.24233e-10 0)
(3 1.46525e-10 0)
(3 1.25063e-09 0)
(3 6.52183e-10 0)
(3 6.66695e-09 0)
(3 2.35226e-09 0)
(3 3.49404e-08 0)
(3 5.29241e-09 0)
(3 1.81442e-07 0)
(3 -1.51739e-08 0)
(2.99999 9.3799e-07 0)
(2.99997 -3.38791e-07 0)
(2.99994 4.85758e-06 0)
(2.99984 -3.41747e-06 0)
(2.99964 2.54585e-05 0)
(2.99905 -2.93293e-05 0)
(2.99797 0.000144736 0)
(2.99421 -0.000284754 0)
(2.98809 0.00111732 0)
(2.96359 -0.00290166 0)
(2.91475 0.00811413 0)
(3 1.9863e-12 0)
(3 -2.81026e-12 0)
(3 1.83544e-11 0)
(3 -1.53456e-11 0)
(3 1.16292e-10 0)
(3 -9.79779e-11 0)
(3 6.42273e-10 0)
(3 -6.86284e-10 0)
(3 3.40278e-09 0)
(3 -4.75201e-09 0)
(3 1.77387e-08 0)
(3 -3.19227e-08 0)
(3 9.15121e-08 0)
(3 -2.09371e-07 0)
(2.99999 4.67918e-07 0)
(2.99997 -1.35613e-06 0)
(2.99993 2.38519e-06 0)
(2.99985 -8.7843e-06 0)
(2.9996 1.25015e-05 0)
(2.99911 -5.81167e-05 0)
(2.99763 8.28352e-05 0)
(2.99485 -0.000439738 0)
(2.98542 0.000834825 0)
(2.96822 -0.00342019 0)
(2.90567 0.00679764 0)
(3 2.69998e-13 0)
(3 2.04983e-12 0)
(3 6.34232e-12 0)
(3 1.85432e-11 0)
(3 4.34744e-11 0)
(3 1.09589e-10 0)
(3 2.4144e-10 0)
(3 5.84684e-10 0)
(3 1.26342e-09 0)
(3 3.02175e-09 0)
(3 6.4918e-09 0)
(3 1.54736e-08 0)
(3 3.3242e-08 0)
(3 7.9051e-08 0)
(2.99999 1.70171e-07 0)
(2.99997 4.03723e-07 0)
(2.99993 8.70649e-07 0)
(2.99985 2.06543e-06 0)
(2.9996 4.44706e-06 0)
(2.99911 1.07003e-05 0)
(2.99765 2.24867e-05 0)
(2.99484 5.9249e-05 0)
(2.98567 0.000108846 0)
(2.96845 0.000370392 0)
(2.90738 0.00074859 0)
(3 -1.1924e-12 0)
(3 7.23789e-12 0)
(3 -2.32857e-12 0)
(3 5.64178e-11 0)
(3 -6.53819e-12 0)
(3 3.472e-10 0)
(3 -1.77566e-11 0)
(3 2.06552e-09 0)
(3 1.37521e-11 0)
(3 1.22594e-08 0)
(3 9.05362e-10 0)
(3 7.29678e-08 0)
(3 1.10127e-08 0)
(3 4.36665e-07 0)
(2.99999 1.01737e-07 0)
(2.99997 2.63662e-06 0)
(2.99993 8.02136e-07 0)
(2.99985 1.6073e-05 0)
(2.99961 4.23556e-06 0)
(2.99912 0.000103166 0)
(2.99767 -1.25373e-05 0)
(2.99493 0.000693213 0)
(2.98568 -0.000559 0)
(2.96876 0.00426081 0)
(2.90749 -0.00509263 0)
(3 -2.48127e-15 0)
(3 3.22889e-14 0)
(3 7.99754e-14 0)
(3 3.0253e-13 0)
(3 6.85716e-13 0)
(3 2.47621e-12 0)
(3 5.28259e-12 0)
(3 1.89584e-11 0)
(3 4.22052e-11 0)
(3 1.49954e-10 0)
(3 3.4813e-10 0)
(3 1.18325e-09 0)
(3 2.78979e-09 0)
(3 8.96719e-09 0)
(2.99999 2.1052e-08 0)
(2.99997 6.48663e-08 0)
(2.99994 1.5045e-07 0)
(2.99985 4.53575e-07 0)
(2.99967 1.04154e-06 0)
(2.9991 3.13918e-06 0)
(2.99814 7.01843e-06 0)
(2.99439 2.23641e-05 0)
(2.98858 4.72326e-05 0)
(2.96478 0.00016612 0)
(2.91744 0.000382572 0)
(3 1.23993e-12 0)
(3 -6.8523e-12 0)
(3 3.48528e-12 0)
(3 -5.29667e-11 0)
(3 1.45274e-11 0)
(3 -3.26371e-10 0)
(3 6.31831e-11 0)
(3 -1.95005e-09 0)
(3 2.34389e-10 0)
(3 -1.16234e-08 0)
(3 4.66385e-10 0)
(3 -6.93755e-08 0)
(3 -3.18987e-09 0)
(3 -4.15655e-07 0)
(2.99999 -5.55106e-08 0)
(2.99997 -2.50944e-06 0)
(2.99993 -5.19959e-07 0)
(2.99985 -1.52777e-05 0)
(2.99961 -2.4557e-06 0)
(2.99913 -9.79711e-05 0)
(2.99769 2.40217e-05 0)
(2.99496 -0.000656677 0)
(2.9858 0.000636743 0)
(2.96904 -0.00397564 0)
(2.90849 0.00572495 0)
(3 -1.71094e-13 0)
(3 -1.45337e-12 0)
(3 -4.38792e-12 0)
(3 -1.29104e-11 0)
(3 -3.03696e-11 0)
(3 -7.80687e-11 0)
(3 -1.74952e-10 0)
(3 -4.33376e-10 0)
(3 -9.57733e-10 0)
(3 -2.32539e-09 0)
(3 -5.09002e-09 0)
(3 -1.21514e-08 0)
(3 -2.63615e-08 0)
(3 -6.19764e-08 0)
(2.99999 -1.33569e-07 0)
(2.99997 -3.09291e-07 0)
(2.99993 -6.6576e-07 0)
(2.99985 -1.50764e-06 0)
(2.9996 -3.2482e-06 0)
(2.99912 -6.93296e-06 0)
(2.99767 -1.53615e-05 0)
(2.99489 -1.96788e-05 0)
(2.98588 -9.50175e-05 0)
(2.96892 7.6747e-05 0)
(2.90918 -0.000232203 0)
(1.18886 1.01586 0)
(1.29822 0.752247 0)
(0.642331 0.430347 0)
(-0.236241 0.272822 0)
(-0.29117 0.0149479 0)
(-0.52709 -0.000232721 0)
(-0.656597 -0.0166172 0)
(-0.720406 -0.00952257 0)
(-0.76648 0.00833433 0)
(-0.826043 0.0200474 0)
(-0.891743 0.0205534 0)
(-0.949977 0.0156801 0)
(-1.00008 0.0101334 0)
(-1.0487 0.00771494 0)
(-1.09902 0.00687468 0)
(-1.14889 0.00629873 0)
(-1.19516 0.00550953 0)
(-1.2362 0.00400349 0)
(-1.27439 0.00209762 0)
(-1.31333 0.0016891 0)
(-1.34466 0.00424258 0)
(-1.36058 0.00458877 0)
(-1.36625 0.00340604 0)
(-1.36286 0.00170843 0)
(-1.34189 -0.000861727 0)
(-1.29706 -0.00455893 0)
(-1.23254 -0.00915907 0)
(-1.15484 -0.0134291 0)
(-1.07088 -0.016518 0)
(-0.98509 -0.0184776 0)
(-0.899754 -0.0195081 0)
(-0.816091 -0.0201121 0)
(-0.735174 -0.0203145 0)
(-0.657848 -0.0202198 0)
(-0.584391 -0.0198292 0)
(-0.514168 -0.0195146 0)
(-0.446694 -0.0194532 0)
(-0.381146 -0.0199919 0)
(-0.316522 -0.0216114 0)
(-0.254575 -0.0223954 0)
(-0.194909 -0.0227345 0)
(-0.137327 -0.0237799 0)
(-0.0816146 -0.0255429 0)
(-0.0297585 -0.0289579 0)
(0.0299086 -0.0266357 0)
(0.0800535 -0.0239108 0)
(0.128844 -0.022831 0)
(0.174615 -0.0219154 0)
(0.218462 -0.0211276 0)
(0.260165 -0.0203047 0)
(0.299151 -0.0194425 0)
(0.337137 -0.0189931 0)
(0.376102 -0.0191421 0)
(0.414514 -0.0186659 0)
(0.451262 -0.0179689 0)
(0.486421 -0.0172215 0)
(0.520399 -0.0165541 0)
(0.553345 -0.0159523 0)
(0.585341 -0.0153926 0)
(0.616447 -0.014842 0)
(0.646741 -0.0143085 0)
(0.676263 -0.0137865 0)
(0.705061 -0.013281 0)
(0.733176 -0.0127854 0)
(0.760653 -0.0123092 0)
(0.787524 -0.0118444 0)
(0.813828 -0.0114 0)
(0.839595 -0.0109676 0)
(0.864861 -0.010555 0)
(0.889645 -0.0101535 0)
(0.913977 -0.00976894 0)
(0.937874 -0.00939358 0)
(0.961361 -0.00903218 0)
(0.984452 -0.00867851 0)
(1.00717 -0.00833526 0)
(1.02952 -0.00799787 0)
(1.05152 -0.00766729 0)
(1.07317 -0.00734081 0)
(1.09449 -0.00701853 0)
(1.11549 -0.00669922 0)
(1.13616 -0.00638306 0)
(1.15652 -0.00606939 0)
(1.17657 -0.00575901 0)
(1.19631 -0.00545109 0)
(1.21574 -0.00514659 0)
(1.23488 -0.00484401 0)
(1.25371 -0.00454413 0)
(1.27224 -0.00424434 0)
(1.29046 -0.00394465 0)
(1.30835 -0.00364131 0)
(1.32589 -0.00333324 0)
(1.34302 -0.0030128 0)
(1.35969 -0.00267648 0)