/*--------------------------------*- C++ -*----------------------------------*\
| =========                 |                                                 |
| \\      /  F ield         | OpenFOAM: The Open Source CFD Toolbox           |
|  \\    /   O peration     | Version:  2112                                  |
|   \\  /    A nd           | Website:  www.openfoam.com                      |
|    \\/     M anipulation  |                                                 |
\*---------------------------------------------------------------------------*/
FoamFile
{
    version     2.0;
    format      ascii;
    arch        "LSB;label=32;scalar=64";
    class       volScalarField;
    location    "25.5";
    object      p;
}
// * * * * * * * * * * * * * * * * * * * * * * * * * * * * * * * * * * * * * //

dimensions      [0 2 -2 0 0 0 0];

internalField   nonuniform List<scalar> 
8800
(
0.447003
0.399215
0.360523
0.331523
0.31065
0.295802
0.285179
0.277661
0.272783
0.270633
0.271775
0.275842
0.282383
0.291618
0.304339
0.322031
0.346779
0.380699
0.42323
0.481929
0.278262
0.28594
0.293408
0.296714
0.295205
0.290118
0.283616
0.277512
0.272741
0.269815
0.269417
0.271787
0.276156
0.282004
0.288698
0.294921
0.298523
0.297764
0.292314
0.283609
0.25668
0.262842
0.266969
0.26991
0.271953
0.272545
0.271416
0.269272
0.267187
0.266171
0.266991
0.269234
0.271915
0.273997
0.274527
0.273268
0.270879
0.267451
0.262876
0.25911
0.250904
0.253555
0.256313
0.258721
0.260356
0.261508
0.262226
0.262301
0.261933
0.26176
0.262355
0.263368
0.264066
0.264013
0.263306
0.262136
0.260255
0.257631
0.255198
0.253693
0.245571
0.246998
0.248789
0.250832
0.252623
0.253962
0.254931
0.255682
0.256213
0.256642
0.257107
0.257414
0.257345
0.256912
0.256089
0.254733
0.252949
0.251029
0.249684
0.248854
0.240561
0.241482
0.242749
0.244349
0.246009
0.247549
0.248827
0.249851
0.250725
0.251464
0.251931
0.252026
0.251772
0.251139
0.250086
0.248734
0.247276
0.245911
0.245041
0.244497
0.235765
0.236434
0.237431
0.238783
0.24024
0.241736
0.243193
0.244491
0.245592
0.24651
0.247069
0.247155
0.246791
0.246017
0.244974
0.243821
0.242631
0.241575
0.240934
0.240539
0.231132
0.231641
0.232475
0.233686
0.235038
0.236468
0.237948
0.239417
0.240764
0.24189
0.242575
0.242673
0.242273
0.241545
0.24064
0.239643
0.23863
0.237766
0.23727
0.236972
0.226652
0.227047
0.227763
0.22888
0.230188
0.231581
0.233045
0.23456
0.236054
0.237396
0.238253
0.238478
0.238223
0.237661
0.236914
0.23605
0.235167
0.234452
0.234063
0.233833
0.222273
0.222579
0.223211
0.224271
0.22555
0.226935
0.228423
0.230003
0.23164
0.233214
0.234302
0.23473
0.234677
0.234299
0.233703
0.23298
0.232216
0.231616
0.231311
0.231135
0.217981
0.218216
0.218788
0.219827
0.221108
0.222539
0.224129
0.225842
0.22763
0.229417
0.230839
0.231596
0.23178
0.231553
0.231084
0.230484
0.229819
0.229312
0.229077
0.228943
0.213747
0.213913
0.214436
0.215467
0.216766
0.218214
0.219832
0.22167
0.223728
0.225891
0.22767
0.22872
0.229182
0.229245
0.229017
0.228567
0.228013
0.227596
0.227429
0.227336
0.209658
0.209763
0.210226
0.211201
0.212477
0.21395
0.21565
0.217616
0.219869
0.22239
0.224674
0.226246
0.227141
0.227523
0.227555
0.227332
0.226971
0.226691
0.226594
0.226535
0.205637
0.205699
0.206096
0.206994
0.208235
0.209741
0.211562
0.213787
0.216457
0.219529
0.222396
0.224449
0.225739
0.2265
0.226841
0.226908
0.226803
0.226696
0.226666
0.226624
0.201337
0.201386
0.201711
0.202506
0.203686
0.205207
0.207149
0.209601
0.212667
0.216358
0.219979
0.222746
0.224666
0.225904
0.226696
0.227152
0.227359
0.227458
0.227489
0.227448
0.196348
0.196396
0.196708
0.197484
0.198712
0.200374
0.202578
0.205471
0.209162
0.213686
0.21821
0.22176
0.224284
0.226049
0.22727
0.228063
0.228559
0.228823
0.228893
0.228846
0.190401
0.190449
0.190812
0.191623
0.192974
0.194866
0.197429
0.200851
0.20532
0.210894
0.216553
0.221069
0.22437
0.226736
0.228415
0.229586
0.230361
0.230759
0.230856
0.2308
0.183193
0.183245
0.183676
0.184645
0.186226
0.188488
0.1916
0.19581
0.201323
0.208221
0.215261
0.22092
0.225098
0.228106
0.230278
0.231828
0.232852
0.233354
0.233476
0.233413
0.17444
0.17449
0.175027
0.176239
0.178216
0.181031
0.184911
0.190161
0.19703
0.2056
0.214329
0.221337
0.22648
0.230272
0.233009
0.234969
0.236223
0.236822
0.23698
0.236912
0.163865
0.16391
0.164572
0.166125
0.168654
0.172234
0.177159
0.183772
0.192361
0.203009
0.213793
0.222436
0.228828
0.233475
0.236868
0.239253
0.240755
0.241471
0.241673
0.241595
0.151078
0.151118
0.151942
0.15392
0.157208
0.161829
0.168125
0.176512
0.187292
0.200509
0.213776
0.224367
0.23219
0.237892
0.242038
0.244904
0.246709
0.247591
0.247843
0.247752
0.135455
0.135506
0.136566
0.139117
0.143369
0.149377
0.157502
0.168208
0.181768
0.198137
0.214367
0.227244
0.236758
0.243707
0.248718
0.252198
0.254386
0.255476
0.255776
0.255664
0.115848
0.115921
0.117347
0.120745
0.12637
0.134306
0.144929
0.158696
0.17579
0.196008
0.215732
0.231256
0.242707
0.251076
0.257115
0.26132
0.263984
0.265304
0.265653
0.265514
0.0905036
0.0906391
0.0926997
0.097501
0.105233
0.115943
0.130073
0.147922
0.16947
0.194298
0.218051
0.236558
0.25018
0.260158
0.26739
0.272472
0.275715
0.277297
0.277689
0.277512
0.0563717
0.0566726
0.0600398
0.0674449
0.0787467
0.0937686
0.112865
0.136062
0.163076
0.193271
0.22153
0.243303
0.259295
0.271056
0.279659
0.285777
0.289698
0.291568
0.291991
0.291766
0.00758938
0.00883094
0.0156695
0.0284905
0.0460333
0.0677093
0.0936439
0.123587
0.157051
0.193247
0.226349
0.251562
0.270052
0.283733
0.293876
0.301223
0.305961
0.308164
0.308597
0.308307
-0.0649894
-0.0570236
-0.041237
-0.0185173
0.00844912
0.0390633
0.073376
0.111119
0.151779
0.194573
0.232997
0.262064
0.283448
0.299453
0.311586
0.320623
0.326619
0.329516
0.330161
0.329971
-0.142848
-0.124631
-0.0991526
-0.0661039
-0.0294383
0.0102776
0.0531009
0.0988714
0.147192
0.1974
0.242259
0.276317
0.301612
0.320827
0.335718
0.347222
0.354974
0.358931
0.360161
0.360163
-0.206494
-0.185439
-0.152085
-0.110551
-0.0653131
-0.0171078
0.0338895
0.0874627
0.1432
0.200477
0.251337
0.289893
0.318616
0.34057
0.357631
0.370727
0.380017
0.384871
0.385802
0.385927
-0.258339
-0.2354
-0.196954
-0.149393
-0.0974367
-0.0421806
0.0159544
0.0765968
0.139211
0.203056
0.259364
0.301838
0.333367
0.357369
0.375991
0.390287
0.400654
0.4058
0.406913
0.407142
-0.301247
-0.277312
-0.235305
-0.183014
-0.125714
-0.0646914
-0.000492793
0.0663471
0.135122
0.204926
0.266103
0.311914
0.345687
0.371264
0.391012
0.406174
0.416877
0.422509
0.423998
0.424256
-0.337896
-0.313366
-0.268704
-0.212717
-0.150961
-0.085062
-0.0156388
0.0566475
0.130939
0.206115
0.271654
0.320357
0.355952
0.382677
0.40315
0.418772
0.42967
0.435586
0.437293
0.437545
-0.37022
-0.345321
-0.298598
-0.2395
-0.174034
-0.103922
-0.0299008
0.0472536
0.126551
0.206666
0.276221
0.327531
0.364679
0.392277
0.413157
0.428958
0.439928
0.4459
0.447705
0.447911
-0.399658
-0.374423
-0.326023
-0.264273
-0.195596
-0.121798
-0.0436891
0.0378789
0.121797
0.206564
0.279936
0.333737
0.372345
0.400702
0.42193
0.437771
0.448794
0.454811
0.45671
0.45689
-0.42707
-0.401533
-0.351663
-0.287655
-0.216161
-0.1391
-0.0573194
0.0282793
0.116514
0.205723
0.282866
0.339147
0.379218
0.408384
0.430002
0.446009
0.456995
0.46292
0.46491
0.465127
-0.453163
-0.427266
-0.376028
-0.310076
-0.236056
-0.156096
-0.071011
0.0182821
0.11056
0.204064
0.284973
0.343861
0.38555
0.415659
0.437755
0.453954
0.46498
0.470806
0.472756
0.472982
-0.478228
-0.451943
-0.399607
-0.331798
-0.255539
-0.172982
-0.0849117
0.00777062
0.103841
0.201517
0.286284
0.348002
0.391525
0.422733
0.445453
0.461957
0.473069
0.478838
0.480655
0.480816
-0.502604
-0.475822
-0.422503
-0.353015
-0.274766
-0.189879
-0.0991048
-0.00332149
0.0963023
0.198052
0.286798
0.351553
0.397153
0.429692
0.453205
0.470132
0.481377
0.487093
0.488748
0.48882
-0.526355
-0.499146
-0.444828
-0.373838
-0.293806
-0.206832
-0.11363
-0.0150149
0.0879266
0.193616
0.286387
0.354445
0.402434
0.436556
0.46104
0.478495
0.489896
0.495528
0.497047
0.496996
-0.549564
-0.521862
-0.466666
-0.394314
-0.312684
-0.223852
-0.128479
-0.0273089
0.0786857
0.188117
0.284954
0.356587
0.407313
0.443309
0.468955
0.487025
0.498573
0.50406
0.505403
0.505249
-0.572317
-0.544077
-0.488004
-0.41444
-0.331395
-0.240911
-0.143615
-0.0401731
0.0685818
0.181528
0.282414
0.35784
0.411668
0.449906
0.476944
0.4957
0.507357
0.512594
0.513715
0.513479
-0.594618
-0.565779
-0.508857
-0.434188
-0.349883
-0.257959
-0.158982
-0.0535495
0.057667
0.17385
0.278667
0.358039
0.415342
0.456273
0.485023
0.504522
0.516146
0.521008
0.521865
0.521556
-0.616296
-0.5869
-0.529178
-0.453519
-0.368101
-0.274921
-0.174501
-0.0673434
0.0460226
0.165106
0.27363
0.357009
0.418113
0.462282
0.49325
0.51362
0.524936
0.52914
0.529657
0.529291
-0.63731
-0.607388
-0.548929
-0.472376
-0.385986
-0.291728
-0.190072
-0.0814633
0.0337343
0.155338
0.267265
0.35458
0.419714
0.467697
0.501666
0.523346
0.534001
0.536925
0.536897
0.536515
-0.657726
-0.627204
-0.568069
-0.490714
-0.403469
-0.308292
-0.205603
-0.0958009
0.0209062
0.144635
0.259553
0.350613
0.419834
0.472103
0.510122
0.534251
0.544318
0.544869
0.543491
0.54321
-0.677372
-0.646329
-0.586544
-0.508466
-0.420487
-0.32453
-0.220998
-0.110241
0.00766959
0.133118
0.25053
0.345
0.418165
0.474867
0.517989
0.546562
0.557809
0.555651
0.550937
0.549642
-0.696332
-0.664754
-0.604374
-0.525659
-0.437075
-0.340491
-0.236314
-0.124842
-0.0060445
0.120714
0.240074
0.337488
0.414394
0.475172
0.523923
0.559292
0.575697
0.575323
0.564865
0.546347
-0.714542
-0.682477
-0.621682
-0.542481
-0.453521
-0.356503
-0.251966
-0.140091
-0.0207888
0.106758
0.227488
0.327198
0.40779
0.47179
0.525016
0.567921
0.590207
0.584153
0.569614
0.548791
-0.731841
-0.699647
-0.638289
-0.558685
-0.469534
-0.372224
-0.267726
-0.155657
-0.0362341
0.0915597
0.212961
0.313875
0.39789
0.463987
0.516099
0.560087
0.583547
0.569116
0.497521
0.461803
-0.747593
-0.717382
-0.653852
-0.57369
-0.484408
-0.387177
-0.283305
-0.171317
-0.0521598
0.0752683
0.196509
0.297403
0.383775
0.452123
0.49425
0.526913
0.534619
0.486408
0.41279
0.366395
-0.802739
-0.732736
-0.668069
-0.588771
-0.499559
-0.402736
-0.298765
-0.187331
-0.068899
0.057492
0.177648
0.277451
0.36254
0.437846
0.441139
0.457284
0.425801
0.361377
0.282114
0.237298
-0.763766
-0.748097
-0.688651
-0.610198
-0.521483
-0.425044
-0.322168
-0.211735
-0.094822
0.0292931
0.146215
0.242743
0.319274
0.392653
0.393214
0.285358
0.17807
0.10455
0.0284828
0.0661612
-0.794053
-0.765295
-0.705226
-0.627032
-0.538558
-0.442495
-0.339535
-0.22994
-0.114394
0.00745844
0.120946
0.213063
0.281934
0.321131
0.275094
0.126145
-0.00859772
-0.103986
-0.208667
-0.150074
-0.817311
-0.7855
-0.72442
-0.645883
-0.557455
-0.461574
-0.358857
-0.250286
-0.136406
-0.0173244
0.0920291
0.178375
0.237457
0.246286
0.138603
-0.0471996
-0.212498
-0.34057
-0.482897
-0.439446
-0.839879
-0.80655
-0.744402
-0.665082
-0.576523
-0.480816
-0.378721
-0.271289
-0.15925
-0.0432562
0.0612216
0.141173
0.186163
0.159373
-0.00481841
-0.219456
-0.429922
-0.620732
-0.830364
-0.829481
-0.86159
-0.828023
-0.765067
-0.68507
-0.596352
-0.500876
-0.399505
-0.29331
-0.183335
-0.0707505
0.0283178
0.101181
0.128746
0.067208
-0.142248
-0.375008
-0.619269
-0.840213
-1.11596
-1.45616
-0.883471
-0.850042
-0.78666
-0.706222
-0.617336
-0.522042
-0.421318
-0.316373
-0.208535
-0.0995364
-0.00603534
0.0589064
0.0692463
-0.0436432
-0.262078
-0.495615
-0.73027
-0.931106
-1.00903
-1.12281
-0.9063
-0.873034
-0.809467
-0.728847
-0.639914
-0.544887
-0.444894
-0.341355
-0.235945
-0.130991
-0.0435109
0.0119564
-0.00207289
-0.15777
-0.367682
-0.58214
-0.769431
-0.879296
-0.903709
-0.925002
-0.930414
-0.897279
-0.833627
-0.75299
-0.664172
-0.569559
-0.470513
-0.368659
-0.266076
-0.165775
-0.0847549
-0.0407024
-0.0785809
-0.262204
-0.462933
-0.652225
-0.797426
-0.84839
-0.863639
-0.866335
-0.956006
-0.922845
-0.859172
-0.778596
-0.690012
-0.596009
-0.498127
-0.398258
-0.298917
-0.203849
-0.129834
-0.100006
-0.155462
-0.359962
-0.551362
-0.721484
-0.827156
-0.83887
-0.841657
-0.841781
-0.983034
-0.949771
-0.886089
-0.805607
-0.717388
-0.624153
-0.527656
-0.430071
-0.334372
-0.245049
-0.178886
-0.160639
-0.247747
-0.450202
-0.632015
-0.777087
-0.821347
-0.829488
-0.830177
-0.829219
-1.01119
-0.977762
-0.914225
-0.833882
-0.746142
-0.653848
-0.558962
-0.463952
-0.372291
-0.289161
-0.231377
-0.226741
-0.349348
-0.535356
-0.698874
-0.809734
-0.81769
-0.819699
-0.821351
-0.821058
-1.03989
-1.00651
-0.943215
-0.863148
-0.776013
-0.684836
-0.591766
-0.499619
-0.412323
-0.335869
-0.286182
-0.30261
-0.4454
-0.615462
-0.758099
-0.799484
-0.82013
-0.818129
-0.816492
-0.816049
-1.06872
-1.03558
-0.972535
-0.892965
-0.806578
-0.716686
-0.625644
-0.536598
-0.453936
-0.384494
-0.342851
-0.375238
-0.543541
-0.695082
-0.79802
-0.835677
-0.827815
-0.820628
-0.816829
-0.814989
-1.09676
-1.06416
-1.00161
-0.922676
-0.837225
-0.748798
-0.659971
-0.574181
-0.496378
-0.433983
-0.40166
-0.449988
-0.64519
-0.787422
-0.832619
-0.838226
-0.848314
-0.847153
-0.84422
-0.841843
-1.1228
-1.09083
-1.02957
-0.951447
-0.867132
-0.780352
-0.693878
-0.611405
-0.538553
-0.483233
-0.460711
-0.523872
-0.747325
-0.950638
-0.93647
-0.918657
-0.940523
-0.947545
-0.945122
-0.941053
-1.14549
-1.11471
-1.05505
-0.978199
-0.895293
-0.810287
-0.72623
-0.647064
-0.578862
-0.530822
-0.515382
-0.599062
-0.837777
-1.17537
-1.54663
-1.3249
-1.19004
-1.16009
-1.14109
-1.12745
-1.16317
-1.13421
-1.07664
-1.00162
-0.920434
-0.837386
-0.755656
-0.679598
-0.615346
-0.574236
-0.564986
-0.660219
-0.880494
-1.08215
-1.35762
-1.26755
-1.25976
-1.25147
-1.24522
-1.2439
-1.17422
-1.14778
-1.09303
-1.02023
-0.94112
-0.860163
-0.780648
-0.707026
-0.646092
-0.609682
-0.610584
-0.70133
-0.8105
-0.566439
-0.0909841
-0.607887
-1.11858
-1.26138
-1.26504
-1.2665
-1.17675
-1.15383
-1.10269
-1.0327
-0.955923
-0.877137
-0.799522
-0.727374
-0.668315
-0.633778
-0.644246
-0.764118
-0.98136
-1.1048
-1.29413
-1.72424
-1.7602
-1.55224
-1.40663
-1.41151
-1.16976
-1.15079
-1.10421
-1.03788
-0.963707
-0.886987
-0.810691
-0.738847
-0.678365
-0.643523
-0.658861
-0.860771
-1.46239
-2.47645
-3.27911
-3.69449
-3.56384
-3.08265
-2.61225
-2.39626
-1.15178
-1.13661
-1.09659
-1.03508
-0.963854
-0.888954
-0.813065
-0.739825
-0.674603
-0.62899
-0.635283
-0.82675
-1.44837
-2.28221
-3.07583
-3.41692
-3.26452
-2.879
-2.50401
-2.33518
-1.12397
-1.11321
-1.08011
-1.0246
-0.956554
-0.883129
-0.80673
-0.729644
-0.656531
-0.59062
-0.557525
-0.549797
-0.720686
-0.81999
-0.78082
-0.579514
-0.264461
0.0293323
0.225309
0.309468
-1.08946
-1.08282
-1.05736
-1.00829
-0.943382
-0.870964
-0.793053
-0.711291
-0.625285
-0.536569
-0.429618
-0.292414
-0.0377308
0.452568
1.04035
1.62032
2.04696
2.29509
2.40761
2.4385
-1.05247
-1.04872
-1.0319
-0.989246
-0.927272
-0.855194
-0.775599
-0.688902
-0.593747
-0.485824
-0.360762
-0.219105
0.0511916
0.645794
1.32782
1.9307
2.35653
2.59632
2.70198
2.73253
-1.01784
-1.0155
-1.00602
-0.971403
-0.912275
-0.839322
-0.758097
-0.669109
-0.572687
-0.461092
-0.346604
-0.225998
-0.0727146
0.352924
0.876639
1.31627
1.6335
1.81406
1.8964
1.92146
-0.986753
-0.985942
-0.982698
-0.956158
-0.898441
-0.823864
-0.742164
-0.655197
-0.561705
-0.45882
-0.360282
-0.26777
-0.179349
0.0800715
0.455007
0.763188
0.98938
1.12669
1.19531
1.21577
-0.963021
-0.964634
-0.964132
-0.939236
-0.879194
-0.803222
-0.723632
-0.64172
-0.55553
-0.463641
-0.380768
-0.318223
-0.268315
-0.109037
0.143535
0.360862
0.520762
0.613863
0.656155
0.665667
-0.910061
-0.914116
-0.914409
-0.891798
-0.836273
-0.767414
-0.696165
-0.623946
-0.548368
-0.468502
-0.397872
-0.353553
-0.321314
-0.221398
-0.0499697
0.0914718
0.191629
0.249903
0.276178
0.282226
-0.807601
-0.810105
-0.809674
-0.794253
-0.757872
-0.709657
-0.656665
-0.599798
-0.537683
-0.46957
-0.409193
-0.372458
-0.344156
-0.277775
-0.159967
-0.0693751
-0.0104445
0.0222406
0.0356058
0.0371055
-0.690881
-0.691477
-0.690951
-0.68475
-0.669177
-0.644773
-0.612444
-0.572721
-0.52479
-0.468007
-0.412536
-0.371526
-0.339096
-0.28994
-0.223426
-0.168371
-0.131102
-0.110825
-0.102439
-0.102412
-0.605648
-0.605544
-0.605858
-0.60565
-0.601852
-0.592218
-0.575234
-0.548909
-0.512718
-0.464979
-0.414519
-0.367595
-0.322862
-0.282541
-0.247883
-0.220017
-0.199011
-0.184641
-0.17793
-0.178677
-0.559876
-0.559749
-0.560367
-0.562019
-0.562266
-0.558746
-0.549416
-0.531392
-0.503009
-0.463944
-0.418962
-0.375519
-0.331946
-0.303028
-0.282331
-0.261071
-0.243161
-0.230828
-0.225344
-0.226619
-0.54258
-0.542389
-0.542662
-0.543961
-0.544639
-0.5427
-0.536328
-0.522652
-0.499342
-0.46496
-0.427106
-0.395652
-0.367638
-0.348455
-0.33606
-0.310581
-0.286685
-0.270548
-0.263785
-0.265917
-0.545132
-0.544649
-0.544257
-0.544523
-0.54434
-0.541956
-0.535962
-0.523643
-0.501664
-0.469101
-0.435772
-0.41944
-0.426911
-0.427908
-0.395671
-0.362023
-0.334777
-0.319652
-0.313274
-0.314538
-0.565035
-0.56427
-0.563351
-0.562647
-0.561221
-0.557698
-0.550708
-0.537956
-0.514877
-0.478911
-0.442523
-0.427578
-0.445806
-0.45478
-0.423347
-0.387828
-0.365637
-0.355949
-0.352608
-0.353167
-0.601446
-0.600543
-0.599277
-0.597981
-0.595828
-0.591744
-0.584606
-0.571982
-0.547487
-0.505672
-0.455682
-0.418905
-0.420507
-0.427665
-0.406935
-0.383673
-0.365546
-0.355758
-0.354194
-0.35518
-0.652864
-0.651919
-0.650833
-0.649701
-0.648212
-0.646041
-0.642605
-0.635461
-0.617658
-0.57681
-0.506357
-0.429849
-0.400446
-0.40184
-0.387281
-0.362307
-0.341464
-0.327998
-0.325026
-0.325929
-0.716727
-0.716066
-0.715715
-0.716001
-0.717666
-0.721934
-0.730044
-0.742179
-0.754067
-0.741622
-0.651847
-0.523818
-0.454954
-0.439371
-0.403771
-0.355847
-0.310603
-0.28747
-0.286835
-0.288754
-0.786098
-0.786221
-0.787559
-0.79109
-0.799348
-0.816206
-0.847494
-0.901608
-0.982699
-1.04206
-0.932299
-0.730881
-0.605574
-0.549457
-0.47498
-0.386017
-0.312688
-0.279002
-0.284465
-0.286043
-0.848316
-0.849695
-0.853552
-0.861987
-0.879897
-0.914969
-0.980841
-1.10138
-1.29537
-1.47793
-1.35385
-1.04362
-0.845799
-0.733426
-0.595823
-0.45441
-0.358504
-0.327077
-0.33217
-0.338602
-0.885206
-0.888018
-0.894548
-0.908282
-0.936445
-0.99065
-1.09419
-1.28983
-1.61346
-1.93066
-1.81229
-1.38733
-1.10925
-0.949833
-0.772407
-0.624396
-0.534009
-0.522891
-0.524624
-0.529715
-0.87847
-0.882162
-0.890433
-0.907945
-0.943877
-1.00714
-1.13839
-1.38509
-1.79751
-2.19524
-2.1278
-1.64795
-1.34762
-1.16359
-0.989658
-0.87815
-0.827887
-0.813135
-0.80821
-0.809671
-0.817242
-0.821048
-0.829321
-0.846735
-0.882282
-0.950496
-1.08152
-1.33137
-1.74696
-2.15204
-2.1125
-1.69754
-1.43913
-1.29651
-1.21446
-1.14747
-1.10869
-1.08837
-1.07719
-1.07495
-0.706594
-0.709397
-0.715908
-0.730115
-0.75976
-0.817166
-0.927275
-1.13797
-1.48293
-1.7831
-1.74054
-1.50071
-1.38529
-1.34313
-1.36947
-1.35126
-1.29413
-1.26163
-1.24381
-1.23782
-0.563517
-0.56534
-0.569297
-0.578498
-0.598537
-0.638115
-0.714691
-0.862914
-1.11329
-1.32509
-1.30039
-1.21236
-1.16874
-1.22837
-1.36619
-1.36155
-1.29718
-1.25695
-1.23587
-1.22785
-0.413795
-0.414261
-0.415531
-0.419552
-0.429674
-0.450836
-0.49291
-0.576709
-0.732244
-0.89314
-0.912585
-0.882343
-0.846858
-0.932949
-1.08821
-1.10525
-1.07059
-1.04714
-1.03457
-1.02862
-0.277939
-0.277443
-0.276879
-0.277111
-0.2797
-0.28653
-0.301407
-0.3329
-0.399609
-0.493331
-0.509787
-0.48359
-0.481643
-0.584865
-0.707706
-0.739287
-0.737137
-0.734304
-0.732989
-0.731474
-0.16888
-0.167947
-0.166569
-0.164991
-0.163521
-0.162145
-0.161015
-0.160529
-0.160921
-0.163983
-0.170088
-0.181305
-0.237082
-0.338525
-0.408249
-0.434074
-0.442979
-0.448596
-0.452457
-0.453349
-0.0901242
-0.0891896
-0.0878554
-0.0861594
-0.0837341
-0.0797866
-0.0732747
-0.0623526
-0.0439617
-0.0161332
0.00108749
-0.0289223
-0.108061
-0.173024
-0.210534
-0.227438
-0.236171
-0.241821
-0.24592
-0.247267
-0.0381298
-0.0374493
-0.0366327
-0.0358173
-0.0343016
-0.0312532
-0.0258841
-0.0168811
-0.00254508
0.0163849
0.0243588
0.00294311
-0.037781
-0.0706097
-0.0905845
-0.0991741
-0.103553
-0.106585
-0.109139
-0.11011
-0.0056434
-0.00550755
-0.0051017
-0.00463919
-0.00414324
-0.00366261
-0.00286362
-0.00145995
0.000801511
0.00411951
0.00696841
0.00523302
-0.00182166
-0.0101066
-0.0133934
-0.0160319
-0.0168625
-0.0171116
-0.0176516
-0.0183105
-0.574351
-0.380092
-0.154654
0.0356464
0.189275
0.312273
0.415353
0.502317
0.541272
0.518573
-0.221298
-0.0838265
0.0619841
0.188142
0.295074
0.384258
0.45659
0.507987
0.534285
0.545945
0.0267485
0.119884
0.218498
0.306057
0.381604
0.444922
0.495217
0.531929
0.558073
0.57559
0.204832
0.26956
0.338636
0.401805
0.456677
0.503189
0.541233
0.571371
0.595621
0.613625
0.341181
0.388304
0.438394
0.486118
0.528156
0.564704
0.595811
0.621495
0.642787
0.660449
0.452256
0.487612
0.528355
0.566409
0.601167
0.632157
0.6591
0.6816
0.700052
0.71732
0.548985
0.579133
0.614931
0.648589
0.67987
0.708155
0.732783
0.753151
0.769073
0.786131
0.640193
0.670308
0.705434
0.738423
0.768856
0.796155
0.819592
0.838503
0.85217
0.869216
0.737153
0.770829
0.808181
0.842373
0.872949
0.89959
0.921912
0.939466
0.951545
0.968971
0.853252
0.891173
0.930291
0.964969
0.994645
1.01967
1.04027
1.05634
1.06795
1.08605
0.998906
1.03768
1.07387
1.10476
1.13064
1.1529
1.17209
1.18773
1.20025
1.21827
1.17402
1.20598
1.2323
1.25483
1.27491
1.29373
1.31153
1.32807
1.34347
1.36156
1.36285
1.38018
1.39537
1.41169
1.42766
1.44224
1.4555
1.46947
1.48705
1.50722
1.54493
1.55436
1.56594
1.57678
1.58609
1.59573
1.60658
1.61798
1.62937
1.64473
1.75207
1.75577
1.74084
1.72605
1.71983
1.72554
1.74404
1.77437
1.80657
1.83323
2.05842
1.92356
1.84695
1.80466
1.78725
1.79122
1.81864
1.87506
1.97769
2.20206
0.337601
0.33547
0.330984
0.322355
0.310124
0.297985
0.28774
0.279814
0.274144
0.270805
0.270327
0.272923
0.277905
0.285029
0.294341
0.305824
0.318433
0.329439
0.335538
0.33858
0.262062
0.267907
0.274246
0.278737
0.281201
0.280867
0.278114
0.274274
0.27071
0.26836
0.268081
0.270129
0.273659
0.277841
0.281564
0.283383
0.282398
0.278878
0.273684
0.26705
0.253666
0.255962
0.259366
0.262363
0.264437
0.265926
0.266664
0.266316
0.265233
0.264248
0.264276
0.265543
0.267213
0.268393
0.268472
0.267502
0.265888
0.263501
0.260203
0.257269
0.248189
0.249275
0.251114
0.253501
0.255531
0.256958
0.257965
0.25868
0.259016
0.259131
0.259458
0.260075
0.260499
0.260417
0.259881
0.258929
0.257373
0.255217
0.253078
0.251679
0.243034
0.243695
0.244814
0.246541
0.248343
0.249989
0.251282
0.252266
0.253076
0.253743
0.254282
0.254607
0.254591
0.254241
0.253511
0.252313
0.250763
0.249117
0.247729
0.246933
0.238142
0.238598
0.2394
0.240735
0.242261
0.243809
0.245288
0.246568
0.247637
0.248556
0.249248
0.249539
0.249418
0.2489
0.247984
0.246803
0.24551
0.244237
0.243234
0.2427
0.233425
0.233761
0.234394
0.235523
0.236885
0.238318
0.239798
0.241253
0.242574
0.243698
0.244539
0.244903
0.24474
0.244133
0.243235
0.242198
0.241117
0.240058
0.239271
0.238878
0.22888
0.229133
0.229648
0.230636
0.231899
0.233269
0.234709
0.236198
0.237677
0.239029
0.240061
0.240517
0.240393
0.239876
0.239125
0.238242
0.237303
0.236418
0.235791
0.235493
0.224451
0.224641
0.225073
0.225976
0.227193
0.228539
0.229963
0.23147
0.23304
0.234581
0.235838
0.236468
0.236517
0.236181
0.2356
0.234862
0.23404
0.233275
0.232765
0.232537
0.220123
0.220262
0.220628
0.221465
0.222649
0.223987
0.225457
0.22704
0.228703
0.230401
0.231909
0.23284
0.233159
0.23303
0.232592
0.231985
0.231299
0.23065
0.23024
0.230068
0.215854
0.215949
0.216264
0.217075
0.218278
0.219654
0.221182
0.222889
0.22477
0.226742
0.228578
0.229834
0.230392
0.230458
0.230202
0.229734
0.229148
0.22858
0.22825
0.228128
0.21168
0.211731
0.211994
0.212756
0.213934
0.21531
0.216843
0.218588
0.220591
0.222843
0.225088
0.226778
0.227752
0.228203
0.228261
0.22803
0.227619
0.227187
0.226953
0.226881
0.207648
0.207669
0.207889
0.208584
0.209716
0.211105
0.212729
0.214666
0.216952
0.219579
0.222334
0.224557
0.225968
0.22675
0.227077
0.227112
0.226928
0.226682
0.226557
0.226521
0.203555
0.203556
0.203732
0.204332
0.205367
0.206718
0.208378
0.210464
0.213047
0.216173
0.21957
0.222435
0.224411
0.225686
0.226424
0.226807
0.22699
0.227011
0.227018
0.227006
0.198943
0.198937
0.199098
0.199638
0.20063
0.202013
0.20381
0.206149
0.209143
0.212866
0.21706
0.220755
0.223396
0.225221
0.226452
0.227273
0.227748
0.228018
0.228136
0.228136
0.193517
0.193503
0.193685
0.194231
0.195273
0.19678
0.198816
0.20155
0.205139
0.209687
0.214882
0.219521
0.222943
0.225383
0.227104
0.228305
0.229113
0.229608
0.229808
0.229814
0.186972
0.186953
0.187167
0.187806
0.188966
0.190688
0.193088
0.196358
0.200711
0.206289
0.212738
0.218575
0.222923
0.226097
0.228362
0.229989
0.231136
0.231824
0.232083
0.232093
0.179017
0.178987
0.179252
0.180037
0.18145
0.183549
0.186498
0.190556
0.195961
0.202891
0.210892
0.218135
0.223578
0.227525
0.230368
0.23245
0.233933
0.234789
0.235104
0.235125
0.169388
0.169341
0.169669
0.170668
0.172453
0.175094
0.178812
0.183904
0.190663
0.199293
0.209217
0.218183
0.224883
0.229795
0.233385
0.235977
0.237765
0.238779
0.239166
0.2392
0.157741
0.15767
0.158079
0.159342
0.161653
0.165054
0.169817
0.176279
0.184794
0.195557
0.207831
0.218859
0.227107
0.23315
0.237531
0.240714
0.242847
0.244066
0.244552
0.244601
0.143607
0.143514
0.144051
0.145672
0.14864
0.153034
0.159193
0.16746
0.178217
0.191649
0.20678
0.220262
0.230329
0.237709
0.24307
0.246903
0.249483
0.250966
0.251565
0.251625
0.126104
0.125993
0.126739
0.12887
0.132696
0.138505
0.146502
0.157165
0.170838
0.187606
0.206177
0.222549
0.234733
0.243671
0.250157
0.254783
0.257906
0.259719
0.260439
0.260503
0.103806
0.103691
0.104806
0.107752
0.112878
0.120623
0.131256
0.145188
0.162644
0.183536
0.206187
0.225889
0.240473
0.251176
0.258958
0.264521
0.268314
0.270522
0.271374
0.271437
0.0743724
0.0742965
0.0760956
0.0804487
0.087775
0.0985895
0.113064
0.13145
0.153755
0.17965
0.207025
0.230463
0.247708
0.260372
0.269624
0.276294
0.280881
0.283532
0.284524
0.284577
0.0336428
0.03376
0.0370745
0.0443781
0.0557823
0.0716482
0.091798
0.116177
0.144525
0.176285
0.20894
0.236426
0.25652
0.271304
0.282192
0.290145
0.295678
0.298827
0.299938
0.299971
-0.0261395
-0.024781
-0.0167546
-0.00303859
0.0159821
0.0399287
0.0680513
0.100057
0.135545
0.173853
0.212151
0.243842
0.266874
0.283861
0.296501
0.305872
0.312489
0.316216
0.317444
0.317444
-0.0977386
-0.0955411
-0.0803061
-0.0564801
-0.02694
0.00650375
0.043399
0.0836133
0.12683
0.172468
0.217465
0.254561
0.281682
0.301928
0.317226
0.328774
0.337096
0.341732
0.343037
0.343134
-0.171404
-0.164292
-0.141822
-0.108039
-0.0687513
-0.026093
0.0195083
0.0679371
0.118937
0.171986
0.22381
0.266446
0.297731
0.321319
0.339481
0.353497
0.363649
0.368687
0.370674
0.37114
-0.230197
-0.221253
-0.194058
-0.153539
-0.106709
-0.0562726
-0.0029055
0.0531203
0.111443
0.171508
0.22971
0.277345
0.312234
0.338544
0.358788
0.374387
0.385698
0.391951
0.394887
0.395523
-0.277985
-0.268494
-0.237838
-0.192428
-0.139867
-0.0832373
-0.0233869
0.0392683
0.104188
0.170658
0.234667
0.286717
0.324607
0.353027
0.374828
0.391676
0.404028
0.411177
0.41447
0.415166
-0.317963
-0.308282
-0.275378
-0.226205
-0.16899
-0.107262
-0.0419558
0.0264225
0.0971732
0.169414
0.238638
0.294549
0.334942
0.365012
0.38793
0.405539
0.418477
0.426297
0.429785
0.430525
-0.352685
-0.342943
-0.30836
-0.256141
-0.195135
-0.12911
-0.0590752
0.0143351
0.0902988
0.167763
0.241738
0.301108
0.34364
0.375006
0.398674
0.416702
0.429903
0.438012
0.441587
0.442369
-0.38373
-0.373978
-0.338127
-0.283343
-0.21915
-0.149427
-0.0752455
0.00265207
0.0833535
0.165635
0.244063
0.306664
0.351139
0.383615
0.407844
0.426082
0.439366
0.447558
0.451093
0.451934
-0.412298
-0.402512
-0.3656
-0.308645
-0.241717
-0.168752
-0.0908955
-0.00894149
0.0761124
0.162927
0.245611
0.311384
0.357771
0.391305
0.416071
0.434554
0.447892
0.456168
0.459728
0.460399
-0.439159
-0.429318
-0.391461
-0.33265
-0.263284
-0.187448
-0.106316
-0.0206851
0.0683978
0.159505
0.246366
0.315313
0.363684
0.398384
0.423774
0.442541
0.455978
0.464232
0.467794
0.468356
-0.464787
-0.454891
-0.416165
-0.355755
-0.28417
-0.20578
-0.121708
-0.0327367
0.0600763
0.155273
0.246255
0.318512
0.369063
0.405109
0.431253
0.450406
0.464004
0.472249
0.475765
0.476312
-0.489613
-0.479557
-0.440019
-0.378135
-0.304601
-0.223933
-0.13721
-0.0451994
0.0510701
0.15016
0.245271
0.321047
0.374
0.411587
0.438668
0.458348
0.472196
0.480474
0.483868
0.484404
-0.513793
-0.503509
-0.463256
-0.399971
-0.3247
-0.241996
-0.152889
-0.0581211
0.0413373
0.144147
0.243375
0.322819
0.378458
0.417859
0.446081
0.466428
0.480598
0.488916
0.492177
0.492659
-0.537378
-0.526884
-0.485944
-0.421363
-0.344528
-0.260001
-0.168767
-0.0715126
0.0308716
0.137175
0.240438
0.32374
0.382378
0.423907
0.453496
0.474649
0.489189
0.497516
0.500618
0.501001
-0.560498
-0.54971
-0.508066
-0.442333
-0.364102
-0.277953
-0.184827
-0.0853523
0.0196742
0.12921
0.236392
0.323703
0.385664
0.42967
0.460899
0.482996
0.497931
0.506232
0.509115
0.509363
-0.583068
-0.57201
-0.529672
-0.462876
-0.383394
-0.295809
-0.201015
-0.0995925
0.00778021
0.120264
0.231197
0.322571
0.388151
0.435053
0.468271
0.491476
0.506769
0.514903
0.5175
0.517616
-0.605112
-0.59377
-0.550732
-0.482963
-0.402362
-0.31352
-0.217277
-0.114155
-0.004731
0.110387
0.224805
0.320211
0.389648
0.439896
0.475588
0.500149
0.515713
0.523452
0.525626
0.525599
-0.626476
-0.614911
-0.571193
-0.502546
-0.420947
-0.331005
-0.23353
-0.128951
-0.0177663
0.0996445
0.217203
0.316506
0.38994
0.44397
0.482786
0.509196
0.524951
0.531846
0.533315
0.533123
-0.647258
-0.635381
-0.591022
-0.521585
-0.439108
-0.348213
-0.249673
-0.143889
-0.0312293
0.0881306
0.208427
0.31136
0.388793
0.446938
0.489652
0.518849
0.535081
0.540439
0.540489
0.540006
-0.667315
-0.655142
-0.610189
-0.540023
-0.456759
-0.365057
-0.265625
-0.158846
-0.0450007
0.0759353
0.198547
0.304714
0.386004
0.448363
0.495683
0.529108
0.54718
0.550793
0.547816
0.545972
-0.686685
-0.674248
-0.628641
-0.557809
-0.473858
-0.381468
-0.281298
-0.173736
-0.0589584
0.0632138
0.187671
0.29654
0.381423
0.447763
0.499947
0.539149
0.561836
0.566373
0.559627
0.548918
-0.705288
-0.692645
-0.646483
-0.575091
-0.490615