/*--------------------------------*- C++ -*----------------------------------*\
| =========                 |                                                 |
| \\      /  F ield         | OpenFOAM: The Open Source CFD Toolbox           |
|  \\    /   O peration     | Version:  2112                                  |
|   \\  /    A nd           | Website:  www.openfoam.com                      |
|    \\/     M anipulation  |                                                 |
\*---------------------------------------------------------------------------*/
FoamFile
{
    version     2.0;
    format      ascii;
    arch        "LSB;label=32;scalar=64";
    class       volVectorField;
    location    "25.5";
    object      U;
}
// * * * * * * * * * * * * * * * * * * * * * * * * * * * * * * * * * * * * * //

dimensions      [0 1 -1 0 0 0 0];

internalField   nonuniform List<vector> 
8800
(
(0.980148 -0.0915209 0)
(1.00234 -0.058726 0)
(0.999612 -0.0321253 0)
(1 -0.0165142 0)
(1.00005 -0.00882508 0)
(1.00003 -0.00507101 0)
(1.00001 -0.00297149 0)
(1 -0.00168505 0)
(1 -0.000810557 0)
(1.00005 -0.000125663 0)
(1 0.000564684 0)
(0.999999 0.00131961 0)
(1 0.00235209 0)
(1.00001 0.00396684 0)
(1.00004 0.0067205 0)
(1.00005 0.0120303 0)
(0.999887 0.0230869 0)
(0.999079 0.0431553 0)
(1.00721 0.07903 0)
(0.775022 0.0478396 0)
(0.358987 -0.0147484 0)
(1.0465 -0.0724868 0)
(1.08849 -0.0660241 0)
(1.04946 -0.0509122 0)
(1.02553 -0.0376845 0)
(1.01267 -0.0258627 0)
(1.00649 -0.0166693 0)
(1.00358 -0.0102298 0)
(1.00216 -0.00565894 0)
(1.00152 -0.00210946 0)
(1.0014 0.00106571 0)
(1.00175 0.00436573 0)
(1.00271 0.00825745 0)
(1.00474 0.0135711 0)
(1.00898 0.0212595 0)
(1.01799 0.0317784 0)
(1.03589 0.0445785 0)
(1.06752 0.0580474 0)
(1.09476 0.0699623 0)
(0.845735 0.0554933 0)
(0.217784 -0.00137971 0)
(1.07569 -0.0506415 0)
(1.09944 -0.0489279 0)
(1.06439 -0.0400187 0)
(1.03984 -0.0325635 0)
(1.02369 -0.0253564 0)
(1.01391 -0.0181592 0)
(1.00845 -0.0115867 0)
(1.00563 -0.00589624 0)
(1.00448 -0.000695733 0)
(1.00481 0.0043372 0)
(1.00666 0.0096104 0)
(1.01057 0.0156146 0)
(1.01789 0.0224179 0)
(1.03054 0.0295468 0)
(1.05062 0.0366541 0)
(1.08024 0.0444549 0)
(1.10585 0.0518067 0)
(0.943532 0.0409446 0)
(0.217362 0.00139653 0)
(0.176661 -0.000627521 0)
(1.01943 -0.0354337 0)
(1.10571 -0.0413712 0)
(1.07791 -0.0363545 0)
(1.05231 -0.0303092 0)
(1.03505 -0.0244416 0)
(1.02322 -0.018704 0)
(1.01543 -0.0128115 0)
(1.01085 -0.00683993 0)
(1.00885 -0.000700587 0)
(1.00942 0.0053983 0)
(1.01253 0.0112759 0)
(1.01851 0.0170389 0)
(1.02811 0.0226389 0)
(1.04234 0.0282205 0)
(1.06323 0.0340417 0)
(1.09411 0.0399708 0)
(1.09479 0.0415626 0)
(0.83083 0.0226781 0)
(0.175948 0.000641202 0)
(0.154795 -0.000460517 0)
(0.95831 -0.025622 0)
(1.10444 -0.0350217 0)
(1.08805 -0.0325587 0)
(1.06109 -0.0280338 0)
(1.04294 -0.0230937 0)
(1.03056 -0.017891 0)
(1.02201 -0.012497 0)
(1.01652 -0.00674235 0)
(1.01393 -0.000457746 0)
(1.01463 0.00586134 0)
(1.01847 0.0116662 0)
(1.02526 0.0169666 0)
(1.03542 0.0219823 0)
(1.05025 0.0268386 0)
(1.07234 0.0313448 0)
(1.10147 0.0353075 0)
(1.07042 0.0336273 0)
(0.743768 0.0143018 0)
(0.153731 0.000475981 0)
(0.140191 -0.000331297 0)
(0.901509 -0.0191753 0)
(1.09681 -0.0300047 0)
(1.09605 -0.0291658 0)
(1.06867 -0.0254649 0)
(1.04974 -0.0214411 0)
(1.03675 -0.0168379 0)
(1.02779 -0.0117366 0)
(1.02189 -0.00621246 0)
(1.01896 -8.27635e-05 0)
(1.01968 0.00609998 0)
(1.02381 0.0116439 0)
(1.0309 0.0166213 0)
(1.04149 0.0211564 0)
(1.05698 0.0251556 0)
(1.07989 0.0286846 0)
(1.10391 0.0314249 0)
(1.03921 0.0275844 0)
(0.677865 0.01008 0)
(0.138698 0.000349806 0)
(0.129599 -0.00024873 0)
(0.852141 -0.0146852 0)
(1.0846 -0.0257215 0)
(1.10163 -0.0259978 0)
(1.0753 -0.0226695 0)
(1.05585 -0.0191268 0)
(1.04242 -0.0151938 0)
(1.03305 -0.0106402 0)
(1.02687 -0.00544621 0)
(1.02379 0.000422147 0)
(1.02443 0.0063104 0)
(1.02861 0.0115026 0)
(1.03592 0.0159672 0)
(1.04685 0.0197631 0)
(1.06274 0.0230721 0)
(1.08614 0.02617 0)
(1.10349 0.0281586 0)
(1.0056 0.0227944 0)
(0.627176 0.00758921 0)
(0.127585 0.000271318 0)
(0.12163 -0.000187817 0)
(0.810498 -0.0113262 0)
(1.06955 -0.0218524 0)
(1.10514 -0.0231569 0)
(1.08138 -0.0203854 0)
(1.06133 -0.0171058 0)
(1.04756 -0.0134713 0)
(1.03792 -0.00928356 0)
(1.03145 -0.00445424 0)
(1.02811 0.00103117 0)
(1.02868 0.006494 0)
(1.03292 0.0112258 0)
(1.04037 0.0151972 0)
(1.05147 0.0185565 0)
(1.06776 0.0215101 0)
(1.09167 0.0242549 0)
(1.10041 0.0252913 0)
(0.972087 0.018836 0)
(0.587363 0.00588936 0)
(0.118984 0.000215634 0)
(0.115614 -0.000141836 0)
(0.776119 -0.00873722 0)
(1.05313 -0.018265 0)
(1.10713 -0.0202524 0)
(1.08677 -0.0179806 0)
(1.06644 -0.0149967 0)
(1.05246 -0.0116197 0)
(1.04262 -0.00773459 0)
(1.03593 -0.00330168 0)
(1.03238 0.0017668 0)
(1.03279 0.00680862 0)
(1.03698 0.0109972 0)
(1.04444 0.0144776 0)
(1.0556 0.0174299 0)
(1.07209 0.0199892 0)
(1.09568 0.0222901 0)
(1.09464 0.0225477 0)
(0.94037 0.0155795 0)
(0.555644 0.00465973 0)
(0.112199 0.000176284 0)
(0.111116 -0.000103758 0)
(0.748294 -0.0066028 0)
(1.03683 -0.0148988 0)
(1.1083 -0.0172575 0)
(1.09177 -0.0152436 0)
(1.07116 -0.0124785 0)
(1.05689 -0.00948761 0)
(1.04686 -0.00598438 0)
(1.03998 -0.00191697 0)
(1.03621 0.0026991 0)
(1.03641 0.00718915 0)
(1.04046 0.0108447 0)
(1.04786 0.0137588 0)
(1.05908 0.0161208 0)
(1.07582 0.0182169 0)
(1.09859 0.0202009 0)
(1.08709 0.0198858 0)
(0.911406 0.0128137 0)
(0.530208 0.00370022 0)
(0.106762 0.000146045 0)
(0.107886 -7.21447e-05 0)
(0.7264 -0.00478939 0)
(1.02143 -0.0117208 0)
(1.10865 -0.0143538 0)
(1.09643 -0.0127797 0)
(1.07535 -0.010288 0)
(1.06073 -0.00753611 0)
(1.05056 -0.00424943 0)
(1.04358 -0.000438184 0)
(1.03964 0.00378303 0)
(1.03953 0.00776143 0)
(1.04327 0.0109301 0)
(1.05044 0.0133556 0)
(1.06168 0.0152917 0)
(1.07888 0.016976 0)
(1.10031 0.0184513 0)
(1.07816 0.0174204 0)
(0.885543 0.0104635 0)
(0.50983 0.00294648 0)
(0.102378 0.000125424 0)
(0.105741 -4.42732e-05 0)
(0.710118 -0.00311866 0)
(1.0077 -0.00850829 0)
(1.1079 -0.0111825 0)
(1.1003 -0.0101507 0)
(1.07935 -0.00791479 0)
(1.06462 -0.00524985 0)
(1.05423 -0.00213267 0)
(1.04692 0.00132145 0)
(1.04258 0.00510453 0)
(1.04219 0.00858652 0)
(1.04575 0.0111511 0)
(1.05285 0.013098 0)
(1.06396 0.0146321 0)
(1.08107 0.0158552 0)
(1.1004 0.0166158 0)
(1.06806 0.0148329 0)
(0.863174 0.00832335 0)
(0.493755 0.00229782 0)
(0.0988085 0.000110483 0)
(0.104681 -6.41176e-06 0)
(0.699274 -0.00153745 0)
(0.996587 -0.00535415 0)
(1.10662 -0.00764309 0)
(1.10354 -0.00676089 0)
(1.08305 -0.00483576 0)
(1.06815 -0.00257514 0)
(1.05759 0.000206276 0)
(1.05014 0.00334371 0)
(1.04557 0.00671603 0)
(1.04467 0.00967484 0)
(1.0477 0.011621 0)
(1.05442 0.0128078 0)
(1.06544 0.0135229 0)
(1.08252 0.0141483 0)
(1.09943 0.01447 0)
(1.05772 0.0123265 0)
(0.844473 0.00644572 0)
(0.481504 0.00173516 0)
(0.0959851 9.1042e-05 0)
(0.104676 2.90397e-05 0)
(0.693286 -0.000201424 0)
(0.988226 -0.00256308 0)
(1.10546 -0.00446867 0)
(1.10631 -0.00375827 0)
(1.08606 -0.00206757 0)
(1.071 -1.16313e-05 0)
(1.0603 0.00257275 0)
(1.05254 0.0055216 0)
(1.04751 0.00864939 0)
(1.0461 0.011193 0)
(1.04868 0.0126866 0)
(1.05504 0.0133986 0)
(1.06578 0.0135595 0)
(1.08263 0.0134728 0)
(1.09752 0.013123 0)
(1.04733 0.0104368 0)
(0.828928 0.00506978 0)
(0.472262 0.00136865 0)
(0.0938086 7.29946e-05 0)
(0.105536 5.62859e-05 0)
(0.691286 0.000727925 0)
(0.982464 -0.000372146 0)
(1.10414 -0.0018771 0)
(1.10872 -0.00141999 0)
(1.08909 7.28434e-05 0)
(1.07407 0.00225469 0)
(1.06342 0.00496994 0)
(1.05551 0.00802775 0)
(1.04997 0.0110569 0)
(1.04791 0.0132949 0)
(1.04975 0.0144087 0)
(1.05534 0.0146447 0)
(1.06548 0.0143506 0)
(1.08195 0.0138359 0)
(1.09408 0.0127606 0)
(1.03655 0.00940426 0)
(0.815807 0.00450589 0)
(0.464612 0.00130429 0)
(0.0919556 6.8641e-05 0)
(0.106957 7.52586e-05 0)
(0.692062 0.00130988 0)
(0.979556 0.0013323 0)
(1.10304 0.000609758 0)
(1.11077 0.00108643 0)
(1.09206 0.00262339 0)
(1.07722 0.00507367 0)
(1.06638 0.00804649 0)
(1.05801 0.0111517 0)
(1.05173 0.014044 0)
(1.04884 0.0159275 0)
(1.04989 0.0164555 0)
(1.05485 0.0161542 0)
(1.06446 0.015401 0)
(1.08025 0.0144858 0)
(1.08938 0.0128236 0)
(1.02578 0.00919699 0)
(0.804062 0.00467295 0)
(0.457026 0.00145675 0)
(0.0900253 7.72022e-05 0)
(0.108897 9.6493e-05 0)
(0.695037 0.00186157 0)
(0.979657 0.00269997 0)
(1.10343 0.00304219 0)
(1.11325 0.00419606 0)
(1.09555 0.00617152 0)
(1.0808 0.00897197 0)
(1.06967 0.0120695 0)
(1.0607 0.0151222 0)
(1.05358 0.0177367 0)
(1.04962 0.0190862 0)
(1.04972 0.0190002 0)
(1.05388 0.0181503 0)
(1.06278 0.0169035 0)
(1.07779 0.0154249 0)
(1.08415 0.0134385 0)
(1.01552 0.00986236 0)
(0.792327 0.00532656 0)
(0.448515 0.00171459 0)
(0.0877697 9.38232e-05 0)
(0.111405 0.000120765 0)
(0.699834 0.00250399 0)
(0.981892 0.00389293 0)
(1.10609 0.0050271 0)
(1.11729 0.00705763 0)
(1.09972 0.00975463 0)
(1.0846 0.0130187 0)
(1.07291 0.0164295 0)
(1.06316 0.0196707 0)
(1.055 0.0222587 0)
(1.04975 0.0232424 0)
(1.04879 0.0225352 0)
(1.0522 0.0209795 0)
(1.06046 0.019238 0)
(1.07466 0.0174677 0)
(1.07875 0.0153534 0)
(1.00502 0.0114776 0)
(0.779131 0.00622848 0)
(0.438602 0.00203085 0)
(0.0850467 0.00011783 0)
(0.114618 0.000152494 0)
(0.706702 0.00341704 0)
(0.985517 0.00545251 0)
(1.11011 0.00683187 0)
(1.12265 0.0091664 0)
(1.10484 0.0124171 0)
(1.08907 0.0164317 0)
(1.07665 0.0205883 0)
(1.06598 0.0246222 0)
(1.05646 0.0278054 0)
(1.04964 0.029 0)
(1.04726 0.0282012 0)
(1.04961 0.0261661 0)
(1.05757 0.0236556 0)
(1.07126 0.0213717 0)
(1.07254 0.0187596 0)
(0.992156 0.0135322 0)
(0.763721 0.00711244 0)
(0.427193 0.00236511 0)
(0.0817793 0.000142969 0)
(0.118827 0.000199269 0)
(0.716533 0.00470127 0)
(0.990333 0.00775704 0)
(1.11419 0.00910221 0)
(1.12835 0.01126 0)
(1.11098 0.0148607 0)
(1.09466 0.0196755 0)
(1.08153 0.0250508 0)
(1.06971 0.0303865 0)
(1.05847 0.0346808 0)
(1.04981 0.0365646 0)
(1.04579 0.0360182 0)
(1.04662 0.0340061 0)
(1.0533 0.0311143 0)
(1.06624 0.0276594 0)
(1.06305 0.022918 0)
(0.975501 0.0155659 0)
(0.746289 0.00807172 0)
(0.414205 0.00276316 0)
(0.0779224 0.000171091 0)
(0.124422 0.000273262 0)
(0.730563 0.00649342 0)
(0.99756 0.0110966 0)
(1.11798 0.0129979 0)
(1.13394 0.0148679 0)
(1.1178 0.0186867 0)
(1.10175 0.0245144 0)
(1.0879 0.0313097 0)
(1.07454 0.0379552 0)
(1.06116 0.0432379 0)
(1.05027 0.04551 0)
(1.04427 0.0448788 0)
(1.04327 0.042468 0)
(1.04803 0.0388459 0)
(1.05767 0.0338188 0)
(1.04837 0.0265739 0)
(0.955552 0.0174439 0)
(0.727178 0.00926643 0)
(0.399308 0.00324982 0)
(0.0733884 0.000200285 0)
(0.131995 0.000384389 0)
(0.750169 0.00890098 0)
(1.00913 0.0155922 0)
(1.12291 0.018971 0)
(1.1396 0.0212101 0)
(1.12574 0.0259169 0)
(1.11041 0.0329218 0)
(1.09555 0.0408566 0)
(1.08014 0.0483359 0)
(1.0641 0.0538927 0)
(1.05048 0.0557074 0)
(1.04214 0.0541365 0)
(1.03887 0.0504798 0)
(1.04079 0.0454589 0)
(1.04539 0.038587 0)
(1.03005 0.0295981 0)
(0.93408 0.0196941 0)
(0.706258 0.0109002 0)
(0.382001 0.00386026 0)
(0.0680959 0.000230386 0)
(0.142289 0.000549245 0)
(0.77661 0.0122312 0)
(1.02689 0.0215251 0)
(1.13174 0.0271363 0)
(1.14719 0.0311923 0)
(1.13556 0.0376733 0)
(1.12038 0.0458559 0)
(1.10392 0.0545098 0)
(1.08586 0.0621421 0)
(1.06653 0.0670296 0)
(1.04965 0.0673724 0)
(1.03846 0.0639238 0)
(1.03249 0.0582805 0)
(1.03091 0.051278 0)
(1.03049 0.0428787 0)
(1.01033 0.0331144 0)
(0.911756 0.0228526 0)
(0.682685 0.0130368 0)
(0.361518 0.00461683 0)
(0.0618698 0.00026708 0)
(0.15657 0.000817986 0)
(0.811764 0.0171486 0)
(1.05271 0.0296 0)
(1.14683 0.0380832 0)
(1.1592 0.0451802 0)
(1.14764 0.0538559 0)
(1.13141 0.0633895 0)
(1.11245 0.0724931 0)
(1.09098 0.0796517 0)
(1.06771 0.0830124 0)
(1.04704 0.0809987 0)
(1.03259 0.0749905 0)
(1.0236 0.0669958 0)
(1.01852 0.0579619 0)
(1.01404 0.0483621 0)
(0.990007 0.0381798 0)
(0.887671 0.0272601 0)
(0.654988 0.01577 0)
(0.337099 0.00550379 0)
(0.0546296 0.000303365 0)
(0.177023 0.00129301 0)
(0.858739 0.0249194 0)
(1.08855 0.0413945 0)
(1.16919 0.0530392 0)
(1.17658 0.0637702 0)
(1.1625 0.0750266 0)
(1.14337 0.0859189 0)
(1.12065 0.0951137 0)
(1.09489 0.101159 0)
(1.06704 0.102235 0)
(1.04215 0.0972252 0)
(1.02421 0.0883127 0)
(1.0121 0.0778293 0)
(1.00392 0.0668982 0)
(0.996246 0.056168 0)
(0.968461 0.0453122 0)
(0.860283 0.0330161 0)
(0.621898 0.0191532 0)
(0.308179 0.00654396 0)
(0.0463155 0.000338273 0)
(0.206976 0.00235706 0)
(0.922964 0.0384185 0)
(1.13637 0.0607883 0)
(1.19927 0.0752475 0)
(1.1992 0.0899428 0)
(1.17986 0.103229 0)
(1.15574 0.114687 0)
(1.12789 0.123068 0)
(1.09696 0.127071 0)
(1.06403 0.125032 0)
(1.03471 0.116487 0)
(1.01323 0.104448 0)
(0.99809 0.0914492 0)
(0.987171 0.0786677 0)
(0.976729 0.0666935 0)
(0.944476 0.0547162 0)
(0.827799 0.0402005 0)
(0.582343 0.0231884 0)
(0.27498 0.00774734 0)
(0.0371992 0.000360923 0)
(0.248152 0.00877678 -9.58714e-21)
(1.00816 0.0658668 -7.22457e-21)
(1.19314 0.0936688 1.86964e-21)
(1.2354 0.110653 0)
(1.22436 0.127528 -1.58153e-35)
(1.19774 0.140895 3.89505e-22)
(1.16716 0.15123 -1.66237e-21)
(1.13323 0.157559 0)
(1.0965 0.158658 5.52133e-35)
(1.05797 0.152954 -4.05212e-21)
(1.02379 0.140652 0)
(0.998386 0.12548 -5.67979e-21)
(0.979947 0.110074 -1.7307e-20)
(0.966139 0.0955964 -8.35366e-21)
(0.95271 0.0825626 -2.61625e-21)
(0.915185 0.0696672 -1.57838e-21)
(0.786213 0.0519662 0)
(0.532582 0.0300977 1.12529e-21)
(0.237451 0.0109323 1.33169e-21)
(0.0289765 0.00100964 2.36648e-20)
(0.275604 0.024694 -2.05645e-20)
(1.078 0.109408 5.0729e-22)
(1.24053 0.141505 -1.09103e-21)
(1.2683 0.159874 0)
(1.24714 0.175341 1.05162e-21)
(1.21331 0.187179 -8.40833e-24)
(1.17605 0.19566 -1.23635e-21)
(1.13573 0.19974 -7.57594e-21)
(1.09273 0.198119 0)
(1.04776 0.189155 1.72375e-20)
(1.00755 0.173526 1.88052e-20)
(0.977026 0.155657 5.99639e-21)
(0.954206 0.138158 2.34545e-20)
(0.936479 0.121946 3.43303e-20)
(0.918351 0.107356 0)
(0.874072 0.0925548 5.06558e-20)
(0.735888 0.0710205 7.3552e-20)
(0.482263 0.0432715 8.19408e-20)
(0.20689 0.0176297 -9.42872e-20)
(0.0229551 0.00198659 -1.74902e-21)
(0.274431 0.0401831 0)
(1.12079 0.166006 -6.62042e-21)
(1.27417 0.201223 0)
(1.29374 0.218877 9.91589e-21)
(1.26499 0.230909 0)
(1.22491 0.239463 3.42222e-21)
(1.18151 0.244739 1.78973e-21)
(1.13514 0.245613 -1.21207e-20)
(1.08618 0.24063 -1.57053e-21)
(1.0352 0.228159 8.45945e-21)
(0.989403 0.209356 4.36872e-20)
(0.954284 0.189174 -3.0638e-22)
(0.927648 0.170126 -1.75939e-20)
(0.906589 0.152896 -3.39257e-20)
(0.885395 0.137363 4.09975e-20)
(0.839265 0.121151 -7.35877e-20)
(0.706604 0.095683 -9.98496e-21)
(0.46805 0.0618093 0)
(0.211408 0.0277795 4.80492e-23)
(0.0261399 0.00367992 0)
(0.266904 0.0537628 -1.68327e-19)
(1.14243 0.225584 6.93713e-20)
(1.29552 0.265878 3.67989e-20)
(1.31046 0.282524 -6.74626e-21)
(1.27647 0.290773 1.01983e-20)
(1.23161 0.295412 -8.89504e-21)
(1.1832 0.296856 2.94981e-21)
(1.13165 0.293968 0)
(1.07737 0.285268 -3.46435e-20)
(1.02097 0.269073 0)
(0.970266 0.247134 -2.24453e-20)
(0.9312 0.22478 -3.10954e-20)
(0.901446 0.204446 -1.97401e-20)
(0.877891 0.186419 -2.52964e-20)
(0.854898 0.170214 0)
(0.809936 0.152967 0)
(0.689205 0.124631 -6.72956e-20)
(0.470979 0.0852739 1.33861e-20)
(0.226057 0.0412861 -7.78945e-21)
(0.0320863 0.00623882 -9.10081e-21)
(0.25897 0.0659074 1.26432e-19)
(1.15069 0.28484 0)
(1.30743 0.331544 -1.04717e-19)
(1.31948 0.347427 -2.59912e-20)
(1.28181 0.352061 -1.86137e-20)
(1.23339 0.352788 0)
(1.18105 0.350337 -4.65903e-22)
(1.12524 0.343571 1.16276e-20)
(1.06647 0.331013 1.56884e-20)
(1.00537 0.31103 4.27194e-20)
(0.950452 0.285906 0)
(0.908191 0.261394 -6.79622e-20)
(0.876044 0.23976 -4.32455e-20)
(0.85064 0.221055 -2.60475e-20)
(0.826613 0.204473 1.69627e-19)
(0.783908 0.186296 2.07883e-20)
(0.675572 0.156125 9.8768e-20)
(0.476463 0.110634 -4.73866e-19)
(0.23987 0.0565183 2.81798e-19)
(0.0375419 0.00925293 -3.39644e-19)
(0.251814 0.0769054 1.34792e-19)
(1.15055 0.341919 -2.49234e-20)
(1.31247 0.396756 1.8692e-20)
(1.32243 0.411811 4.99674e-20)
(1.28206 0.413062 2.96267e-20)
(1.23091 0.410067 1.69735e-21)
(1.17545 0.403877 -7.34771e-23)
(1.11616 0.393335 9.81711e-21)
(1.05361 0.376978 -3.4486e-20)
(0.988528 0.353191 0)
(0.930064 0.324829 -2.93718e-20)
(0.885216 0.298093 -1.55585e-21)
(0.851311 0.275071 -4.84243e-20)
(0.8247 0.255651 0)
(0.800252 0.238698 -3.71004e-20)
(0.760035 0.219921 -9.02022e-20)
(0.661931 0.188079 2.47845e-19)
(0.477493 0.136315 -2.45835e-19)
(0.247624 0.0716264 3.49697e-19)
(0.041147 0.0122195 -3.63602e-19)
(0.246038 0.0871421 -4.13599e-22)
(1.14533 0.396217 3.08665e-20)
(1.31221 0.459871 9.01465e-20)
(1.32063 0.474484 -3.10266e-20)
(1.27829 0.472723 1.70669e-20)
(1.225 0.466323 0)
(1.16702 0.456635 5.93083e-21)
(1.10484 0.442509 -8.68738e-21)
(1.03906 0.422487 -1.62462e-20)
(0.970561 0.394952 0)
(0.909097 0.363275 -2.90174e-20)
(0.862153 0.334135 -4.02002e-20)
(0.826955 0.309502 5.30661e-20)
(0.799676 0.289122 -3.3809e-20)
(0.775351 0.271611 -1.63814e-19)
(0.737532 0.252175 1.00483e-19)
(0.646924 0.218448 3.13898e-20)
(0.472971 0.160084 0)
(0.248435 0.084782 -3.3942e-19)
(0.0423569 0.0146242 -1.24935e-20)
(0.241598 0.0969254 2.23602e-20)
(1.13714 0.447575 -3.57092e-20)
(1.30807 0.520382 -4.94406e-20)
(1.31532 0.534817 -9.51666e-20)
(1.27142 0.530416 8.41639e-20)
(1.21644 0.520962 -4.21606e-20)
(1.15639 0.508057 -1.22933e-20)
(1.09176 0.490592 -1.32264e-20)
(1.02318 0.467094 1.47832e-20)
(0.951629 0.435894 -1.05227e-19)
(0.88756 0.400835 -3.53779e-20)
(0.838901 0.369088 0)
(0.802702 0.342561 5.80749e-20)
(0.775095 0.320822 7.1645e-20)
(0.751136 0.302287 8.80387e-20)
(0.715378 0.281823 -1.09697e-19)
(0.630324 0.245542 -3.29406e-20)
(0.463539 0.180322 3.88954e-20)
(0.244452 0.095259 0)
(0.041924 0.016376 -2.72369e-20)
(0.238311 0.106391 -2.61177e-19)
(1.12744 0.496122 1.64231e-19)
(1.30121 0.578014 5.4577e-20)
(1.30741 0.592478 -7.31198e-20)
(1.26225 0.585786 5.09763e-20)
(1.20591 0.573603 -3.95238e-21)
(1.14414 0.557797 1.13752e-20)
(1.0774 0.537272 -5.3362e-21)
(1.00633 0.51052 -2.916e-20)
(0.932006 0.47579 2.02911e-22)
(0.865486 0.437299 -1.06364e-19)
(0.815336 0.402711 1.02045e-19)
(0.778434 0.374034 -6.50184e-20)
(0.750653 0.350647 8.06514e-20)
(0.727081 0.330775 0)
(0.692909 0.308735 -5.95783e-20)
(0.611678 0.2695 -1.06071e-21)
(0.449896 0.197454 -1.70234e-19)
(0.236311 0.103131 -2.5084e-20)
(0.0401901 0.0174617 0)
(0.235995 0.115655 0)
(1.11705 0.542077 1.78772e-19)
(1.29239 0.632677 1.28018e-19)
(1.29762 0.647326 8.29155e-20)
(1.2514 0.638629 4.84992e-20)
(1.19393 0.624031 0)
(1.13072 0.605629 1.38162e-20)
(1.06214 0.582338 -1.19207e-21)
(0.988822 0.552593 6.22084e-20)
(0.911907 0.514514 -1.31671e-20)
(0.843079 0.472589 -7.7881e-20)
(0.791458 0.434989 5.13317e-20)
(0.753893 0.403805 -1.98896e-21)
(0.72599 0.378439 8.50208e-20)
(0.702829 0.356934 5.53033e-20)
(0.669883 0.332985 -1.296e-19)
(0.591101 0.289967 1.56256e-19)
(0.432785 0.210984 4.65115e-20)
(0.224831 0.108417 1.91906e-19)
(0.0374127 0.0178253 -5.13912e-19)
(0.23458 0.124822 -6.75464e-20)
(1.10655 0.585626 1.03601e-19)
(1.28239 0.684415 -8.05101e-20)
(1.28648 0.699357 -9.68862e-20)
(1.23938 0.688856 0)
(1.18099 0.672123 3.87689e-20)
(1.11654 0.651426 -3.84618e-20)
(1.04634 0.625665 6.98253e-21)
(0.970958 0.593211 0)
(0.891564 0.552009 -2.02001e-19)
(0.820399 0.506696 2.12294e-19)
(0.767191 0.465942 0)
(0.728854 0.432019 7.68666e-20)
(0.700862 0.404329 -1.98636e-21)
(0.678055 0.380846 -1.75051e-19)
(0.645896 0.35454 6.8847e-20)
(0.568492 0.307141 0)
(0.41288 0.221015 2.52052e-19)
(0.210886 0.111263 0)
(0.0339702 0.017633 -2.44564e-19)
(0.233839 0.133954 7.55421e-20)
(1.09628 0.626943 1.18794e-19)
(1.27152 0.733279 -8.43516e-20)
(1.27446 0.74855 0)
(1.22663 0.73645 6.80393e-20)
(1.16746 0.717843 0)
(1.10194 0.695119 5.3509e-20)
(1.03029 0.66718 3.73167e-21)
(0.952989 0.632321 7.59255e-21)
(0.871139 0.588261 -9.98673e-20)
(0.797487 0.539677 2.07862e-20)
(0.742587 0.495677 0)
(0.703357 0.458754 -1.63539e-19)
(0.675152 0.428491 2.04598e-21)
(0.652588 0.40274 0)
(0.620789 0.373648 2.38144e-21)
(0.543774 0.321187 2.29666e-19)
(0.390275 0.227577 -2.19936e-19)
(0.194934 0.111688 6.49218e-20)
(0.0300423 0.0168462 0)
(0.233454 0.142894 0)
(1.08647 0.666099 1.3327e-19)
(1.26014 0.779407 9.94118e-20)
(1.26192 0.794959 -2.24695e-21)
(1.21345 0.781437 4.32337e-20)
(1.15363 0.761185 9.15663e-20)
(1.0872 0.736691 -1.66987e-20)
(1.01424 0.706856 -1.18038e-21)
(0.935122 0.669893 4.10521e-20)
(0.850814 0.623287 -1.56557e-19)
(0.774571 0.571635 -3.24724e-21)
(0.717697 0.524348 -6.74547e-20)
(0.677348 0.484243 2.67671e-19)
(0.648775 0.451136 -2.42535e-21)
(0.626322 0.422786 -1.37569e-19)
(0.594458 0.390393 -2.50867e-19)
(0.517019 0.332166 0)
(0.365267 0.230823 0)
(0.177256 0.109656 7.08774e-20)
(0.0258219 0.015503 -4.15137e-20)
(0.233637 0.151778 9.44447e-20)
(1.07711 0.703003 -2.92657e-19)
(1.24851 0.822902 -1.06571e-19)
(1.24913 0.838662 0)
(1.20011 0.823874 -1.54362e-21)
(1.13975 0.802179 1.11455e-19)
(1.07254 0.776149 -5.90678e-20)
(0.998402 0.744686 -1.50556e-20)
(0.917569 0.705938 4.58262e-20)
(0.83083 0.657134 -1.21965e-19)
(0.751803 0.602672 -1.80231e-19)
(0.692611 0.552149 1.7995e-19)
(0.650791 0.508673 0)
(0.621665 0.472416 -6.19132e-20)
(0.599176 0.441111 -1.50708e-19)
(0.566846 0.404838 -1.81433e-19)
(0.488196 0.339956 -2.19218e-19)
(0.338018 0.230629 6.53218e-20)
(0.158016 0.105079 -3.83275e-20)
(0.0212773 0.0136035 3.64137e-22)
(0.233814 0.160521 0)
(1.0684 0.738033 0)
(1.23682 0.863828 2.55891e-21)
(1.23628 0.879752 0)
(1.1868 0.863842 -1.6349e-19)
(1.12601 0.840882 -9.94384e-20)
(1.05814 0.813523 0)
(0.98295 0.780688 -5.49396e-21)
(0.90052 0.740462 6.45305e-20)
(0.811358 0.689833 -2.80401e-19)
(0.729328 0.632895 0)
(0.667447 0.57927 -1.15399e-19)
(0.623756 0.532303 -2.96891e-21)
(0.593753 0.492546 -2.44009e-21)
(0.571049 0.457816 1.60762e-19)
(0.53788 0.416928 -4.22354e-22)
(0.457356 0.344476 -4.752e-19)
(0.308517 0.226808 1.41786e-19)
(0.137525 0.0980545 4.20133e-20)
(0.0166118 0.0112843 0)
(0.234005 0.169029 -3.48561e-19)
(1.06006 0.771336 -1.80352e-19)
(1.22518 0.902291 -2.68422e-19)
(1.22354 0.918329 3.71017e-19)
(1.17368 0.901408 -3.0761e-19)
(1.11255 0.877351 0)
(1.04413 0.848856 -5.20964e-20)
(0.968023 0.814884 9.6356e-21)
(0.884102 0.773479 3.7848e-21)
(0.792543 0.721408 2.18941e-20)
(0.707341 0.662397 2.27244e-19)
(0.642364 0.605912 -3.96134e-20)
(0.596278 0.555391 -1.6516e-19)
(0.564946 0.511738 -7.33165e-20)
(0.541786 0.472942 8.91884e-20)
(0.507481 0.426501 -3.0464e-22)
(0.424717 0.345479 1.29736e-19)
(0.277172 0.219282 -3.06993e-19)
(0.116464 0.0888898 3.64452e-19)
(0.0120344 0.00867577 5.29129e-20)
(0.234071 0.177221 1.28309e-19)
(1.0521 0.802967 -9.89078e-20)
(1.21371 0.938414 6.04424e-21)
(1.21102 0.954516 2.10318e-19)
(1.16086 0.936677 7.23451e-20)
(1.09947 0.911656 1.99246e-19)
(1.03062 0.882196 -2.38301e-20)
(0.953716 0.847293 4.84142e-20)
(0.868422 0.804986 -5.06272e-20)
(0.774533 0.751864 -1.55956e-19)
(0.686028 0.691246 0)
(0.61755 0.632253 -1.77763e-19)
(0.568456 0.578233 2.39587e-19)
(0.53512 0.530305 0)
(0.511091 0.486529 -1.90865e-19)
(0.475448 0.433177 1.17501e-19)
(0.390442 0.342417 -1.40024e-19)
(0.245031 0.208011 -1.67168e-19)
(0.0957834 0.0780717 -2.95671e-19)
(0.00779259 0.00596569 -2.30616e-19)
(0.234369 0.185188 -1.41239e-19)
(1.04435 0.832907 1.05745e-19)
(1.20248 0.972276 2.51509e-19)
(1.19879 0.988401 2.89618e-19)
(1.14843 0.969738 -1.51196e-19)
(1.08686 0.943878 1.38286e-19)
(1.01768 0.913592 -7.37604e-20)
(0.940101 0.877959 6.3093e-20)
(0.853562 0.835006 -2.43258e-20)
(0.75745 0.781211 1.52168e-19)
(0.665554 0.719484 4.86017e-19)
(0.59321 0.658432 0)
(0.540443 0.601149 0)
(0.50415 0.548689 -8.47783e-20)
(0.478445 0.49871 0)
(0.441232 0.436282 2.5518e-19)
(0.354712 0.334151 3.04689e-19)
(0.213471 0.19254 0)
(0.0768937 0.0660963 0)
(0.00417339 0.00342957 2.49956e-19)
(0.234336 0.192681 1.56131e-19)
(1.03686 0.861163 1.27318e-19)
(1.19154 1.004 1.80876e-19)
(1.18693 1.02011 -2.59187e-19)
(1.13643 1.00069 -1.69014e-19)
(1.07476 0.974093 -1.84325e-19)
(1.00536 0.943107 1.09799e-19)
(0.927231 0.906911 2.87988e-22)
(0.83959 0.863545 -4.87631e-21)
(0.741374 0.809435 -5.82346e-21)
(0.64609 0.74712 2.47081e-19)
(0.56958 0.684537 0)
(0.512489 0.62442 2.42339e-19)
(0.472015 0.567459 1.79285e-19)
(0.443098 0.509951 4.5375e-19)
(0.403558 0.435156 1.3777e-19)
(0.317245 0.318465 -1.66884e-19)
(0.185102 0.170851 -9.77811e-20)
(0.0640509 0.0529745 0)
(0.00253345 0.00169002 2.70591e-19)
(0.234538 0.200112 -3.43682e-19)
(1.02959 0.887839 0)
(1.1809 1.03364 2.02561e-19)
(1.17545 1.04972 -2.12612e-19)
(1.12491 1.02963 1.91995e-19)
(1.06321 1.00238 2.70507e-19)
(0.993698 0.9708 -2.56805e-19)
(0.915132 0.934187 1.42884e-21)
(0.826531 0.890612 0)
(0.726372 0.836498 -1.48077e-19)
(0.627783 0.774125 -5.16989e-19)
(0.5469 0.71061 2.45786e-20)
(0.48496 0.648256 3.30708e-19)
(0.438912 0.587296 0)
(0.404277 0.521243 3.06946e-19)
(0.360116 0.430045 0)
(0.274981 0.292236 0)
(0.161499 0.134016 -1.08041e-19)
(0.074034 0.0276363 0)
(0.0255507 0.0104503 7.29107e-20)
(0.234375 0.206913 -3.76539e-19)
(1.02252 0.913254 0)
(1.17055 1.06142 3.2831e-19)
(1.16434 1.07747 0)
(1.11384 1.0568 -1.04463e-19)
(1.05215 1.02903 0)
(0.982621 0.996976 -1.95272e-20)
(0.903706 0.960122 -1.15021e-20)
(0.81427 0.916566 2.02852e-21)
(0.712302 0.862788 -1.49763e-19)
(0.610501 0.800917 1.38851e-20)
(0.525055 0.737206 2.02575e-19)
(0.457693 0.67323 3.20818e-19)
(0.404504 0.609256 4.54889e-20)
(0.360587 0.534531 2.41068e-19)
(0.307023 0.4235 0)
(0.216235 0.256377 3.62178e-19)
(0.113627 0.0709757 -2.12916e-19)
(0.048354 0.0487068 2.44837e-19)
(-0.0674195 0.411692 -2.86679e-19)
(0.234205 0.21346 3.07225e-19)
(1.01542 0.937263 4.85409e-19)
(1.16041 1.08765 0)
(1.15346 1.10377 5.02892e-21)
(1.10305 1.08277 2.84372e-19)
(1.04134 1.05469 -5.26179e-19)
(0.971844 1.02241 -1.14369e-19)
(0.892579 0.985634 0)
(0.802324 0.942478 -8.06033e-21)
(0.698552 0.889585 -5.37221e-21)
(0.593409 0.828948 0)
(0.503004 0.766085 0)
(0.429466 0.701172 2.82692e-19)
(0.367649 0.635276 -1.42255e-19)
(0.309611 0.55344 -2.41969e-19)
(0.239549 0.422069 0)
(0.123402 0.236343 1.84918e-19)
(0.0151843 0.428116 -2.13935e-19)
(0.0420456 1.82872 -1.11826e-19)
(0.0734824 2.77928 -1.45485e-19)
(0.233886 0.219151 -2.25147e-19)
(1.00852 0.960003 -6.13214e-19)
(1.15048 1.11231 1.89613e-19)
(1.14281 1.12847 1.81409e-19)
(1.09257 1.10731 0)
(1.03081 1.07909 -3.77467e-19)
(0.961543 1.0468 -1.93016e-19)
(0.881916 1.0103 8.06544e-21)
(0.79093 0.967834 -7.60891e-22)
(0.685469 0.916269 1.21802e-19)
(0.577076 0.85751 2.36037e-19)
(0.481693 0.796709 2.11644e-19)
(0.401466 0.731688 2.78879e-19)
(0.33067 0.663653 -3.26404e-19)
(0.257575 0.580709 -3.60044e-19)
(0.161338 0.4483 0)
(0.0630207 0.810661 0)
(0.12014 2.50599 9.63666e-20)
(0.122425 3.17684 0)
(0.124959 3.37867 2.21374e-19)
(0.236025 0.224447 0)
(1.00236 0.981615 0)
(1.14054 1.13528 0)
(1.13216 1.15137 5.06864e-20)
(1.08211 1.1302 2.54121e-19)
(1.02037 1.10209 -2.8902e-19)
(0.951611 1.07005 -1.38671e-19)
(0.871672 1.03402 9.34543e-21)
(0.780053 0.992502 -4.05646e-20)
(0.673077 0.942696 -1.01214e-20)
(0.561645 0.886474 4.3396e-19)
(0.461462 0.828842 -2.48228e-20)
(0.374229 0.765494 3.1785e-20)
(0.295557 0.691394 4.66548e-20)
(0.204295 0.61628 4.44768e-22)
(0.125637 0.927077 1.81658e-21)
(0.164573 2.64696 -4.92974e-19)
(0.180321 3.27651 -1.84492e-19)
(0.165136 3.42458 8.66872e-20)
(0.148244 3.44955 -9.06137e-20)
(0.153683 0.18128 1.28905e-19)
(0.990345 1.00501 0)
(1.13036 1.15673 -3.69524e-19)
(1.12221 1.173 -4.67077e-19)
(1.07241 1.15222 5.31459e-19)
(1.01089 1.12432 3.07328e-19)
(0.941948 1.09225 1.62817e-19)
(0.86194 1.0569 -1.67725e-19)
(0.769872 1.01659 4.95707e-20)
(0.661708 0.968911 0)
(0.547611 0.915829 1.92292e-19)
(0.443009 0.862089 -1.60377e-19)
(0.348658 0.804688 0)
(0.263837 0.721812 4.13258e-20)
(0.182263 0.826863 9.87434e-20)
(0.17923 2.36345 -1.22116e-19)
(0.251108 3.31308 1.36111e-19)
(0.226948 3.4432 6.65487e-20)
(0.18886 3.46725 7.50204e-20)
(0.163415 3.47864 9.79438e-20)
(0.278058 0.261306 -2.39637e-19)
(0.974228 1.01322 0)
(1.11172 1.18056 3.8237e-19)
(1.10816 1.20478 4.88698e-19)
(1.05672 1.18445 -5.48402e-19)
(0.994848 1.15707 -3.28591e-19)
(0.925239 1.12639 -2.53744e-19)
(0.844817 1.0922 -1.2359e-20)
(0.751747 1.05401 -8.04443e-20)
(0.641398 1.01015 4.02959e-20)
(0.523115 0.963411 8.12592e-21)
(0.411724 0.917639 1.26637e-19)
(0.30313 0.872904 2.65097e-20)
(0.233951 0.976521 -3.76211e-20)
(0.256267 2.22001 -8.83615e-20)
(0.326802 3.31553 6.66429e-20)
(0.312767 3.47977 -6.27038e-20)
(0.273046 3.50387 -3.5211e-20)
(0.232553 3.53288 -3.33034e-21)
(0.17532 3.52526 -1.34507e-21)
(0.265306 0.257568 0)
(0.971212 1.03464 1.01093e-19)
(1.10371 1.20305 -7.59578e-20)
(1.09837 1.22726 -5.47197e-20)
(1.04696 1.2069 -3.61232e-19)
(0.985221 1.17974 3.21365e-19)
(0.915383 1.14921 1.71594e-19)
(0.834996 1.11579 -1.31337e-20)
(0.741789 1.07906 1.03308e-19)
(0.630805 1.038 -1.43204e-20)
(0.510876 0.996015 -2.66788e-19)
(0.396803 0.956635 1.80122e-20)
(0.291051 0.936201 -2.32657e-20)
(0.275344 1.41194 -3.15691e-20)
(0.363178 3.03466 1.8255e-20)
(0.395452 3.47298 9.17919e-22)
(0.349681 3.54259 8.21293e-22)
(0.309603 3.56791 -3.01065e-20)
(0.25628 3.59282 6.65089e-20)
(0.190621 3.58793 2.2711e-20)
(0.248441 0.255372 2.48493e-19)
(0.966434 1.05856 6.81917e-19)
(1.09513 1.22748 -2.17284e-19)
(1.08808 1.25114 -2.07938e-19)
(1.03671 1.2306 0)
(0.975175 1.20345 4.73011e-19)
(0.90541 1.17314 2.63185e-19)
(0.825342 1.14046 -1.39967e-20)
(0.732321 1.10524 1.05629e-20)
(0.621207 1.06711 2.71517e-20)
(0.500385 1.03011 -9.19455e-20)
(0.38546 0.998024 -1.26448e-19)
(0.295795 1.05158 -1.55757e-19)
(0.348799 2.04078 1.70713e-19)
(0.456552 3.36134 9.79632e-20)
(0.446016 3.54167 0)
(0.393165 3.59023 0)
(0.354074 3.63568 6.32014e-20)
(0.290089 3.70417 0)
(0.203372 3.67285 1.39059e-19)
(0.236999 0.256354 -3.63779e-19)
(0.959681 1.08339 -5.68364e-19)
(1.08511 1.25299 0)
(1.07654 1.27581 5.87876e-21)
(1.02528 1.25485 -3.53404e-19)
(0.964061 1.22757 7.04817e-19)
(0.894708 1.19748 1.77844e-19)
(0.815173 1.16543 -1.79988e-20)
(0.722595 1.13161 1.23865e-19)
(0.611762 1.09635 -5.24175e-21)
(0.49084 1.06444 0)
(0.377269 1.04181 0)