/*--------------------------------*- C++ -*----------------------------------*\
| =========                 |                                                 |
| \\      /  F ield         | OpenFOAM: The Open Source CFD Toolbox           |
|  \\    /   O peration     | Version:  2112                                  |
|   \\  /    A nd           | Website:  www.openfoam.com                      |
|    \\/     M anipulation  |                                                 |
\*---------------------------------------------------------------------------*/
FoamFile
{
    version     2.0;
    format      ascii;
    arch        "LSB;label=32;scalar=64";
    class       volScalarField;
    location    "4.5";
    object      Ma;
}
// * * * * * * * * * * * * * * * * * * * * * * * * * * * * * * * * * * * * * //

dimensions      [0 0 0 0 0 0 0];

internalField   nonuniform List<scalar> 
5250
(
2.99999
2.99997
2.99989
2.99977
2.99929
2.9986
2.99595
2.99163
2.9772
2.94601
2.86618
2.64684
2.22541
1.29289
0.554636
0.238314
0.311068
0.329957
0.292995
0.236011
0.186579
0.147453
0.108385
0.0666722
0.0360041
2.99999
2.99997
2.99989
2.99977
2.9993
2.99862
2.99601
2.99178
2.97756
2.94711
2.8686
2.65363
2.23872
1.31457
0.566237
0.241221
0.314715
0.3346
0.298183
0.242288
0.193877
0.155737
0.11834
0.0806738
0.057172
2.99999
2.99997
2.99989
2.99978
2.99932
2.99867
2.99612
2.99208
2.97828
2.94941
2.8736
2.66813
2.26773
1.36404
0.593953
0.252106
0.325627
0.347427
0.312152
0.258394
0.211789
0.17574
0.141812
0.110256
0.0925661
2.99999
2.99997
2.9999
2.99979
2.99935
2.99873
2.99628
2.9925
2.9793
2.95271
2.88081
2.68931
2.31075
1.44077
0.636267
0.272945
0.34495
0.369283
0.335584
0.284327
0.239413
0.205298
0.174508
0.147335
0.132219
2.99999
2.99998
2.9999
2.9998
2.99939
2.99881
2.99649
2.99301
2.98055
2.95667
2.88949
2.71505
2.36415
1.53945
0.693146
0.308617
0.375021
0.400163
0.368042
0.319298
0.275538
0.242989
0.214416
0.18986
0.175947
2.99999
2.99998
2.99991
2.99981
2.99943
2.99889
2.99671
2.99352
2.98177
2.9606
2.89762
2.74148
2.41597
1.66418
0.752148
0.34115
0.403576
0.42942
0.401182
0.357617
0.31675
0.286624
0.261088
0.239322
0.226723
3
2.99998
2.99992
2.99983
2.99947
2.99897
2.99693
2.99399
2.98289
2.96385
2.90448
2.76468
2.45785
1.75012
0.818033
0.377729
0.427407
0.449551
0.429221
0.394532
0.360033
0.33448
0.313752
0.296781
0.288428
3
2.99998
2.99992
2.99984
2.99951
2.99904
2.99715
2.99444
2.98393
2.96689
2.91079
2.78705
2.49592
1.8273
0.905216
0.432838
0.448174
0.462069
0.455721
0.430857
0.404466
0.386062
0.373247
0.36467
0.366479
3
2.99998
2.99993
2.99986
2.99955
2.99913
2.99741
2.99496
2.98532
2.97005
2.91847
2.80788
2.54001
1.91356
1.00863
0.495481
0.462271
0.477954
0.482363
0.467048
0.450482
0.441151
0.438947
0.445922
0.47325
3
2.99999
2.99994
2.99988
2.99962
2.99924
2.99778
2.99557
2.98748
2.97336
2.92885
2.82536
2.58974
1.9933
1.1132
0.564048
0.476628
0.496274
0.509977
0.5042
0.49829
0.49942
0.513824
0.551914
0.648059
3
2.99999
2.99997
2.99988
2.99975
2.99931
2.9985
2.99604
2.99047
2.97631
2.93922
2.85683
2.6089
2.15379
1.21153
0.645961
0.491578
0.51551
0.537829
0.541732
0.54497
0.55942
0.597049
0.678962
0.854887
3
2.99999
2.99996
2.99991
2.99971
2.99943
2.99833
2.99663
2.99064
2.97958
2.94659
2.86734
2.68861
2.20727
1.41575
0.741201
0.519448
0.543186
0.568853
0.579295
0.591749
0.618774
0.674731
0.77874
0.967547
3
2.99999
2.99996
2.99992
2.99974
2.9995
2.9985
2.99709
2.99142
2.9829
2.95219
2.89444
2.73465
2.35831
1.62184
0.849765
0.566346
0.584979
0.605378
0.61941
0.637212
0.674746
0.739537
0.843686
1.00593
3
3
2.99997
2.99993
2.99979
2.99958
2.99874
2.99756
2.99284
2.98582
2.96007
2.91414
2.77908
2.47956
1.82414
0.963092
0.62666
0.630061
0.645331
0.662536
0.683072
0.722248
0.789909
0.884241
1.02028
3
3
2.99998
2.99995
2.99983
2.99966
2.99899
2.99805
2.99432
2.98862
2.96875
2.92902
2.82458
2.55269
2.02865
1.09428
0.701288
0.663442
0.680405
0.700627
0.724978
0.763792
0.827434
0.914634
1.02892
3
3
2.99998
2.99996
2.99987
2.99973
2.9992
2.99845
2.99553
2.9909
2.97528
2.94268
2.85813
2.6313
2.19945
1.29683
0.811032
0.693554
0.708015
0.729598
0.76064
0.798916
0.856304
0.935497
1.03592
3.00001
3
2.99999
2.99997
2.99989
2.99979
2.99936
2.99876
2.99635
2.99279
2.97995
2.95594
2.88755
2.71274
2.36199
1.55143
0.952716
0.740962
0.739988
0.758944
0.79197
0.832657
0.883749
0.95338
1.04169
3.00001
3
2.99999
2.99998
2.99992
2.99984
2.99951
2.99904
2.99717
2.99448
2.98421
2.96737
2.91359
2.79273
2.52171
1.90133
1.12721
0.818008
0.788551
0.798716
0.824843
0.862812
0.910877
0.97174
1.04789
3.00001
3
3
2.99999
2.99994
2.99988
2.99963
2.99928
2.99789
2.99584
2.98831
2.97533
2.93474
2.84125
2.63087
2.09228
1.30511
0.900193
0.830619
0.839026
0.860068
0.893291
0.936562
0.990901
1.0571
3.00001
3
3
2.99999
2.99997
2.99989
2.99979
2.99937
2.99875
2.99654
2.99255
2.98055
2.95276
2.8857
2.70023
2.34138
1.54614
1.0297
0.874076
0.872452
0.89069
0.922239
0.96144
1.0091
1.06702
3.00001
3.00001
3
2.99999
2.99998
2.99992
2.99984
2.99951
2.99904
2.9972
2.99452
2.98434
2.96773
2.91502
2.80033
2.52809
1.94746
1.21221
0.942808
0.916833
0.926783
0.954002
0.991471
1.03223
1.0803
3.00001
3.00001
3
3
2.99998
2.99996
2.99986
2.99972
2.99918
2.99836
2.99537
2.99045
2.97442
2.94093
2.85568
2.63838
2.18679
1.41459
1.02905
0.952962
0.959316
0.981607
1.01648
1.05529
1.09845
3.00001
3.00001
3
3
2.99999
2.99996
2.99992
2.99975
2.9995
2.99854
2.99711
2.99179
2.98317
2.95472
2.89602
2.74768
2.38999
1.6984
1.17043
1.00665
0.996183
1.00945
1.03686
1.07406
1.11509
3.00001
3.00001
3.00001
3
2.99999
2.99998
2.99993
2.99986
2.99958
2.99917
2.99761
2.99527
2.98679
2.97234
2.92753
2.82757
2.60076
2.07322
1.36604
1.08467
1.03941
1.04476
1.06404
1.09413
1.13122
3.00001
3.00001
3.00001
3
3
2.99999
2.99995
2.9999
2.9997
2.99942
2.99831
2.99672
2.99065
2.98108
2.94928
2.88215
2.72238
2.31396
1.63709
1.19751
1.08048
1.07608
1.08886
1.11559
1.15016
3.00001
3.00001
3.00001
3.00001
3
2.99999
2.99997
2.99994
2.9998
2.99961
2.99886
2.99777
2.99361
2.98728
2.96501
2.9253
2.80923
2.56798
1.99634
1.38376
1.1449
1.10966
1.11487
1.13571
1.166
3.00001
3.00001
3.00001
3.00001
3
3
2.99999
2.99995
2.9999
2.99969
2.99939
2.99826
2.99654
2.99053
2.97985
2.94805
2.87447
2.71119
2.27983
1.61188
1.24044
1.15215
1.14579
1.15674
1.17996
3.00001
3.00001
3.00001
3.00001
3.00001
3
2.99999
2.99997
2.99993
2.99979
2.99959
2.9988
2.99767
2.99329
2.98679
2.96359
2.92258
2.80504
2.55207
1.98977
1.40319
1.20251
1.17737
1.18201
1.20114
3.00001
3.00001
3.00001
3.00001
3.00001
3
3
2.99998
2.99996
2.99987
2.99973
2.99922
2.99849
2.99567
2.99146
2.97634
2.95014
2.87386
2.70249
2.31741
1.64864
1.29724
1.21301
1.20764
1.21889
3.00001
3.00001
3.00001
3.00001
3.00001
3.00001
3
2.99999
2.99997
2.99993
2.9998
2.9996
2.99884
2.99772
2.99361
2.98707
2.96538
2.92453
2.81261
2.57003
2.0243
1.46978
1.26714
1.23924
1.2419
3.00001
3.00001
3.00001
3.00001
3.00001
3.00001
3
3
2.99998
2.99996
2.99987
2.99974
2.99925
2.99855
2.99584
2.99188
2.97736
2.95309
2.88056
2.7211
2.36342
1.70819
1.36652
1.27559
1.26687
3.00001
3.00001
3.00001
3.00001
3.00001
3.00001
3
3
2.99999
2.99998
2.99992
2.99985
2.99955
2.99911
2.99748
2.99505
2.98631
2.97195
2.92699
2.83807
2.60933
2.14873
1.5562
1.3385
1.30426
3.00001
3.00001
3.00001
3.00001
3.00001
3.00001
3.00001
3
3
2.99999
2.99996
2.99989
2.99977
2.99934
2.9987
2.99636
2.99272
2.98019
2.95803
2.89464
2.75314
2.42831
1.83207
1.44832
1.34074
3.00001
3.00001
3.00001
3.00001
3.00001
3.00001
3.00001
3.00001
3
3
2.99998
2.99995
2.99983
2.99967
2.99906
2.99813
2.99484
2.98952
2.97214
2.9403
2.84857
2.66573
2.19479
1.65514
1.41264
3.00001
3.00001
3.00001
3.00001
3.00001
3.00001
3.00001
3.00001
3
3
2.99999
2.99997
2.9999
2.9998
2.99942
2.99888
2.9968
2.9938
2.9827
2.96494
2.90953
2.79372
2.52715
1.97176
1.55969
3.00001
3.00001
3.00001
3.00001
3.00001
3.00001
3.00001
3.00001
3.00001
3
3
2.99999
2.99994
2.99989
2.99966
2.99934
2.99813
2.99638
2.98983
2.9798
2.94644
2.8808
2.72316
2.33979
1.77955
3.00001
3.00001
3.00001
3.00001
3.00001
3.00001
3.00001
3.00001
3.00001
3
3
2.99999
2.99998
2.99992
2.99984
2.99955
2.99912
2.99755
2.99515
2.9869
2.97272
2.93097
2.83833
2.64023
2.16813
3.00001
3.00001
3.00001
3.00001
3.00001
3.00001
3.00001
3.00001
3.00001
3.00001
3
3
2.99999
2.99996
2.99991
2.99974
2.99949
2.99854
2.99717
2.99214
2.98425
2.95867
2.90649
2.78329
2.47015
3.00001
3.00001
3.00001
3.00001
3.00001
3.00001
3.00001
3.00001
3.00001
3.00001
3.00001
3
3
2.99998
2.99994
2.99988
2.99965
2.99931
2.99809
2.99623
2.98968
2.9789
2.94566
2.87647
2.71481
3.00001
3.00001
3.00001
3.00001
3.00001
3.00001
3.00001
3.00001
3.00001
3.00001
3.00001
3.00001
3
2.99999
2.99997
2.99993
2.9998
2.99961
2.9989
2.99787
2.99406
2.98834
2.96883
2.9341
2.84063
3.00001
3.00001
3.00001
3.00001
3.00001
3.00001
3.00001
3.00001
3.00001
3.00001
3.00001
3.00001
3
3
2.99999
2.99997
2.99989
2.99978
2.99938
2.9988
2.99666
2.99341
2.98233
2.963
2.90797
3.00001
3.00001
3.00001
3.00001
3.00001
3.00001
3.00001
3.00001
3.00001
3.00001
3.00001
3.00001
3.00001
3
3
2.99998
2.99995
2.99986
2.99971
2.99919
2.99841
2.99566
2.99123
2.97693
2.95121
3.00001
3.00001
3.00001
3.00001
3.00001
3.00001
3.00001
3.00001
3.00001
3.00001
3.00001
3.00001
3.00001
3
3
2.99999
2.99998
2.99992
2.99983
2.99952
2.99907
2.99742
2.99496
2.98636
2.97222
3.00001
3.00001
3.00001
3.00001
3.00001
3.00001
3.00001
3.00001
3.00001
3.00001
3.00001
3.00001
3.00001
3.00001
3
3
2.99999
2.99995
2.99989
2.99969
2.99939
2.99826
2.99661
2.99053
2.98114
3.00001
3.00001
3.00001
3.00001
3.00001
3.00001
3.00001
3.00001
3.00001
3.00001
3.00001
3.00001
3.00001
3.00001
3
3
2.99999
2.99997
2.9999
2.9998
2.99941
2.99885
2.99671
2.99351
2.98191
3.00001
3.00001
3.00001
3.00001
3.00001
3.00001
3.00001
3.00001
3.00001
3.00001
3.00001
3.00001
3.00001
3.00001
3
3
2.99999
2.99998
2.99991
2.99983
2.99947
2.99898
2.99698
2.99413
2.98311
3.00001
3.00001
3.00001
3.00001
3.00001
3.00001
3.00001
3.00001
3.00001
3.00001
3.00001
3.00001
3.00001
3.00001
3
3
2.99999
2.99998
2.99992
2.99984
2.99951
2.99905
2.99721
2.99444
2.98433
3.00001
3.00001
3.00001
3.00001
3.00001
3.00001
3.00001
3.00001
3.00001
3.00001
3.00001
3.00001
3.00001
3.00001
3.00001
3
3
2.99997
2.99994
2.99982
2.99963
2.99893
2.99781
2.99398
2.98649
3.00001
3.00001
3.00001
3.00001
3.00001
3.00001
3.00001
3.00001
3.00001
3.00001
3.00001
3.00001
3.00001
3.00001
3.00001
3
2.99999
2.99998
2.99992
2.99984
2.99953
2.99907
2.99727
2.99455
2.98461
3.00001
3.00001
3.00001
3.00001
3.00001
3.00001
3.00001
3.00001
3.00001
3.00001
3.00001
3.00001
3.00001
3.00001
3
3
2.99999
2.99998
2.99992
2.99984
2.99952
2.99906
2.9972
2.99453
2.98415
1.09451
1.28557
1.33355
1.27107
1.16906
1.00315
0.785505
0.567315
0.362501
0.175237
0.0912745
0.111238
0.212372
0.292266
0.36471
0.424438
0.461889
0.48452
0.504981
0.527308
0.550823
0.574028
0.595318
0.616054
0.636303
0.650807
0.658759
0.662542
0.658825
0.641697
0.610065
0.566804
0.515038
0.458554
0.400722
0.344218
0.29035
0.23984
0.190352
0.144399
0.101177
0.060859
0.0304496
0.034126
0.0646111
0.0986383
0.130935
0.161491
0.190006
0.216803
0.244903
0.273115
0.300281
0.325803
0.35083
0.374719
0.398411
0.421032
0.443597
0.465103
0.486622
0.507174
0.527779
0.547489
0.567279
0.586222
0.605267
0.623483
0.641855
0.659405
0.677185
0.694169
0.711467
0.727971
0.744827
0.760858
0.777265
0.792811
0.808757
0.823805
0.83928
0.85382
0.868809
0.882838
0.897332
0.910833
0.924815
0.937758
0.951183
0.96352
0.976298
0.987919
0.999898
1.01059
1.02143
1.03069
1.03965
1.04636
1.05131
1.05631
1.138
1.25618
1.31877
1.34452
1.3501
1.33227
1.25756
1.04902
0.756496
0.550459
0.42248
0.337147
0.258824
0.187579
0.127132
0.074227
0.0838437
0.145213
0.209703
0.266438
0.312759
0.348709
0.376672
0.400253
0.422283
0.439139
0.446783
0.448575
0.442588
0.422379
0.387417
0.341268
0.289037
0.233808
0.180466
0.131805
0.0895083
0.06436
0.0634899
0.0876843
0.120073
0.152615
0.184165
0.213458
0.243032
0.27235
0.300969
0.32843
0.354392
0.378664
0.403476
0.42877
0.453434
0.476569
0.499164
0.520868
0.542353
0.563045
0.583567
0.603339
0.623003
0.64194
0.660823
0.679
0.697198
0.714691
0.732269
0.749125
0.766123
0.782422
0.798931
0.814766
0.830818
0.846177
0.861784
0.876671
0.89186
0.906291
0.921052
0.935047
0.94936
0.962925
0.976785
0.98991
1.00332
1.01599
1.02894
1.04112
1.05358
1.06522
1.07711
1.08809
1.09928
1.10941
1.1196
1.12843
1.13688
1.14341
1.14796
1.15306
1.13941
1.2457
1.34204
1.42646
1.49391
1.50962
1.4774
1.36335
1.11399
0.852203
0.707099
0.632502
0.561818
0.491783
0.430175
0.367154
0.301028
0.238959
0.180556
0.127295
0.0833849
0.062147
0.081629
0.116511
0.152655
0.18775
0.208626
0.213193
0.203654
0.181932
0.14954
0.118558
0.0992623
0.099737
0.120524
0.151617
0.184743
0.217877
0.247901
0.27834
0.308168
0.336942
0.36447
0.390562
0.416041
0.441026
0.465534
0.489247
0.511823
0.532822
0.553846
0.575544
0.597198
0.617638
0.637351
0.656503
0.675296
0.693649
0.711672
0.729256
0.746606
0.763506
0.78029
0.796598
0.81285
0.828628
0.844368
0.859671
0.874951
0.889816
0.90468
0.919122
0.933615
0.94765
0.961798
0.975459
0.989265
1.00258
1.01603
1.02901
1.04208
1.05468
1.06738
1.07958
1.09189
1.10368
1.11557
1.1269
1.13835
1.14915
1.1601
1.17028
1.18063
1.19001
1.19947
1.20766
1.21553
1.22153
1.22554
1.23069
1.14587
1.25443
1.35173
1.44072
1.51315
1.55396
1.55084
1.50879
1.38393
1.14525
0.955233
0.863261
0.79621
0.741107
0.687694
0.628088
0.570419
0.51645
0.461366
0.408907
0.358864
0.310121
0.26278
0.217834
0.1752
0.135435
0.0988401
0.0771696
0.0666253
0.0958552
0.147452
0.198533
0.246106
0.286784
0.323554
0.356181
0.386535
0.413877
0.439236
0.463367
0.486852
0.509449
0.531265
0.552131
0.572669
0.592779
0.612797
0.632278
0.651091
0.668517
0.685704
0.703427
0.721836
0.739366
0.756433
0.772901
0.789301
0.805232
0.821152
0.836584
0.852038
0.86701
0.882038
0.896589
0.911245
0.925452
0.939805
0.953742
0.967806
0.981462
0.995217
1.00854
1.02199
1.03498
1.04814
1.06083
1.07372
1.08613
1.09873
1.11088
1.12317
1.13503
1.14698
1.15847
1.17008
1.18116
1.19245
1.20312
1.21407
1.22423
1.2347
1.24418
1.25397
1.26254
1.27129
1.27861
1.28559
1.29058
1.2939
1.29883
1.1457
1.2526
1.34694
1.43348
1.5079
1.56806
1.59279
1.57908
1.53038
1.38956
1.1798
1.05435
0.987109
0.929713
0.881783
0.838536
0.793217
0.743228
0.695617
0.651972
0.606899
0.560432
0.51682
0.474608
0.432727
0.393778
0.361025
0.338654
0.328311
0.341823
0.375904
0.419345
0.462512
0.501155
0.532155
0.557668
0.578966
0.597815
0.615169
0.631676
0.647831
0.663683
0.679239
0.694521
0.709646
0.724769
0.739876
0.755032
0.769874
0.783912
0.797537
0.811643
0.82668
0.841689
0.856206
0.87026
0.884159
0.897852
0.911567
0.925048
0.938585
0.951808
0.965138
0.978125
0.991261
1.00404
1.01698
1.02956
1.04232
1.0547
1.0673
1.07951
1.09192
1.10396
1.11616
1.12801
1.13997
1.15161
1.16334
1.17473
1.18626
1.19737
1.20872
1.2196
1.23075
1.24129
1.25209
1.26213
1.27248
1.28192
1.29175
1.3005
1.30951
1.31739
1.32518
1.33186
1.33774
1.34177
1.34444
1.34947
1.14118
1.24115
1.33442
1.41735
1.49381
1.55769
1.60626
1.61806
1.59912
1.54024
1.40027
1.23117
1.13549
1.08702
1.04283
0.998941
0.962983
0.926946
0.888997
0.849098
0.808749
0.771083
0.732653
0.691002
0.650583
0.612
0.578918
0.548985
0.532238
0.539255
0.571232
0.613202
0.655423
0.692298
0.720857
0.739014
0.750894
0.759807
0.768354
0.776995
0.786337
0.795903
0.806026
0.816272
0.826961
0.8378
0.849126
0.860604
0.872264
0.883292
0.893979
0.904832
0.916874
0.929422
0.941955
0.954003
0.966073
0.977881
0.989896
1.00173
1.0138
1.02564
1.0377
1.04946
1.06143
1.07309
1.08491
1.09643
1.10812
1.11954
1.13117
1.14254
1.15412
1.16544
1.17695
1.18815
1.1995
1.21047
1.2216
1.23231
1.24324
1.25381
1.26459
1.27489
1.28543
1.29532
1.30553
1.31487
1.32456
1.33323
1.34218
1.35009
1.35803
1.36501
1.37168
1.37729
1.38214
1.38499
1.38742
1.3926
1.13607
1.22995
1.31653
1.39877
1.47193
1.53951
1.59431
1.63094
1.63448
1.61155
1.54565
1.41761
1.28084
1.2068
1.16804
1.13347
1.09952
1.06699
1.0372
1.00845
0.975651
0.94049
0.904115
0.866689
0.828933
0.789783
0.750585
0.708198
0.68298
0.688872
0.720571
0.763951
0.807424
0.845811
0.874459
0.892578
0.89868
0.89918
0.898927
0.900154
0.903051
0.907331
0.912829
0.919083
0.925957
0.933313
0.941132
0.949439
0.958224
0.966956
0.97522
0.983544
0.992801
1.00306
1.01367
1.02408
1.03446
1.04468
1.05507
1.06533
1.07588
1.0863
1.09699
1.10751
1.11824
1.12879
1.13952
1.15005
1.16074
1.17121
1.18192
1.19237
1.20318
1.21367
1.22455
1.23502
1.24581
1.25615
1.26675
1.27692
1.28725
1.29709
1.30718
1.31669
1.32658
1.33569
1.34525
1.35386
1.36281
1.37071
1.37873
1.38571
1.39258
1.39834
1.40392
1.40811
1.41147
1.41373
1.41583
1.42081
1.13262
1.21743
1.30063
1.37716
1.45023
1.51577
1.57475
1.62267
1.64744
1.64575
1.62023
1.55
1.43828
1.32766
1.26964
1.23581
1.20884
1.18294
1.15568
1.13099
1.10443
1.07714
1.04333
1.0064
0.968332
0.927114
0.876917
0.819737
0.789492
0.796427
0.829445
0.874077
0.922067
0.96333
0.993888
1.01545
1.02488
1.02338
1.01643
1.00999
1.00582
1.00421
1.00505
1.00741
1.01102
1.0152
1.02024
1.02556
1.03176
1.03806
1.04444
1.05048
1.05736
1.06517
1.07411
1.08296
1.09204
1.10094
1.11009
1.11913
1.12848
1.13773
1.14736
1.15683
1.16669
1.1763
1.18626
1.19595
1.20596
1.21571
1.22576
1.23558
1.2457
1.25561
1.2658
1.27576
1.28598
1.2959
1.30596
1.31555
1.3253
1.33447
1.34388
1.35265
1.36167
1.37011
1.37865
1.38669
1.39453
1.40178
1.40869
1.41469
1.4204
1.42506
1.42917
1.43225
1.43457
1.4366
1.43821
1.44316
1.13136
1.20912
1.2852
1.35893
1.42765
1.49222
1.55157
1.60205
1.64321
1.65971
1.65327
1.62671
1.55704
1.45767
1.36899
1.32322
1.29329
1.27103
1.25033
1.23095
1.20687
1.18092
1.15066
1.11748
1.0789
1.02782
0.959614
0.88953
0.862028
0.873436
0.906412
0.953067
1.00616
1.05257
1.08506
1.10586
1.12009
1.12543
1.12022
1.10943
1.0982
1.09012
1.08469
1.08271
1.08241
1.08391
1.08633
1.08945
1.09334
1.09778
1.10256
1.10716
1.11219
1.11816
1.12543
1.13319
1.14124
1.14922
1.1575
1.16567
1.17419
1.18261
1.19141
1.20017
1.20929
1.21837
1.22774
1.23698
1.24646
1.2557
1.26522
1.27446
1.28404
1.29335
1.30306
1.31251
1.32229
1.33161
1.3413
1.35034
1.35977
1.36839
1.37739
1.38557
1.39399
1.40181
1.4096
1.41682
1.42379
1.43003
1.4358
1.44078
1.44504
1.44861
1.45129
1.45346
1.45545
1.45712
1.45782
1.46244
1.13306
1.20276
1.27347
1.34227
1.40819
1.47057
1.52809
1.58146
1.62515
1.65889
1.66791
1.65911
1.63166
1.56568
1.47551
1.40443
1.36748
1.34226
1.32124
1.30483
1.28804
1.26397
1.23385
1.20025
1.15873
1.09508
1.00341
0.927179
0.909002
0.92619
0.960526
1.01108
1.06771
1.117
1.15284
1.17558
1.19028
1.1999
1.20279
1.19668
1.1844
1.17064
1.15944
1.1516
1.14694
1.14514
1.14487
1.146
1.14807
1.15092
1.15446
1.15802
1.16185
1.16619
1.17191
1.17858
1.18585
1.19316
1.20071
1.20826
1.21604
1.22387
1.232
1.24018
1.24871
1.25722
1.26612
1.27485
1.28394
1.2927
1.3018
1.31047
1.31954
1.32824
1.33743
1.34615
1.35542
1.36413
1.37334
1.38188
1.3907
1.39886
1.40701
1.41465
1.42208
1.42911
1.43574
1.44192
1.44754
1.45262
1.45699
1.46071
1.46386
1.46623
1.46836
1.47037
1.47214
1.47373
1.47439
1.47868
1.1378
1.19994
1.26409
1.32802
1.39052
1.44993
1.50678
1.55852
1.60674
1.64462
1.672
1.67588
1.66546
1.63656
1.57365
1.49445
1.43362
1.40456
1.38241
1.36303
1.34631
1.32533
1.2987
1.26066
1.20735
1.12046
1.01148
0.946021
0.939755
0.960702
1.00082
1.05437
1.11248
1.16059
1.19887
1.22591
1.24352
1.25445
1.26121
1.26317
1.25745
1.24557
1.23113
1.21813
1.20817
1.20142
1.19756
1.196
1.19606
1.19743
1.19987
1.20269
1.20575
1.20904
1.21341
1.21897
1.22553
1.2323
1.23937
1.24644
1.25385
1.26122
1.26902
1.27676
1.28497
1.29303
1.30157
1.30988
1.31865
1.32711
1.33599
1.34444
1.35335
1.36168
1.37048
1.37876
1.38753
1.39585
1.40443
1.41261
1.42072
1.42843
1.43585
1.44288
1.4495
1.45556
1.46109
1.466
1.47028
1.47393
1.47694
1.47954
1.48163
1.48369
1.48564
1.48757
1.48958
1.49164
1.49365
1.49783
1.14691
1.20155
1.25908
1.31743
1.37496
1.43179
1.48509
1.53708
1.58371
1.62685
1.66069
1.68144
1.68307
1.6718
1.64224
1.58387
1.51206
1.4594
1.43489
1.41422
1.39539
1.37247
1.34417
1.29921
1.22492
1.10739
0.997411
0.959383
0.965391
0.989804
1.03306
1.08939
1.14402
1.18992
1.22791
1.25721
1.2798
1.29397
1.3036
1.30856
1.31041
1.30631
1.29618
1.2824
1.26881
1.25736
1.24904
1.24389
1.24154
1.24113
1.24251
1.24476
1.24777
1.25061
1.25426
1.25866
1.26456
1.2707
1.27749
1.28417
1.29141
1.2985
1.30613
1.3136
1.32162
1.32942
1.3377
1.34567
1.35412
1.36219
1.37083
1.37901
1.38764
1.3957
1.40412
1.41209
1.42025
1.42813
1.43599
1.44358
1.45093
1.45792
1.4646
1.4708
1.47645
1.48148
1.48583
1.48946
1.49243
1.49476
1.4967
1.49855
1.5003
1.50206
1.50415
1.50665
1.50961
1.51281
1.51635
1.52118
1.15985
1.208
1.25884
1.31141
1.36456
1.41636
1.46802
1.51589
1.56299
1.60519
1.64323
1.67305
1.68856
1.68855
1.67663
1.64615
1.59262
1.52736
1.48081
1.45536
1.43511
1.40945
1.37044
1.30976
1.20011
1.06489
0.983086
0.969037
0.981935
1.01351
1.06142
1.1159
1.1648
1.20708
1.24326
1.27383
1.29877
1.31846
1.33234
1.34147
1.34586
1.34876
1.34719
1.34011
1.32838
1.31551
1.30382
1.29484
1.28893
1.28603
1.28533
1.28672
1.28931
1.29209
1.29536
1.29897
1.30399
1.30967
1.31621
1.3227
1.32979
1.33668
1.34409
1.35126
1.35899
1.36647
1.37457
1.3823
1.39063
1.39851
1.40692
1.41479
1.42305
1.43093
1.43895
1.44671
1.45436
1.46178
1.46895
1.47581
1.48234
1.48853
1.49421
1.49929
1.50372
1.50746
1.51047
1.51284
1.5146
1.51626
1.51772
1.51911
1.52064
1.52287
1.52552
1.52865
1.53277
1.53782
1.54358
1.54874
1.17142
1.21464
1.26106
1.30879
1.3575
1.40599
1.45375
1.50053
1.5447
1.58718
1.6258
1.65919
1.68524
1.69575
1.69408
1.68156
1.65087
1.59903
1.5382
1.49452
1.46258
1.43031
1.37749
1.28454
1.13848
1.01366
0.973013
0.976486
0.994659
1.03274
1.0834
1.13206
1.1754
1.21435
1.24877
1.27956
1.30624
1.32945
1.34806
1.36312
1.37267
1.37937
1.38295
1.38527
1.38214
1.37398
1.36275
1.35156
1.34227
1.3358
1.33246
1.33177
1.33332
1.33584
1.33906
1.34209
1.3462
1.35093
1.35697
1.36301
1.36988
1.37645
1.38371
1.39048
1.39793
1.4049
1.41259
1.41994
1.42792
1.43559
1.44349
1.45113
1.45881
1.46634
1.4738
1.48106
1.48806
1.49475
1.50102
1.5069
1.51241
1.51738
1.52174
1.52539
1.52833
1.53054
1.5321
1.53347
1.53466
1.53566
1.53667
1.53831
1.54063
1.54339
1.54687
1.55148
1.55792
1.56516
1.57228
1.57741
1.18515
1.2229
1.26438
1.30789
1.35226
1.39776
1.4422
1.48681
1.52947
1.57073
1.60924
1.64518
1.67426
1.69741
1.70283
1.6991
1.68567
1.65368
1.60109
1.53992
1.48832
1.43663
1.35854
1.21431
1.05753
0.979557
0.968489
0.978567
1.00646
1.04925
1.09588
1.13908
1.17784
1.21399
1.24675
1.27786
1.30594
1.33205
1.35463
1.37501
1.39123
1.40444
1.41313
1.42082
1.42451
1.42649
1.42198
1.41347
1.40285
1.3935
1.38618
1.38204
1.38035
1.38106
1.38329
1.38578
1.38887
1.39229
1.39723
1.40256
1.40889
1.41499
1.42176
1.42812
1.43498
1.44155
1.44855
1.45555
1.46285
1.4701
1.47743
1.48467
1.49183
1.49883
1.50565
1.5122
1.51841
1.52418
1.5295
1.53436
1.53859
1.5421
1.54487
1.54694
1.54832
1.54943
1.55022
1.5507
1.55109
1.55196
1.55363
1.55591
1.55881
1.56271
1.56831
1.57536
1.58338
1.59151
1.59927
1.60449
1.19903
1.2337
1.27042
1.31002
1.3508
1.3924
1.43462
1.47606
1.51734
1.55692
1.59519
1.63043
1.66338
1.68945
1.70771
1.70986
1.70314
1.68558
1.64804
1.58853
1.51239
1.42955
1.29941
1.11818
0.991229
0.959155
0.963828
0.982849
1.01734
1.06073
1.10189
1.13975
1.17544
1.20911
1.24204
1.2733
1.30354
1.3318
1.35889
1.38326
1.40592
1.42511
1.44073
1.45287
1.4619
1.46889
1.47202
1.47169
1.46559
1.4563
1.44612
1.43787
1.43149
1.42861
1.4277
1.42903
1.43128
1.43346
1.43666
1.44057
1.44589
1.45136
1.45734
1.46327
1.46948
1.47572
1.48218
1.48876
1.49542
1.50207
1.50873
1.51529
1.52173
1.52795
1.5339
1.53946
1.54456
1.5492
1.55337
1.55683
1.55953
1.56137
1.56256
1.56332
1.56378
1.56366
1.56346
1.56363
1.56453
1.56646
1.56886
1.57202
1.57662
1.583
1.59068
1.5989
1.60763
1.61622
1.62441
1.62964
1.21257
1.24484
1.27827
1.31407
1.35198
1.39009
1.42958
1.46848
1.50781
1.54558
1.58326
1.61773
1.65141
1.67972
1.70346
1.71356
1.71064
1.69908
1.67184
1.61824
1.52981
1.40605
1.21333
1.02972
0.958273
0.952977
0.962584
0.988641
1.02696
1.0652
1.10189
1.13674
1.17125
1.20487
1.23868
1.27138
1.30401
1.33499
1.36525
1.39342
1.42022
1.44374
1.46489
1.48121
1.495
1.50483
1.51284
1.51682
1.51834
1.51506
1.50691
1.49662
1.48649
1.47899
1.47379
1.47176
1.4717
1.4731
1.4749
1.47718
1.4808
1.48548
1.49066
1.49604
1.50164
1.50737
1.51334
1.51937
1.52544
1.53149
1.53747
1.54329
1.54889
1.55418
1.55906
1.56345
1.56737
1.57073
1.57336
1.57508
1.57611
1.57668
1.57685
1.5763
1.57545
1.57489
1.57509
1.57625
1.5782
1.58078
1.58451
1.58993
1.59698
1.6048
1.61331
1.62221
1.63129
1.64023
1.64857
1.65386
1.22876
1.25838
1.28885
1.32075
1.35535
1.3911
1.42728
1.46412
1.50068
1.5373
1.57258
1.60741
1.63946
1.66915
1.69442
1.7081
1.70746
1.69729
1.67329
1.6205
1.52204
1.35044
1.12221
0.973588
0.941928
0.947694
0.965627
0.995485
1.03141
1.06783
1.10361
1.13937
1.17476
1.21039
1.24515
1.27998
1.31328
1.34618
1.37739
1.40748
1.43501
1.46063
1.48314
1.50354
1.52022
1.53403
1.54483
1.5535
1.5588
1.56058
1.55947
1.55323
1.54379
1.53341
1.52448
1.51761
1.51369
1.51206
1.5125
1.51379
1.51567
1.51861
1.52282
1.5277
1.53287
1.53814
1.54347
1.54881
1.55415
1.55941
1.56454
1.56943
1.57398
1.57807
1.58161
1.58466
1.5871
1.58866
1.58951
1.58985
1.58973
1.58878
1.58719
1.586
1.5853
1.58585
1.58743
1.58951
1.59243
1.59683
1.60315
1.61037
1.6184
1.62695
1.63594
1.64502
1.65429
1.66304
1.67124
1.67625
1.24157
1.27161
1.30105
1.33019
1.36103
1.39427
1.42782
1.46239
1.49642
1.53141
1.56468
1.5985
1.62938
1.65823
1.68286
1.6946
1.69125
1.67914
1.65078
1.59151
1.47139
1.28009
1.08895
0.995299
0.978992
0.987774
1.00395
1.03131
1.06526
1.09996
1.13381
1.16742
1.20041
1.23333
1.26575
1.29794
1.32928
1.36043
1.3901
1.41912
1.44613
1.47199
1.49563
1.51786
1.53748
1.55523
1.56922
1.58124
1.59054
1.59731
1.59963
1.60027
1.59697
1.5892
1.57928
1.56896
1.56085
1.55481
1.55174
1.55085
1.55168
1.55293
1.55497
1.55826
1.5626
1.56719
1.57182
1.57638
1.58082
1.58508
1.58908
1.59273
1.59587
1.59845
1.60051
1.60181
1.60239
1.60252
1.60199
1.60068
1.59847
1.59656
1.59516
1.59456
1.5956
1.59729
1.5996
1.60315
1.60853
1.61519
1.62289
1.6312
1.64004
1.64913
1.65842
1.66763
1.67678
1.68532
1.69329
1.69811
1.25956
1.28611
1.31431
1.343
1.37012
1.3998
1.43053
1.46308
1.4944
1.52765
1.55853
1.59072
1.61977
1.64618
1.66634
1.67056
1.66174
1.64258
1.60096
1.51865
1.38153
1.24077
1.13859
1.07214
1.04669
1.04658
1.05462
1.07022
1.09527
1.1257
1.15655
1.18718
1.21764
1.24794
1.27825
1.30836
1.33841
1.36802
1.39731
1.42562
1.45309
1.47909
1.50398
1.52723
1.54903
1.56891
1.5867
1.60174
1.61441
1.62462
1.63274
1.63676
1.63802
1.63678
1.63159
1.6227
1.61273
1.60298
1.59571
1.59053
1.58836
1.58772
1.58853
1.58967
1.59178
1.59506
1.59895
1.60284
1.60655
1.60985
1.61267
1.61486
1.6164
1.6173
1.61762
1.61745
1.61655
1.61442
1.61189
1.60927
1.607
1.60563
1.60558
1.60693
1.6088
1.61154
1.61581
1.6219
1.62903
1.63689
1.64549
1.65429
1.66348
1.67259
1.68184
1.69075
1.69966
1.7078
1.71547
1.72007
1.27523
1.29674
1.32585
1.3542
1.38182
1.40921
1.43658
1.4662
1.49537
1.52596
1.55514
1.58369
1.61028
1.63129
1.64058
1.63412
1.6183
1.58402
1.51472
1.40479
1.29772
1.2376
1.19237
1.14756
1.11338
1.09901
1.09891
1.10532
1.1182
1.13982
1.1679
1.19751
1.22762
1.2573
1.28688
1.31583
1.34496
1.37351
1.40223
1.43
1.45747
1.48355
1.50917
1.5331
1.55662
1.57802
1.59879
1.61685
1.63323
1.6465
1.65811
1.66725
1.67348
1.67548
1.6762
1.67335
1.66651
1.65621
1.64604
1.63675
1.6302
1.62563
1.62388
1.62326
1.62392
1.62484
1.62656
1.62895
1.63136
1.63327
1.63434
1.63481
1.63481
1.6342
1.63261
1.62973
1.62656
1.6233
1.6202
1.61787
1.61665
1.6175
1.61885
1.62094
1.62431
1.62933
1.63586
1.64316
1.65136
1.65986
1.6689
1.67784
1.68713
1.6961
1.7052
1.7138
1.72234
1.73007
1.73728
1.74165
1.30105
1.31364
1.33661
1.36457
1.39144
1.41814
1.44445
1.47216
1.49901
1.52678
1.55345
1.57838
1.5991
1.60907
1.60443
1.58914
1.55733
1.49347
1.39422
1.30183
1.26108
1.24611
1.23359
1.21343
1.18624
1.15957
1.14453
1.14213
1.14766
1.1581
1.17758
1.20506
1.23506
1.26467
1.29389
1.3225
1.35102
1.37929
1.40732
1.43504
1.46213
1.48873
1.51448
1.53941
1.56343
1.58641
1.60837
1.62892
1.64778
1.66444
1.67857
1.69079
1.70128
1.7089
1.71289
1.71381
1.7125
1.70728
1.69872
1.68759
1.67741
1.66832
1.6622
1.6578
1.65551
1.65425
1.65375
1.65397
1.65405
1.65396
1.65344
1.65219
1.64995
1.64694
1.64327
1.63917
1.6352
1.63188
1.62978
1.62891
1.63024
1.63186
1.63431
1.63823
1.64404
1.65066
1.65843
1.66651
1.6752
1.68393
1.69307
1.70192
1.7109
1.71942
1.72801
1.73605
1.74402
1.75117
1.75774
1.76173
1.32869
1.3344
1.35208
1.37681
1.40223
1.42729
1.45189
1.4775
1.50277
1.52784
1.55113
1.57047
1.57973
1.57509
1.55923
1.52771
1.46505
1.37062
1.28597
1.25473
1.25114
1.25846
1.26288
1.26275
1.25273
1.22954
1.2013
1.18382
1.18041
1.18564
1.19525
1.21374
1.24083
1.27064
1.30004
1.32935
1.35761
1.38577
1.41309
1.44051
1.46725
1.49403
1.51962
1.54512
1.56909
1.59319
1.61581
1.63822
1.65874
1.67809
1.69505
1.71026
1.72306
1.73489
1.74364
1.74918
1.75044
1.75015
1.74699
1.73956
1.72849
1.71705
1.7063
1.69742
1.69054
1.68538
1.68154
1.67849
1.6757
1.67279
1.66968
1.66599
1.66155
1.6567
1.6518
1.6474
1.64393
1.64213
1.64194
1.64322
1.64511
1.64813
1.6528
1.65869
1.66584
1.67343
1.68182
1.69025
1.69913
1.70771
1.71653
1.72494
1.73344
1.74146
1.7495
1.75698
1.7643
1.77083
1.77664
1.78026
1.36341
1.35918
1.36848
1.38784
1.41399
1.43867
1.46198
1.4849
1.5073
1.52849
1.54606
1.55366
1.54783
1.53124
1.49774
1.43522
1.34053
1.26259
1.23686
1.24014
1.25247
1.27051
1.2891
1.29472
1.29472
1.28622
1.26471
1.23792
1.2222
1.21956
1.22466
1.2341
1.25134
1.2775
1.30639
1.33572
1.36438
1.39233
1.41973
1.44694
1.4741
1.50072
1.52684
1.55191
1.5765
1.60044
1.62413
1.64697
1.6691
1.68952
1.70885
1.7261
1.74185
1.75541
1.76743
1.777
1.78323
1.78567
1.78569
1.78342
1.77704
1.76658
1.75391
1.74088
1.72867
1.71822
1.70944
1.70185
1.69508
1.68876
1.6825
1.6762
1.67017
1.66463
1.66003
1.65667
1.6552
1.65603
1.65727
1.65933
1.66281
1.66793
1.6744
1.68139
1.68927
1.69738
1.70587
1.71417
1.72273
1.73094
1.73931
1.74726
1.75527
1.76276
1.77018
1.77701
1.78356
1.78932
1.79422
1.7973
1.41295
1.3875