/*--------------------------------*- C++ -*----------------------------------*\
| =========                 |                                                 |
| \\      /  F ield         | OpenFOAM: The Open Source CFD Toolbox           |
|  \\    /   O peration     | Version:  2112                                  |
|   \\  /    A nd           | Website:  www.openfoam.com                      |
|    \\/     M anipulation  |                                                 |
\*---------------------------------------------------------------------------*/
FoamFile
{
    version     2.0;
    format      ascii;
    arch        "LSB;label=32;scalar=64";
    class       volScalarField;
    location    "4.5";
    object      p;
}
// * * * * * * * * * * * * * * * * * * * * * * * * * * * * * * * * * * * * * //

dimensions      [1 -1 -2 0 0 0 0];

internalField   nonuniform List<scalar> 
5250
(
1
1.00003
1.00008
1.00023
1.00048
1.00139
1.00274
1.00839
1.01499
1.05415
1.08919
1.35068
1.72232
3.3946
7.52254
11.8756
11.3339
11.0548
11.1495
11.3915
11.6076
11.7328
11.8305
11.9055
11.9589
1
1.00003
1.00008
1.00023
1.00048
1.00137
1.0027
1.00824
1.01479
1.05305
1.08761
1.34351
1.70666
3.34237
7.38827
11.8973
11.3401
11.0479
11.1423
11.3841
11.601
11.7273
11.8266
11.9031
11.9582
1
1.00003
1.00008
1.00022
1.00046
1.00132
1.00263
1.00793
1.0144
1.05075
1.08446
1.32841
1.67348
3.2299
7.0854
11.9384
11.3493
11.0226
11.1132
11.3509
11.5687
11.6952
11.7947
11.8717
11.9285
1
1.00003
1.00007
1.00021
1.00044
1.00126
1.00252
1.00748
1.01385
1.04744
1.07997
1.30664
1.62543
3.06668
6.63106
11.9902
11.3672
10.9816
11.0626
11.2892
11.509
11.6352
11.7335
11.8107
11.871
1
1.00003
1.00007
1.0002
1.00042
1.00118
1.00238
1.00694
1.01318
1.04348
1.07458
1.28048
1.568
2.87069
6.06085
11.9862
11.3758
10.9289
10.9959
11.2038
11.4238
11.5479
11.6437
11.7204
11.7851
1
1.00003
1.00006
1.00019
1.00039
1.0011
1.00223
1.00641
1.01243
1.03957
1.06919
1.25496
1.50715
2.68383
5.52936
11.8536
11.3289
10.8522
10.9053
11.087
11.3022
11.4222
11.5121
11.5855
11.6563
1
1.00002
1.00006
1.00017
1.00036
1.00102
1.00208
1.00595
1.01166
1.03623
1.06475
1.23285
1.45552
2.55554
5.08955
11.4541
11.1762
10.7672
10.798
10.9352
11.1362
11.2476
11.3252
11.387
11.4574
1
1.00002
1.00006
1.00016
1.00034
1.00095
1.00193
1.0055
1.01091
1.03305
1.06085
1.21176
1.40854
2.44453
4.64335
10.8443
10.9185
10.7182
10.6794
10.7557
10.9208
11.0148
11.0649
11.0961
11.147
1
1.00002
1.00005
1.00015
1.0003
1.00086
1.00175
1.00498
1.00994
1.02983
1.05556
1.19105
1.36376
2.30789
4.22418
10.0719
10.7773
10.6303
10.5171
10.5578
10.6632
10.72
10.7163
10.6757
10.632
1
1.00002
1.00004
1.00013
1.00026
1.00075
1.00152
1.00436
1.00856
1.02658
1.04756
1.17304
1.31301
2.17989
3.83591
9.17331
10.6609
10.5264
10.3265
10.3326
10.3676
10.3573
10.2778
10.0691
9.72024
1
1.00001
1.00004
1.00009
1.00025
1.00048
1.0015
1.00262
1.00948
1.01527
1.05957
1.09743
1.38927
1.80453
3.66842
8.08123
10.5542
10.4164
10.1319
10.0744
10.0487
9.95856
9.70705
9.10631
7.56637
1
1.00001
1.00003
1.0001
1.0002
1.00057
1.00115
1.00332
1.00644
1.02033
1.03568
1.13093
1.22938
1.87548
3.02071
6.95567
10.4721
10.3032
9.94427
9.81397
9.73022
9.5433
9.13622
8.3089
6.69773
1
1.00001
1.00003
1.00009
1.00018
1.0005
1.00102
1.00288
1.00581
1.01686
1.03309
1.10398
1.19942
1.68453
2.60381
5.70611
10.304
10.1539
9.78808
9.56704
9.41978
9.15337
8.64522
7.78664
6.4715
1
1.00001
1.00002
1.00007
1.00015
1.00042
1.00086
1.00241
1.00487
1.01398
1.02767
1.08432
1.16559
1.54182
2.26264
4.70191
9.83118
9.87009
9.65705
9.34159
9.12227
8.80745
8.28453
7.48877
6.42466
1
1.00001
1.00002
1.00006
1.00012
1.00034
1.00069
1.00193
1.00387
1.01132
1.02128
1.07073
1.12393
1.45353
1.98789
4.06897
8.78278
9.58278
9.44504
9.14029
8.85967
8.51733
8.01889
7.30953
6.41677
1
1.00001
1.00002
1.00005
1.0001
1.00027
1.00055
1.00154
1.00305
1.00911
1.01654
1.05759
1.09595
1.36927
1.75257
3.46289
7.32602
9.32669
9.24258
8.99118
8.6478
8.28254
7.81031
7.17776
6.40878
1
1.00001
1.00001
1.00004
1.00008
1.00022
1.00044
1.00123
1.00248
1.00714
1.01371
1.04422
1.07649
1.2834
1.56926
2.85443
5.77894
9.12011
9.09519
8.89392
8.48834
8.09845
7.64756
7.07507
6.39957
1
1
1.00001
1.00003
1.00006
1.00017
1.00034
1.00095
1.00193
1.00546
1.01081
1.03258
1.05971
1.2038
1.40279
2.29724
4.23637
8.65828
8.96282
8.78795
8.38962
7.9552
7.51121
6.98987
6.38787
1
1
1.00001
1.00002
1.00004
1.00013
1.00026
1.00072
1.00145
1.0041
1.00805
1.02465
1.04414
1.15737
1.28168
2.03644
3.38942
7.49842
8.70346
8.5959
8.29556
7.83843
7.3973
6.91618
6.37688
1
1
1.00001
1.00001
1.00004
1.00008
1.00022
1.00044
1.00124
1.0024
1.00745
1.01294
1.047
1.07695
1.29464
1.59066
2.89596
5.80863
8.43816
8.40955
8.20608
7.77079
7.30875
6.85021
6.36065
1
1
1
1.00001
1.00003
1.00006
1.00017
1.00034
1.00095
1.00192
1.00541
1.0108
1.03187
1.06025
1.19564
1.39762
2.23795
3.99474
7.93849
8.28384
8.12663
7.74697
7.2525
6.8041
6.34797
1
1
1
1.00001
1.00002
1.00005
1.0001
1.00028
1.00058
1.00161
1.00322
1.00944
1.01762
1.0581
1.10337
1.35866
1.78543
3.289
6.68137
8.02568
7.95479
7.70069
7.22191
6.77097
6.34172
1
1
1
1.00001
1.00002
1.00003
1.00009
1.00018
1.0005
1.00101
1.00284
1.0057
1.01657
1.03153
1.10201
1.18932
1.64672
2.4684
5.04364
7.66247
7.73969
7.59833
7.23319
6.77111
6.34297
1
1
1
1
1.00001
1.00003
1.00005
1.00015
1.0003
1.00082
1.00166
1.00466
1.00922
1.02749
1.05043
1.1698
1.32123
2.05353
3.43747
6.90307
7.58989
7.49534
7.22623
6.78462
6.35127
1
1
1
1
1.00001
1.00002
1.00004
1.0001
1.00021
1.00058
1.00117
1.00325
1.00645
1.01891
1.03487
1.11735
1.20819
1.73684
2.62509
5.33784
7.31546
7.31298
7.18553
6.8439
6.3788
1
1
1
1
1
1.00001
1.00003
1.00007
1.00014
1.00039
1.0008
1.0022
1.00444
1.0125
1.02484
1.07281
1.14696
1.44197
1.99712
3.61896
6.72973
7.20734
7.12073
6.875
6.43647
1
1
1
1
1
1.00001
1.00002
1.00004
1.00011
1.00022
1.00061
1.00122
1.00341
1.00666
1.02012
1.03578
1.12436
1.21756
1.78158
2.69866
5.47641
6.98446
6.97966
6.85969
6.5544
1
1
1
1
1
1
1.00001
1.00003
1.00007
1.00015
1.00041
1.00084
1.00231
1.00466
1.01304
1.02585
1.07577
1.15097
1.45701
2.02709
3.65088
6.47158
6.88093
6.81077
6.60475
1
1
1
1
1
1
1.00001
1.00002
1.00005
1.0001
1.00027
1.00055
1.0015
1.00303
1.00842
1.01672
1.04893
1.09413
1.29345
1.6398
2.78634
5.28247
6.65524
6.6907
6.58872
1
1
1
1
1
1
1
1.00001
1.00003
1.00007
1.00015
1.0004
1.00082
1.00225
1.00452
1.01267
1.02503
1.07341
1.14589
1.43727
1.98021
3.49707
6.13655
6.5816
6.53306
1
1
1
1
1
1
1
1.00001
1.00002
1.00005
1.0001
1.00026
1.00053
1.00144
1.00291
1.00803
1.01599
1.04625
1.08862
1.27612
1.58278
2.65287
4.9229
6.32383
6.41547
1
1
1
1
1
1
1
1.00001
1.00001
1.00003
1.00006
1.00016
1.00032
1.00088
1.00178
1.00488
1.00977
1.02737
1.0549
1.15762
1.33431
1.93292
3.12595
5.75879
6.29921
1
1
1
1
1
1
1
1
1.00001
1.00002
1.00004
1.00009
1.00023
1.00047
1.00128
1.00259
1.00715
1.01422
1.04103
1.079
1.24178
1.51528
2.43012
4.39167
5.97828
1
1
1
1
1
1
1
1
1
1.00001
1.00002
1.00006
1.00012
1.00033
1.00067
1.00184
1.0037
1.01022
1.02055
1.05757
1.11975
1.33481
1.75238
2.90345
5.22481
1
1
1
1
1
1
1
1
1
1.00001
1.00001
1.00004
1.00008
1.0002
1.00041
1.00111
1.00225
1.00613
1.01228
1.0347
1.06643
1.20362
1.408
2.17843
3.70243
1
1
1
1
1
1
1
1
1
1
1.00001
1.00002
1.00004
1.00012
1.00024
1.00065
1.00133
1.00358
1.00721
1.02002
1.03864
1.11767
1.21954
1.68885
2.47689
1
1
1
1
1
1
1
1
1
1
1.00001
1.00001
1.00003
1.00006
1.00016
1.00033
1.00087
1.00176
1.00478
1.00945
1.02711
1.04998
1.15842
1.29892
1.87448
1
1
1
1
1
1
1
1
1
1
1
1.00001
1.00002
1.00004
1.00009
1.00019
1.00051
1.00104
1.0028
1.00558
1.01573
1.02935
1.09312
1.16477
1.54248
1
1
1
1
1
1
1
1
1
1
1
1
1.00001
1.00002
1.00005
1.00013
1.00025
1.00068
1.00138
1.00372
1.00743
1.02082
1.03962
1.12085
1.22981
1
1
1
1
1
1
1
1
1
1
1
1
1
1.00001
1.00003
1.00007
1.00015
1.00039
1.00079
1.00211
1.00425
1.01152
1.02283
1.06447
1.12651
1
1
1
1
1
1
1
1
1
1
1
1
1
1.00001
1.00002
1.00004
1.00008
1.00022
1.00045
1.00119
1.0024
1.00649
1.01289
1.03609
1.07101
1
1
1
1
1
1
1
1
1
1
1
1
1
1
1.00001
1.00002
1.00005
1.00011
1.00029
1.00059
1.00157
1.00316
1.00857
1.01725
1.04712
1
1
1
1
1
1
1
1
1
1
1
1
1
1
1.00001
1.00001
1.00003
1.00006
1.00017
1.00035
1.00092
1.00186
1.00498
1.00998
1.0272
1
1
1
1
1
1
1
1
1
1
1
1
1
1
1
1.00001
1.00002
1.00004
1.00011
1.00023
1.00061
1.00124
1.00336
1.00676
1.01866
1
1
1
1
1
1
1
1
1
1
1
1
1
1
1
1.00001
1.00001
1.00004
1.00007
1.0002
1.00042
1.00114
1.0023
1.00641
1.01271
1
1
1
1
1
1
1
1
1
1
1
1
1
1
1
1.00001
1.00001
1.00003
1.00007
1.00018
1.00037
1.00102
1.00207
1.00583
1.01159
1
1
1
1
1
1
1
1
1
1
1
1
1
1
1
1.00001
1.00001
1.00003
1.00006
1.00017
1.00034
1.00095
1.00192
1.00549
1.0108
1
1
1
1
1
1
1
1
1
1
1
1
1
1
1
1
1.00001
1.00002
1.00006
1.00013
1.00037
1.00075
1.00219
1.00414
1.01352
1
1
1
1
1
1
1
1
1
1
1
1
1
1
1
1
1.00001
1.00003
1.00006
1.00016
1.00033
1.00092
1.00187
1.00538
1.01058
1
1
1
1
1
1
1
1
1
1
1
1
1
1
1
1
1.00001
1.00003
1.00006
1.00016
1.00033
1.00094
1.0019
1.00543
1.01077
3.11878
1.59103
1.07723
1.01487
1.06668
1.22936
1.58667
2.09697
2.56095
3.03935
3.21611
3.26935
3.2685
3.22393
3.15922
3.10843
3.07581
3.04868
3.01708
2.98032
2.942
2.90547
2.86981
2.83246
2.80053
2.78576
2.78138
2.78193
2.81047
2.87365
2.97385
3.10362
3.25218
3.4092
3.56388
3.70803
3.83806
3.95283
4.05625
4.14557
4.22036
4.28328
4.33352
4.37957
4.41449
4.43706
4.451
4.45809
4.45787
4.45437
4.44428
4.42618
4.40371
4.37871
4.35012
4.31904
4.28491
4.24886
4.21045
4.17066
4.12907
4.08647
4.04253
3.99784
3.95216
3.90595
3.85903
3.81177
3.76405
3.71617
3.66803
3.61988
3.57166
3.52356
3.47554
3.42776
3.38023
3.33307
3.28631
3.24007
3.19439
3.14935
3.10503
3.06145
3.01871
2.97681
2.93587
2.89588
2.85698
2.81921
2.78274
2.74764
2.71419
2.68258
2.65323
2.62663
2.60359
2.58524
2.57273
2.57203
3.7757
2.36023
1.75684
1.51686
1.4538
1.47082
1.56546
1.83391
2.42191
3.02822
3.25107
3.27431
3.25962
3.20895
3.14691
3.11373
3.08819
3.05965
3.02475
2.98156
2.93799
2.89935
2.86348
2.83033
2.80041
2.78398
2.77851
2.77893
2.80374
2.86342
2.96226
3.09172
3.23897
3.39427
3.54727
3.68922
3.81851
3.93082
4.0396
4.13048
4.20587
4.26944
4.32171
4.36801
4.4029
4.42675
4.44143
4.44892
4.44906
4.44659
4.43828
4.42055
4.39719
4.37213
4.34432
4.31374
4.28014
4.24431
4.20627
4.16663
4.12535
4.08287
4.03916
3.99458
3.94908
3.90298
3.85623
3.80908
3.76151
3.71373
3.66573
3.61766
3.56955
3.52151
3.47359
3.42587
3.37843
3.33132
3.28466
3.23848
3.19291
3.14795
3.10374
3.06027
3.01766
2.97589
2.9351
2.89528
2.85659
2.81903
2.78283
2.74803
2.71492
2.68366
2.65472
2.62852
2.60594
2.58797
2.57639
2.57688
4.597
3.28493
2.46383
1.95325
1.6415
1.52046
1.5473
1.68221
2.0442
2.81031
3.20147
3.25707
3.24344
3.20453
3.14883
3.11019
3.07804
3.04707
3.013
2.97476
2.93661
2.90218
2.86513
2.83141
2.80257
2.77834
2.76692
2.76542
2.78855
2.84415
2.93828
3.06403
3.20768
3.36466
3.52201
3.66841
3.79974
3.91663
4.02342
4.11459
4.19117
4.25569
4.30915
4.35405
4.38904
4.41385
4.42935
4.43719
4.4376
4.43571
4.42899
4.41358
4.38926
4.36368
4.33627
4.3062
4.2732
4.23774
4.2001
4.1607
4.11971
4.07743
4.03397
3.98956
3.94429
3.89835
3.85181
3.80483
3.75746
3.70983
3.66201
3.61409
3.56613
3.51822
3.47043
3.42283
3.37552
3.32855
3.28205
3.23603
3.19064
3.14588
3.10189
3.05865
3.0163
2.97481
2.93435
2.8949
2.85663
2.81955
2.78388
2.74968
2.71726
2.68679
2.65873
2.63351
2.61208
2.59518
2.58641
2.58728
5.04528
3.86391
2.99038
2.38703
1.99418
1.74143
1.70271
1.74627
1.91132
2.31135
3.02837
3.2274
3.23256
3.21346
3.16778
3.11954
3.08192
3.04805
3.0113
2.97326
2.934
2.8966
2.85982
2.82651
2.79855
2.77821
2.76701
2.769
2.78772
2.83629
2.92771
3.05071
3.19058
3.34183
3.49483
3.63876
3.76935
3.8865
3.99207
4.08429
4.16269
4.22875
4.2837
4.32912
4.36488
4.39097
4.40782
4.41668
4.41792
4.4166
4.4116
4.3995
4.37601
4.35004
4.32265
4.29316
4.26101
4.22633
4.18937
4.15053
4.11004
4.06819
4.02514
3.9811
3.93619
3.89058
3.84438
3.79769
3.75063
3.70328
3.65573
3.60804
3.56032
3.51261
3.46504
3.41764
3.37055
3.32381
3.27756
3.23181
3.18673
3.1423
3.09868
3.05585
3.01396
2.97291
2.93302
2.8942
2.85666
2.82039
2.78568
2.75255
2.72138
2.69234
2.66595
2.64261
2.6233
2.60877
2.60392
2.60529
5.31559
4.28429
3.44339
2.81172
2.35499
2.03977
1.83765
1.84112
1.89931
2.09521
2.5617
3.09573
3.21672
3.2132
3.19206
3.14428
3.09506
3.05402
3.01558
2.97756
2.93897
2.90126
2.86581
2.83429
2.8092
2.79302
2.78748
2.79241
2.81431
2.86749
2.9531
3.05931
3.1838
3.31712
3.45722
3.59603
3.72613
3.84496
3.95152
4.04518
4.1256
4.19375
4.25065
4.29745
4.33452
4.36212
4.38063
4.39094
4.39344
4.39253
4.38889
4.37963
4.36025
4.33405
4.30629
4.27709
4.24571
4.21193
4.17583
4.13771
4.09787
4.05658
4.01405
3.97048
3.92604
3.88085
3.83506
3.78876
3.74209
3.69508
3.64787
3.60049
3.55308
3.50565
3.45837
3.41126
3.36448
3.31806
3.27218
3.22684
3.18221
3.13827
3.09517
3.05292
3.01169
2.97149
2.93241
2.89449
2.85798
2.82288
2.78951
2.75798
2.7287
2.70188
2.67794
2.65743
2.64118
2.6305
2.62995
2.63184
5.50122
4.60414
3.82553
3.19485
2.70655
2.34169
2.078
1.94378
1.9554
2.03283
2.25626
2.74238
3.1276
3.20499
3.199
3.17611
3.12698
3.07245
3.02855
2.98963
2.95108
2.91391
2.88099
2.85438
2.83768
2.83231
2.83635
2.85361
2.89783
2.96811
3.03686
3.11356
3.20409
3.3069
3.41014
3.53036
3.65674
3.78095
3.89388
3.99259
4.07692
4.14811
4.20746
4.25633
4.2954
4.32514
4.34587
4.35829
4.36276
4.36222
4.35974
4.35308
4.33855
4.31385
4.28619
4.25713
4.22636
4.19348
4.15837
4.12117
4.08216
4.0416
3.99974
3.95677
3.91291
3.86826
3.82299
3.77717
3.73096
3.68439
3.6376
3.59061
3.54357
3.4965
3.44958
3.40285
3.35648
3.31052
3.26516
3.22034
3.17635
3.13316
3.09089
3.0495
3.00919
2.96995
2.93203
2.89539
2.86033
2.82691
2.79553
2.76632
2.73972
2.71606
2.69567
2.67923
2.66718
2.66308
2.66401
2.66781
5.62879
4.84904
4.13698
3.5295
3.03142
2.63732
2.3348
2.11845
2.03638
2.05699
2.14834
2.38032
2.8616
3.13987
3.19111
3.18394
3.16056
3.11102
3.05623
3.01064
2.97025
2.93527
2.90694
2.8896
2.88708
2.89194
2.91164
2.96132
3.05801
3.13524
3.18146
3.22026
3.2641
3.3142
3.3785
3.44333
3.55117
3.6804
3.80721
3.91947
4.01416
4.09218
4.15568
4.20729
4.24863
4.28062
4.30382
4.31882
4.32608
4.32604
4.32476
4.32046
4.31033
4.28968
4.26297
4.23417
4.20385
4.17174
4.13761
4.10145
4.06343
4.02377
3.98274
3.94054
3.89738
3.85339
3.80875
3.76353
3.71788
3.67184
3.62555
3.57903
3.53245
3.48583
3.43938
3.39313
3.34734
3.30198
3.25733
3.21344
3.17036
3.12808
3.08679
3.04644
3.00731
2.96942
2.93302
2.89809
2.86506
2.83402
2.8054
2.7794
2.75648
2.73692
2.72114
2.70954
2.70355
2.70396
2.70592
2.71176
5.71968
5.03407
4.38756
3.81213
3.32126
2.91411
2.58587
2.33291
2.15573
2.11776
2.14686
2.24581
2.47565
2.93538
3.13985
3.17485
3.16734
3.14439
3.0961
3.04312
2.99706
2.96209
2.94082
2.94036
2.94601
2.96759
3.02356
3.14467
3.29244
3.36839
3.38676
3.38508
3.37756
3.36438
3.37167
3.39863
3.45456
3.55003
3.68143
3.81124
3.92491
4.01816
4.09161
4.14923
4.19427
4.22877
4.25448
4.27221
4.2824
4.28491
4.28419
4.28147
4.2746
4.25996
4.2358
4.20799
4.17824
4.14679
4.11355
4.07843
4.0415
4.0029
3.96287
3.92157
3.87926
3.83605
3.79215
3.74761
3.70261
3.65717
3.61146
3.56548
3.51943
3.47335
3.42748
3.38184
3.33682
3.29243
3.24881
3.20591
3.16389
3.1227
3.08261
3.04364
3.0061
2.97004
2.93562
2.90307
2.87277
2.84495
2.82003
2.79824
2.78011
2.76548
2.7552
2.74925
2.74942
2.75057
2.75389
2.76267
5.78553
5.17591
4.58772
4.04903
3.57387
3.16633
2.82506
2.54768
2.33452
2.19176
2.18477
2.21773
2.32117
2.55499
2.97073
3.12984
3.15753
3.15049
3.12928
3.08498
3.03516
2.99818
2.99029
2.99524
3.01499
3.06779
3.18538
3.4217
3.60282
3.64902
3.6404
3.60766
3.53208
3.4377
3.3899
3.3936
3.41379
3.45859
3.54246
3.66707
3.7949
3.90943
4.00287
4.0748
4.12874
4.16849
4.19791
4.2187
4.23195
4.2381
4.23799
4.2367
4.23265
4.22327
4.20417
4.17839
4.14967
4.11897
4.08655
4.05241
4.0166
3.97915
3.94025
3.90001
3.85869
3.81638
3.77332
3.72957
3.68531
3.64057
3.59552
3.55017
3.50476
3.45933
3.41424
3.36965
3.32571
3.2824
3.2399
3.19814
3.15738
3.11759
3.07912
3.04203
3.00665
2.97286
2.94116
2.91184
2.88525
2.86172
2.84162
2.8252
2.81262
2.80397
2.79943
2.79929
2.80007
2.80244
2.80763
2.8192
5.83181
5.28538
4.74938
4.24706
3.7925
3.39218
3.04681
2.75565
2.51919
2.33716
2.23505
2.23951
2.27809
2.38782
2.62814
2.98424
3.11745
3.14183
3.13622
3.11872
3.08214
3.04707
3.0488
3.06186
3.10414
3.2083
3.43274
3.79067
3.96976
3.96808
3.94008
3.86089
3.69921
3.54869
3.44962
3.40746
3.41034
3.42713
3.46438
3.53224
3.63934
3.76151
3.87501
3.9689
4.04103
4.09378
4.13152
4.15765
4.17496
4.18475
4.18751
4.18694
4.18469
4.17891
4.16645
4.14437
4.11755
4.08799
4.0565
4.02336
3.98865
3.9524
3.91471
3.87566
3.83545
3.79419
3.75209
3.70924
3.66584
3.62188
3.57758
3.53297
3.48833
3.44389
3.39998
3.35659
3.3139
3.27183
3.23064
3.19032
3.15117
3.11326
3.07695
3.04239
3.00956
2.9789
2.95087
2.92579
2.90401
2.8859
2.87166
2.8614
2.85489
2.852
2.85224
2.85317
2.85531
2.8591
2.86392
2.87429
5.86705
5.37232
4.88162
4.41392
3.9823
3.59356
3.25055
2.9534
2.70159
2.49866
2.34121
2.27568
2.28498
2.32882
2.44372
2.68564
2.99158
3.10644
3.13065
3.12832
3.11986
3.10634
3.11309
3.14271
3.22533
3.41562
3.81352
4.23293
4.3459
4.32568
4.25509
4.09646
3.87311
3.68662
3.5528
3.46871
3.42831
3.42916
3.4398
3.46616
3.51958
3.60586
3.7157
3.82395
3.9175
3.99141
4.04596
4.08409
4.10922
4.1243
4.13183
4.13227
4.13136
4.12823
4.12072
4.10509
4.08112
4.05342
4.02332
3.99136
3.95783
3.92279
3.88637
3.84857
3.80959
3.76949
3.72851
3.68669
3.64426
3.6012
3.55777
3.51408
3.47064
3.42752
3.38498
3.34294
3.30165
3.26109
3.22154
3.1831
3.14607
3.11068
3.07726
3.04561
3.01631
2.98989
2.96665
2.94702
2.93125
2.91955
2.912
2.90759
2.90717
2.90765
2.90903
2.91178
2.91425
2.91572
2.91721
2.92099
5.89832
5.442
4.99008
4.5551
4.1469
3.77307
3.43638
3.13895
2.87947
2.6607
2.48297
2.35184
2.31014
2.32332
2.37207
2.48928
2.73108
2.99579
3.09995
3.12601
3.138
3.14992
3.17867
3.24852
3.40754
3.74559
4.35319
4.698
4.70951
4.66982
4.55165
4.3062
4.0501
3.8436
3.68733
3.57361
3.49734
3.45362
3.44293
3.44826
3.4647
3.50138
3.56646
3.66064
3.76038
3.85291
3.92973
3.98777
4.02806
4.05376
4.06836
4.07376
4.0735
4.07194
4.06763
4.05809
4.03899
4.01441
3.98648
3.95614
3.924
3.89025
3.85511
3.8186
3.78092
3.7421
3.70237
3.66173
3.62042
3.57838
3.53609
3.49378
3.45186
3.41027
3.36927
3.32884
3.28925
3.2506
3.21318
3.17722
3.14306
3.11104
3.08088
3.05327
3.02879
3.00785
2.99069
2.97773
2.96891
2.96398
2.96267
2.96317
2.96465
2.96765
2.97016
2.9707
2.96982
2.96702
2.96054
2.95545
5.92231
5.50224
5.0844
4.67716
4.29147
3.93294
3.60579
3.31083
3.04921
2.82093
2.62777
2.4724
2.36368
2.33913
2.35442
2.40576
2.52422
2.76426
3.00218
3.10172
3.14165
3.18205
3.25279
3.3986
3.70116
4.31719
4.93644
5.1097
5.08403
4.99144
4.78278
4.48652
4.22561
4.0133
3.84311
3.70814
3.60328
3.52612
3.47532
3.44823
3.44955
3.45609
3.47698
3.52219
3.5976
3.68799
3.77886
3.85819
3.92025
3.96408
3.9921
4.00639
4.01085
4.01029
4.00802
4.00235
3.99035
3.96996
3.94499
3.91692
3.88662
3.85444
3.82074
3.7856
3.74932
3.7119
3.67358
3.63429
3.59424
3.55359
3.51291
3.47234
3.43213
3.39232
3.35313
3.3147
3.27728
3.24112
3.20654
3.17391
3.14361
3.1153
3.08973
3.06771
3.04939
3.03533
3.02546
3.01985
3.01829
3.01881
3.02054
3.02414
3.02821
3.02961
3.02887
3.0263
3.02034
3.00803
2.98737
2.96938
5.94661
5.55464
5.16581
4.78593
4.42125
4.07812
3.76052
3.47044
3.20857
2.9756
2.77206
2.60015
2.46472
2.37453
2.36564
2.38236
2.43564
2.55609
2.79659
3.02068
3.13064
3.22463
3.35847
3.63022
4.1872
5.03359
5.47193
5.46868
5.41288
5.25954
4.95206
4.65394
4.40006
4.18816
4.00995
3.85965
3.73325
3.62985
3.54818
3.48836
3.45024
3.43906
3.43964
3.44781
3.4737
3.52908
3.60929
3.69582
3.77664
3.84313
3.89169
3.92226
3.9384
3.94273
3.94204
3.93932
3.93272
3.91896
3.89793
3.87279
3.84488
3.81468
3.78273
3.74922
3.71455
3.67873
3.64199
3.6042
3.56576
3.527
3.4883
3.44974
3.41156
3.37388
3.33698
3.30109
3.26654
3.2337
3.20298
3.17482
3.1487
3.12572
3.10649
3.09152
3.08077
3.07454
3.07268
3.07335
3.07543
3.07987
3.08597
3.08983
3.08949
3.08783
3.08348
3.07359
3.05372
3.02644
2.99602
2.97082
5.98251
5.60941
5.24365
4.88662
4.54067
4.21188
3.90369
3.61911
3.35868
3.12339
2.91356
2.73008
2.57745
2.45412
2.3876
2.38954
2.40996
2.46828
2.59768
2.84773
3.08371
3.27357
3.51618
3.99956
4.96643
5.69868
5.84111
5.80349
5.68132
5.42084
5.10029
4.81676
4.57457
4.36543
4.18157
4.01952
3.87662
3.7528
3.64734
3.56054
3.49297
3.44555
3.424
3.41207
3.41409
3.42671
3.45918
3.52523
3.60453
3.68527
3.75515
3.80806
3.84356
3.86254
3.86923
3.8686
3.86578
3.85883
3.84443
3.82335
3.79826
3.7704
3.74057
3.70913
3.67645
3.64256
3.60761
3.57171
3.53539
3.49891
3.4625
3.42632
3.39061
3.35562
3.32166
3.28912
3.25841
3.23009
3.20443
3.18111
3.16104
3.14544
3.13402
3.12731
3.12525
3.12604
3.12858
3.13395
3.14205
3.14819
3.15071
3.14988
3.14677
3.13921
3.12324
3.09658
3.06458
3.02977
2.99496
2.96388
6.03544
5.6709
5.32199
4.98098
4.65117
4.33456
4.03566
3.75647
3.49884
3.26286
3.0496
2.85909
2.69315
2.55706
2.44429
2.40689
2.41473
2.44614
2.52201
2.68351
2.97794
3.31657
3.76145
4.6624
5.77145
6.17958
6.16
6.07059
5.86097
5.54001
5.24172
4.98019
4.74877
4.54065
4.3521
4.18066
4.02575
3.88609
3.76254
3.65486
3.56377
3.48982
3.43459
3.40124
3.38118
3.37228
3.37695
3.39561
3.43758
3.50842
3.58344
3.65461
3.71351
3.75514
3.78001
3.78999
3.78971
3.78744
3.7812
3.7679
3.74689
3.72174
3.69433
3.66532
3.63501
3.60343
3.57071
3.53723
3.50347
3.46963
3.43594
3.40264
3.37003
3.33849
3.30843
3.28039
3.25491
3.23238
3.21218
3.19595
3.18417
3.17715
3.17509
3.17604
3.17908
3.18561
3.19562
3.20449
3.2106
3.21031
3.20843
3.2033
3.19154
3.1683
3.13697
3.10157
3.06366
3.02385
2.9856
2.95069
6.11376
5.73725
5.39577
5.06795
4.75166
4.44705
4.1569
3.88347
3.62916
3.39398
3.17913
2.98436
2.8111
2.66135
2.5405
2.44763
2.44487
2.46217
2.51875
2.64836
2.91403
3.38732
4.11332
5.53547
6.36542
6.44332
6.3929
6.24748
5.95378
5.65339
5.38348
5.13988
4.91655
4.70964
4.51777
4.33962
4.1753
4.02424
3.88701
3.76349
3.65421
3.55925
3.48012
3.41761
3.374
3.34698
3.32585
3.32624
3.3342
3.35748
3.40682
3.47549
3.54746
3.61026
3.65811
3.68908
3.7049
3.70682
3.70539
3.70049
3.68944
3.66887
3.64472
3.61835
3.59053
3.56147
3.53152
3.5011
3.47042
3.43974
3.40935
3.37965
3.35102
3.32403
3.29916
3.2773
3.25824
3.24209
3.23008
3.22289
3.22121
3.22235
3.22598
3.23379
3.24596
3.25777
3.26662
3.27011
3.26915
3.26549
3.25663
3.23787
3.20836
3.17436
3.13626
3.0953
3.0531
3.01039
2.97051
2.93384
6.19241
5.81058
5.47048
5.15171
4.84446
4.54988
4.26825
4.00108
3.75028
3.51728
3.30194
3.10537
2.92794
2.77004
2.64173
2.53259
2.50821
2.52015
2.56838
2.6925
2.96785
3.53853
4.71184
6.20818
6.67751
6.64839
6.54656
6.32998
6.04511
5.77372
5.52455
5.29324
5.07597
4.87106
4.67744
4.49511
4.32392
4.16421
4.0164
3.88072
3.7571
3.64642
3.54846
3.46455
3.39555
3.34306
3.30857
3.28051
3.26476
3.26767
3.28059
3.31077
3.37056
3.4355
3.49946
3.55315
3.59143
3.61348
3.62152
3.62083
3.61747
3.60899
3.59162
3.56914
3.54383
3.51739
3.49061
3.46366
3.43669
3.40994
3.38379
3.35876
3.33542
3.31442
3.29679
3.28186
3.27059
3.26321
3.26238
3.26377
3.2681
3.27734
3.29247
3.30698
3.31957
3.3271
3.32667
3.3244
3.3185
3.30501
3.27864
3.24585
3.20844
3.16757
3.12454
3.08032
3.03612
2.9924
2.95237
2.91567
6.32366
5.90671
5.54888
5.23042
4.93011
4.64385
4.37004
4.1102
3.86358
3.63346
3.41879
3.22193
3.04291
2.88189
2.75132
2.63999
2.6279
2.64379
2.69939
2.85163
3.18329
3.89233
5.30723
6.40578
6.7211
6.6963
6.61073
6.4264
6.16736
5.91112
5.67107
5.44623
5.2331
5.02959
4.83463
4.64859
4.47157
4.30493
4.14827
4.00265
3.86774
3.74416
3.63177
3.53132
3.44319
3.36882
3.30803
3.26623
3.23077
3.20491
3.20221
3.20758
3.22488
3.26255
3.32213
3.38555
3.44294
3.48801
3.51744
3.53328
3.53491
3.53339
3.52812
3.51632
3.49556
3.47282
3.44926
3.42586
3.40304
3.38106
3.36047
3.34166
3.32559
3.31266
3.30334
3.29643
3.29684
3.2989
3.30401
3.31523
3.33266
3.35038
3.36697
3.37867
3.38244
3.3813
3.37699
3.36666
3.34536
3.31493
3.27911
3.2387
3.1956
3.15084
3.10541
3.06002
3.01562
2.97242
2.93332
2.89777
6.36186
6.00555
5.63345
5.30967
5.01445
4.73334
4.46462
4.21096
3.96971
3.74338
3.53079
3.33527
3.15719
2.99969
2.87148
2.79177
2.79824
2.83412
2.93682
3.17684
3.67745
4.58006
5.44043
6.15629
6.54208
6.5977
6.56991
6.48441
6.30311
6.06207
5.82387
5.5991
5.38567
5.18105
4.98411
4.7947
4.61341
4.44097
4.27787
4.12444
3.98099
3.84728
3.72367
3.61026
3.50757
3.41621
3.337
3.27073
3.22076
3.17916
3.14799
3.12935
3.13134
3.14097
3.16461
3.21251
3.27018
3.32949
3.38037
3.4181
3.44043
3.45115
3.45085
3.44857
3.44213
3.42843
3.40958
3.39054
3.37218
3.3557
3.34187
3.33118
3.32475
3.3206
3.32155
3.32491
3.33258
3.34695
3.36606
3.38687
3.40706
3.42422
3.43324
3.43291
3.43059
3.42389
3.40878
3.38025
3.34674
3.30755
3.26482
3.21995
3.17398
3.12773
3.08198
3.03713
2.99388
2.9523
2.91487
2.88133
6.33833
6.12496
5.73659
5.39477
5.09497
4.81943
4.55753
4.30777
4.06988
3.84745
3.63887
3.44702
3.27412
3.12948
3.01707
3.01037
3.03304
3.11408
3.31629
3.74401
4.46431
5.00325
5.39383
5.80774
6.19053
6.41378
6.45755
6.43746
6.36946
6.21971
5.99715
5.76601
5.54306
5.33039
5.12759
4.93361
4.74836
4.57147
4.40345
4.24408
4.09375
3.95212
3.81961
3.69601
3.58205
3.47772
3.38394
3.30101
3.23022
3.17291
3.12728
3.08864
3.06111
3.05697
3.06098
3.07456
3.10473
3.15793
3.21579
3.27083
3.31572
3.34774
3.36633
3.37512
3.37485
3.37311
3.36835
3.35835
3.34659
3.33766
3.33193
3.33246
3.33457
3.33937
3.34969
3.36867
3.39089
3.41476
3.43929
3.46078
3.47687
3.48076
3.47952
3.47487
3.46398
3.44183
3.41056
3.37298
3.33135
3.28685
3.24071
3.194
3.14745
3.10162
3.05709
3.01397
2.9729
2.93372
2.89847
2.86735
6.27282
6.14351
5.85558
5.4931
5.18061
4.90297
4.644
4.39975
4.16743
3.94926
3.74601
3.56137
3.40363
3.28072
3.25051
3.27049
3.34646
3.5386
3.94942
4.60778
5.03648
5.23085
5.36923
5.54111
5.7837
6.06469
6.27053
6.3455
6.33214
6.27986
6.15817
5.94369
5.70888
5.48147
5.26754
5.06632
4.87602
4.69512
4.52287
4.35896
4.20316
4.05542
3.9157
3.78422
3.66122
3.54702
3.44198
3.34643
3.26097
3.18639
3.12366
3.07398
3.02924
2.99697
2.97966
2.98118
2.9891
3.00898
3.04991
3.10454
3.16263
3.21531
3.25697
3.28615
3.3048
3.31517
3.32165
3.32382
3.32536
3.32817
3.33329
3.34301
3.35771
3.37767
3.40217
3.43065
3.46023
3.48725
3.50879
3.52213
3.52191
3.51947
3.51221
3.49643
3.46848
3.43419
3.394
3.35022
3.30455
3.25767
3.21077
3.16438
3.11927
3.07544
3.03317
2.99246
2.95375
2.91708
2.88405
2.85562
6.17214
6.11141
5.93887
5.59325
5.26981
4.98698
4.72903
4.48851
4.26203
4.0503
3.85676
3.68959
3.55883
3.51949
3.5387
3.61517
3.8109
4.22981
4.88373
5.25424
5.37604
5.38385
5.3853
5.4082
5.48462
5.65448
5.93909
6.16876
6.2607
6.2498
6.20367
6.09287
5.88193
5.64441
5.41605
5.20283
5.00343
4.81595
4.63827
4.46956
4.30878
4.15581
4.01015
3.87231
3.74211
3.62019
3.50637
3.40116
3.30459
3.21728
3.13988
3.07295
3.0188
2.97095
2.93322
2.90694
2.90488
2.90876
2.92147
2.94968
3.00199
3.06153
3.12063
3.17261
3.21497
3.24736
3.27218
3.29209
3.31
3.32906
3.34899
3.37261
3.40095
3.43324
3.46724
3.50006
3.52851
3.54913
3.55728
3.55625
3.55203
3.54136
3.51965
3.48854
3.45106
3.40925
3.36442
3.31789
3.27103
3.2247
3.17932
3.13495
3.09195
3.05034
3.01036
2.97208
2.93584
2.902
2.87151
2.84653
5.98721
6.00752
5.92748
5.72279
5.37916
5.07832
4.81632
4.57851
4.35839
4.15679
3.98241
3.84701
3.80706
3.82784
3.9102
4.12091
4.57003
5.24073
5.59051
5.6241
5.60118
5.52877
5.38605
5.35007
5.3694
5.43631
5.58927
5.86013
6.07735
6.16105
6.15089
6.10803
6.00442
5.8018
5.57185
5.34727
5.13543
4.93737
4.7516
4.57633
4.41011
4.2518
4.10104
3.95766
3.82181
3.6936
3.57311
3.4603
3.35542
3.2585
3.17022
3.09096
3.02143
2.96342
2.91376
2.87185
2.84316
2.83083
2.83319
2.84266
2.86519
2.91098
2.97137
3.03804
3.10404
3.16399
3.21619
3.26069
3.30154
3.34016
3.37919
3.41912
3.45934
3.49846
3.53402
3.56265
3.58126
3.58297
3.58103
3.57487
3.56139
3.53521
3.50129
3.46173
3.41862
3.37327
3.32721
3.28123
3.23584
3.19127
3.14789
3.1057
3.06496
3.02573
2.98826
2.95278
2.91949
2.88922
2.86191
2.84157
5.53517
5.89694
5.87108
5.75273
5.49554
5.18119
4.90947
4.67286
4.46245
4.28205
4.14284
4.10856
4.13248
4.22576
4.4612
4.95996
5.64254
5.9812
5.97779
5.9321
5.80783
5.59205
5.41545
5.32765
5.33014
5.35133
5.41352
5.55148
5.77715
5.96395
6.03862
6.02987
5.99206
5.89943
5.71391
5.49605
5.27482
5.0639
4.86691
4.68247
4.50897
4.34446
4.1883
4.03981
3.899
3.76567
3.63981
3.52109
3.40976
3.30561
3.20928
3.12082
3.04088
2.9702
2.90946
2.85953
2.81642
2.78499
2.76824
2.76965
2.77675
2.79534
2.83439
2.90002
2.98002
3.06407
3.14669
3.22528
3.29609
3.36032
3.41908
3.47255
3.51919
3.55782
3.5859
3.6004
3.59965
3.59612
3.58755
3.57026
3.54171
3.50607
3.46564
3.42214
3.3775
3.33246
3.28759
3.24326
3.19988
3.15746
3.11634
3.07655
3.03839
3.00195
2.96752
2.93546
2.90585
2.88005
2.85684
2.84227
4.55883
5.65228
5.78063
5.73074
5.58908
5.29943
5.01727
4.78053
4.58582
4.44347
4.42029
4.44925
4.55858
4.82945
5.3981
6.09648
6.42295
6.40888
6.33397
6.15375
5.88824
5.6598
5.48874
5.37427
5.3234
5.32548
5.33997
5.38589
5.49015
5.6708
5.82535
5.89763
5.89143
5.86063
5.7813
5.61738
5.41141
5.19408
4.98572
4.79036
4.60737
4.43529
4.27259
4.11881
3.97302
3.83526
3.70468
3.58126
3.46478
3.35519
3.25287
3.1578
3.07038
2.99111
2.9205
2.85928
2.80871
2.76877
2.73873
2.72407
2.72618
2.7344
2.75454
2.79615
2.86541
2.95576
3.05996
3.16953
3.27444
3.36894
3.4488
3.51328
3.56082
3.59404
3.60702
3.60588
3.60139
3.59058
3.5689
3.53864
3.50275
3.46214
3.41958
3.37615
3.33258
3.28919
3.24637
3.20424
3.16321
3.12332
3.08489
3.04798
3.01291
2.97986
2.94915
2.9213
2.89635
2.87611
2.85796
2.84903
2.92255
5.07561
5.64604
5.65948
5.5947
5.43317
5.15338
4.91815
4.75254
4.73964
4.77591
4.90728
5.22583
5.88762
6.60407
6.89434
6.87074
6.77259
6.54735
6.24178
5.97835
5.7712
5.60819
5.47836
5.38215
5.32248
5.30514
5.30999
5.33534
5.40041
5.53221
5.66435
5.74158
5.73774
5.71353
5.649
5.5139
5.31721
5.10528
4.90045
4.70757
4.52641
4.35611
4.196
4.0449
3.90248
3.76746
3.63975
3.51915
3.40522
3.2987
3.19878
3.1064
3.02129
2.94424
2.87577
2.81701
2.76793
2.73212
2.70761
2.70834
2.71305
2.72552
2.75303
2.80637
2.88495
2.98345
3.10052
3.22265
3.33849