/*--------------------------------*- C++ -*----------------------------------*\
| =========                 |                                                 |
| \\      /  F ield         | OpenFOAM: The Open Source CFD Toolbox           |
|  \\    /   O peration     | Version:  2112                                  |
|   \\  /    A nd           | Website:  www.openfoam.com                      |
|    \\/     M anipulation  |                                                 |
\*---------------------------------------------------------------------------*/
FoamFile
{
    version     2.0;
    format      ascii;
    arch        "LSB;label=32;scalar=64";
    class       surfaceScalarField;
    location    "4.5";
    object      phi;
}
// * * * * * * * * * * * * * * * * * * * * * * * * * * * * * * * * * * * * * //

dimensions      [1 0 -1 0 0 0 0];

oriented        oriented;

internalField   nonuniform List<scalar> 
10325
(
0.00840003
7.24853e-11
0.00840003
5.61484e-10
0.00840003
1.72309e-09
0.00840002
5.22012e-09
0.00840001
1.22559e-08
0.00839996
3.38828e-08
0.00839989
7.13433e-08
0.00839961
2.20624e-07
0.00839918
4.15193e-07
0.00839724
1.53161e-06
0.00839403
3.08948e-06
0.00838051
1.16614e-05
0.00834676
3.16118e-05
0.00820737
0.00013169
0.00755524
0.000621736
0.00682309
0.00074511
0.00616558
0.000662099
0.00550352
0.000663873
0.00481822
0.000687211
0.00409303
0.000727709
0.00332906
0.000767235
0.00253371
0.000798886
0.00171223
0.000825983
0.000865361
0.000849812
0.000867777
0.00840003
1.41175e-10
0.00840003
1.09565e-09
0.00840003
3.3571e-09
0.00840002
1.01834e-08
0.00840001
2.38451e-08
0.00839997
6.64883e-08
0.00839989
1.37559e-07
0.00839962
4.41588e-07
0.00839922
7.94082e-07
0.00839724
3.1191e-06
0.00839407
6.10588e-06
0.00838033
2.35944e-05
0.00834623
6.35514e-05
0.0082099
0.000260533
0.00759189
0.00120935
0.00684344
0.0015065
0.00619934
0.00131088
0.00554841
0.00131665
0.00486856
0.00136898
0.00413635
0.00146238
0.00336418
0.00154274
0.00255833
0.00160815
0.00172178
0.00166692
0.000859772
0.00171477
0.00172983
0.00840003
2.02084e-10
0.00840003
1.56882e-09
0.00840003
4.79984e-09
0.00840002
1.45754e-08
0.00840001
3.4147e-08
0.00839997
9.52199e-08
0.00839991
1.9774e-07
0.00839966
6.32437e-07
0.0083993
1.13326e-06
0.00839758
4.46404e-06
0.00839484
8.69473e-06
0.00838305
3.3608e-05
0.00835405
9.04053e-05
0.00824182
0.000365784
0.00775214
0.00166866
0.00699986
0.00227146
0.00634444
0.00197127
0.00569084
0.00197222
0.00501076
0.00205098
0.00427017
0.00220547
0.00348476
0.00233136
0.00265873
0.00243769
0.00179285
0.00253732
0.00089713
0.00261321
0.00262936
0.00840003
2.45571e-10
0.00840003
1.90678e-09
0.00840003
5.82658e-09
0.00840002
1.77021e-08
0.00840001
4.15112e-08
0.00839999
1.15378e-07
0.00839994
2.41453e-07
0.00839976
7.60991e-07
0.00839951
1.36462e-06
0.0083983
5.3221e-06
0.00839656
1.02941e-05
0.00838876
3.97254e-05
0.00837102
0.000106096
0.00830589
0.000424722
0.00806171
0.00188381
0.00732144
0.0030236
0.00662812
0.00267018
0.00595818
0.00264444
0.00526808
0.00274285
0.00452053
0.00295525
0.00370788
0.00314743
0.00284486
0.00330375
0.00193319
0.003453
0.000971023
0.00357801
0.00360243
0.00840003
2.62092e-10
0.00840003
2.03206e-09
0.00840003
6.22646e-09
0.00840003
1.88444e-08
0.00840002
4.44106e-08
0.00840001
1.20784e-07
0.00839998
2.62752e-07
0.00839993
7.69213e-07
0.00839982
1.45532e-06
0.0083995
5.34459e-06
0.00839934
1.03273e-05
0.00839889
3.86874e-05
0.00839547
0.00010766
0.00840634
0.000409263
0.00861814
0.00164557
0.00789495
0.00375451
0.00707711
0.00349238
0.00636181
0.00336258
0.00564685
0.00346011
0.00488447
0.00372022
0.00404525
0.00398997
0.00312829
0.00422364
0.00214381
0.00444235
0.00109506
0.00462921
0.00469929
0.00840003
2.58026e-10
0.00840003
1.99926e-09
0.00840003
6.16377e-09
0.00840003
1.85452e-08
0.00840003
4.38565e-08
0.00840003
1.16888e-07
0.00840003
2.59446e-07
0.00840006
7.11417e-07
0.00840004
1.44784e-06
0.0084004
4.77415e-06
0.00840162
9.08316e-06
0.00840523
3.39909e-05
0.00841795
9.3758e-05
0.00850987
0.000316804
0.0088367
0.00130276
0.00828864
0.00429933
0.00744414
0.00433767
0.00673252
0.00407554
0.00603951
0.00415453
0.00527604
0.00448582
0.00442325
0.00484553
0.00347858
0.00517108
0.0024259
0.00549861
0.00125702
0.00580041
0.00595755
0.00840003
2.64901e-10
0.00840003
2.05093e-09
0.00840003
6.35063e-09
0.00840003
1.90405e-08
0.00840003
4.49226e-08
0.00840002
1.18781e-07
0.00840001
2.63427e-07
0.00839999
7.08668e-07
0.00839999
1.43913e-06
0.00839995
4.65964e-06
0.00840051
8.49108e-06
0.00840142
3.23456e-05
0.00840853
8.54954e-05
0.00844426
0.000278934
0.00857958
0.00115477
0.00824281
0.00462487
0.00753759
0.0050411
0.00697011
0.00464433
0.00633507
0.00479129
0.00563263
0.0051899
0.00479923
0.0056813
0.00385026
0.00612231
0.00276158
0.0065902
0.00149227
0.00707167
0.00745051
0.00840003
3.13613e-10
0.00840003
2.42861e-09
0.00840003
7.51414e-09
0.00840002
2.25139e-08
0.00840001
5.32849e-08
0.00839999
1.40268e-07
0.00839994
3.13936e-07
0.00839981
8.1806e-07
0.00839948
1.76076e-06
0.00839903
4.98633e-06
0.00839734
1.01516e-05
0.00839593
3.31324e-05
0.00839791
8.2966e-05
0.00837325
0.0003015
0.00848845
0.00103145
0.00815032
0.00495116
0.00786022
0.00533157
0.00723235
0.00527367
0.00656691
0.00545884
0.00593038
0.00582846
0.00517873
0.00643459
0.00426958
0.00703356
0.00317306
0.00768902
0.00181123
0.00843489
0.00926193
0.00840003
3.34789e-10
0.00840003
3.14691e-09
0.00840003
9.49941e-09
0.00840002
2.89184e-08
0.0084
6.8002e-08
0.00839996
1.82279e-07
0.00839987
4.00326e-07
0.00839961
1.06317e-06
0.00839914
2.22597e-06
0.008398
6.02474e-06
0.00839629
1.18398e-05
0.00839124
3.765e-05
0.00839305
8.07297e-05
0.0083761
0.000316687
0.00843221
0.000969958
0.0082729
0.00509906
0.00785598
0.00574965
0.00738394
0.00574747
0.00683992
0.00600433
0.0062458
0.00642459
0.00557548
0.00710658
0.00475331
0.0078575
0.0037593
0.00868491
0.00235711
0.00983809
0.0116188
0.00840003
1.47094e-10
0.00840003
4.58596e-09
0.00840003
6.98385e-09
0.00840002
3.96716e-08
0.00840004
5.01927e-08
0.00839996
2.55346e-07
0.00840009
2.68269e-07
0.00839955
1.58916e-06
0.00840057
1.20322e-06
0.0083968
9.70675e-06
0.00840358
5.03372e-06
0.00837699
6.37376e-05
0.00842044
3.70583e-05
0.00829033
0.000445028
0.00843717
0.000819144
0.00836658
0.00515807
0.00797097
0.00614677
0.00755259
0.00616742
0.00712999
0.00642833
0.00661068
0.00694547
0.00607112
0.00764732
0.00544573
0.00848484
0.00454904
0.00958358
0.00321565
0.0111729
0.0148336
0.00840003
5.20008e-10
0.00840003
7.90448e-10
0.00840003
7.71818e-09
0.00840006
8.66618e-09
0.00840006
5.50393e-08
0.00840026
5.17435e-08
0.00840015
3.68919e-07
0.00840149
2.62996e-07
0.00840001
2.62995e-06
0.00840823
1.43906e-06
0.00839428
1.86781e-05
0.00844666
1.05073e-05
0.00834223
0.000140104
0.00861779
0.000168859
0.00830997
0.00112323
0.00853172
0.00492413
0.00816168
0.00651909
0.00775218
0.00657887
0.00739557
0.00678589
0.00703388
0.0073088
0.00665764
0.00802483
0.00623195
0.00891187
0.00583958
0.00997759
0.00585469
0.0111593
0.0118505
0.00883853
0.00840003
2.84552e-10
0.00840003
1.53419e-09
0.00840003
5.26614e-09
0.00840003
1.45983e-08
0.00840004
3.70999e-08
0.0084
9.07396e-08
0.00840015
2.27068e-07
0.00839985
5.40203e-07
0.00840113
1.37221e-06
0.00839875
3.82853e-06
0.00840883
8.73284e-06
0.00839034
2.95363e-05
0.00845939
7.11436e-05
0.00832802
0.000298535
0.00863123
0.000817629
0.00904559
0.00449725
0.00857284
0.00699436
0.00805374
0.00710009
0.00770937
0.00713135
0.00743832
0.0075807
0.00718854
0.00827648
0.00698039
0.00912192
0.00693575
0.0100236
0.00738944
0.010707
0.0107373
0.00850024
0.00840003
2.62957e-10
0.00840003
2.04651e-09
0.00840003
6.26068e-09
0.00840002
1.89955e-08
0.00840002
4.49595e-08
0.00839998
1.2089e-07
0.00839994
2.72412e-07
0.00839975
7.22305e-07
0.00839951
1.60202e-06
0.0083989
4.38214e-06
0.00839802
9.57973e-06
0.00839766
2.95605e-05
0.00840374
6.48839e-05
0.0084508
0.000250092
0.00857856
0.000687884
0.00980329
0.00326059
0.00920236
0.0075979
0.0085471
0.00775791
0.00813853
0.00754157
0.00787616
0.00784361
0.00772062
0.0084329
0.00769307
0.00915096
0.0078829
0.00983601
0.00841462
0.010177
0.0100022
0.00914936
0.00840003
2.70404e-10
0.00840003
2.10371e-09
0.00840003
6.42108e-09
0.00840003
1.94708e-08
0.00840003
4.60701e-08
0.00840002
1.2369e-07
0.00840002
2.79106e-07
0.0084
7.31225e-07
0.00839994
1.65663e-06
0.00840009
4.19107e-06
0.00839944
1.02086e-05
0.00840494
2.38153e-05
0.00840336
6.62975e-05
0.00847279
0.000179541
0.00860932
0.000551467
0.00967577
0.00218717
0.00959103
0.00767917
0.00925116
0.0080978
0.00866396
0.0081298
0.00836117
0.0081474
0.00825499
0.00854009
0.00834179
0.00906554
0.00859965
0.00957918
0.00903257
0.00974555
0.00944332
0.00959408
0.00840003
2.34021e-10
0.00840003
1.81611e-09
0.00840003
5.5847e-09
0.00840003
1.68329e-08
0.00840004
3.99554e-08
0.00840006
1.06022e-07
0.00840009
2.39562e-07
0.0084002
6.17645e-07
0.00840046
1.39942e-06
0.00840107
3.54022e-06
0.00840312
8.1236e-06
0.00840539
2.13633e-05
0.0084216
4.98211e-05
0.00844679
0.000153536
0.00854197
0.000455149
0.00898022
0.00174576
0.00961976
0.00703002
0.0093864
0.00832961
0.00904769
0.0084679
0.00880448
0.00839149
0.0087293
0.00861606
0.00883827
0.00895717
0.00912932
0.00928983
0.00950324
0.00937213
0.00903014
0.00991745
0.00840003
1.88815e-10
0.00840003
1.46095e-09
0.00840003
4.52738e-09
0.00840003
1.35651e-08
0.00840004
3.21622e-08
0.00840006
8.46531e-08
0.00840011
1.89818e-07
0.00840023
4.94718e-07
0.00840057
1.05506e-06
0.00840107
3.01614e-06
0.00840341
5.78931e-06
0.00840501
1.95829e-05
0.00841647
3.83924e-05
0.00843005
0.000139178
0.00851982
0.000364758
0.00878162
0.00148153
0.00970669
0.00609647
0.00959796
0.00843831
0.00938638
0.00867939
0.00919116
0.00858694
0.00914074
0.00866807
0.00922427
0.00887492
0.00948049
0.00903652
0.00982006
0.0090302
0.00870646
0.0101484
0.00840003
1.65947e-10
0.00840003
1.28566e-09
0.00840003
3.96027e-09
0.00840003
1.19095e-08
0.00840004
2.82015e-08
0.00840005
7.46492e-08
0.00840007
1.67484e-07
0.00840012
4.35125e-07
0.00840022
9.56797e-07
0.00840063
2.58153e-06
0.00840109
5.32825e-06
0.00840368
1.6855e-05
0.00840934
3.27199e-05
0.00842698
0.000120862
0.00848436
0.000306847
0.00873891
0.00122455
0.0103683
0.00445838
0.0100812
0.00872515
0.0098694
0.00889132
0.00960577
0.00885083
0.00955858
0.00871512
0.00963041
0.00880353
0.00980361
0.00886505
0.010065
0.0087714
0.0084499
0.0103218
0.00840003
1.37274e-10
0.00840003
1.11214e-09
0.00840003
3.44644e-09
0.00840003
1.02684e-08
0.00840004
2.45752e-08
0.00840005
6.43058e-08
0.00840007
1.46452e-07
0.00840013
3.73709e-07
0.00840024
8.39908e-07
0.00840065
2.15461e-06
0.0084012
4.77223e-06
0.00840506
1.28887e-05
0.00840996
2.76982e-05
0.0084469
8.35737e-05
0.00853352
0.000219229
0.00902838
0.000729939
0.010994
0.00248674
0.0109373
0.00877857
0.0105877
0.00924168
0.0101944
0.00924475
0.00997296
0.00893701
0.0099846
0.00879196
0.0101066
0.00874234
0.010284
0.00859444
0.0082645
0.0104699
0.00840003
5.46449e-11
0.00840003
1.13177e-09
0.00840003
2.172e-09
0.00840003
9.91579e-09
0.00840004
1.59764e-08
0.00840004
6.16384e-08
0.00840009
9.57447e-08
0.00840011
3.59643e-07
0.00840041
5.39076e-07
0.00840041
2.13735e-06
0.00840241
2.76605e-06
0.00840164
1.35935e-05
0.00841603
1.32969e-05
0.00840828
9.09073e-05
0.00852626
0.000101129
0.00857916
0.00067567
0.00942223
0.00164114
0.0109824
0.00720947
0.0109233
0.00929908
0.0106787
0.00948875
0.0103909
0.00922524
0.0103135
0.00887062
0.0103793
0.0086776
0.0105004
0.00847446
0.00814429
0.0106216
0.00840003
9.6108e-11
0.00840003
5.63884e-10
0.00840003
2.05235e-09
0.00840004
5.37559e-09
0.00840004
1.44656e-08
0.00840006
3.35063e-08
0.00840007
8.49639e-08
0.00840024
1.91148e-07
0.00840028
4.94178e-07
0.00840137
1.0501e-06
0.00840101
3.0996e-06
0.00840874
5.87636e-06
0.00840159
2.02734e-05
0.00845344
3.91056e-05
0.00840975
0.000144083
0.00872738
0.000357668
0.00888559
0.00148025
0.0109777
0.00511136
0.0111739
0.00910152
0.0110928
0.00956904
0.010852
0.00946607
0.0106676
0.00905506
0.0106276
0.00871836
0.0106798
0.00842356
0.00806698
0.010758
0.00840003
1.19317e-10
0.00840003
3.53799e-10
0.00840003
2.03873e-09
0.00840003
3.60413e-09
0.00840003
1.40865e-08
0.00840004
2.29067e-08
0.00840004
8.31418e-08
0.0084001
1.32232e-07
0.00840012
4.77854e-07
0.00840043
7.38527e-07
0.00840071
2.80324e-06
0.0084026
3.98004e-06
0.00840516
1.76301e-05
0.00842223
2.20149e-05
0.00844912
0.000116847
0.00861229
0.000193653
0.00923645
0.000855611
0.0115419
0.00279845
0.0118104
0.00882983
0.0117039
0.00967538
0.0113986
0.00977159
0.0111222
0.0093322
0.0109811
0.00885973
0.0109287
0.00847704
0.00807464
0.010922
0.00840003
3.96387e-11
0.00840003
4.38811e-10
0.00840003
9.96682e-10
0.00840003
3.95556e-09
0.00840004
7.19331e-09
0.00840004
2.46267e-08
0.00840008
4.28516e-08
0.00840006
1.42362e-07
0.0084003
2.44623e-07
0.00840021
8.16224e-07
0.00840164
1.37569e-06
0.00840076
4.83244e-06
0.00841073
7.64314e-06
0.0084018
3.07772e-05
0.00847146
4.70347e-05
0.00844977
0.000214622
0.00884887
0.000455544
0.00978231
0.00186239
0.0116521
0.0069514
0.0118127
0.00951458
0.0117348
0.00984967
0.0114163
0.0096518
0.0112911
0.0089852
0.0112105
0.00855831
0.00813636
0.0111494
0.00840003
6.07263e-11
0.00840003
2.11916e-10
0.00840003
1.11189e-09
0.00840003
2.1222e-09
0.00840003
7.76162e-09
0.00840004
1.35433e-08
0.00840004
4.60966e-08
0.0084001
7.90502e-08
0.00840008
2.65267e-07
0.00840044
4.53161e-07
0.00840028
1.52513e-06
0.00840252
2.5958e-06
0.00840102
9.07984e-06
0.00841713
1.46854e-05
0.00840361
6.01917e-05
0.00852343
9.47619e-05
0.00851544
0.000462282
0.00924946
0.00112697
0.0118004
0.00439044
0.0120499
0.00926333
0.0120731
0.00982743
0.0119248
0.00980151
0.0115648
0.00934647
0.0114472
0.00867677
0.00821222
0.0113716
0.00840003
3.07676e-11
0.00840003
2.05726e-10
0.00840003
6.50015e-10
0.00840003
1.93414e-09
0.00840003
4.63107e-09
0.00840004
1.21666e-08
0.00840005
2.75756e-08
0.00840006
7.05724e-08
0.00840017
1.57976e-07
0.00840022
4.02859e-07
0.00840084
8.99676e-07
0.00840111
2.31127e-06
0.00840503
5.15829e-06
0.00840595
1.36666e-05
0.00843542
3.07079e-05
0.00844185
8.78359e-05
0.00868394
0.000219812
0.00906507
0.000744357
0.0111403
0.00231174
0.0124459
0.00795107
0.0124629
0.0098096
0.0122596
0.0100045
0.0118726
0.00973432
0.0116969
0.0088536
0.00834851
0.0115613
0.00840003
1.99111e-11
0.00840003
1.5664e-10
0.00840003
4.87277e-10
0.00840003
1.44715e-09
0.00840003
3.46391e-09
0.00840004
9.0178e-09
0.00840004
2.05072e-08
0.00840006
5.18913e-08
0.0084001
1.16561e-07
0.00840021
2.93404e-07
0.00840045
6.55414e-07
0.00840109
1.66695e-06
0.00840261
3.63525e-06
0.00840628
9.93378e-06
0.00841717
1.98377e-05
0.00843861
6.60088e-05
0.00852802
0.00013045
0.00874169
0.000529513
0.00961844
0.00143336
0.0120483
0.00551331
0.0124682
0.00938756
0.0126022
0.00987035
0.0125199
0.00981636
0.0120685
0.00930563
0.00859962
0.0118192
0.00840003
8.93068e-12
0.00840003
1.35411e-10
0.00840003
2.95871e-10
0.00840003
1.19822e-09
0.00840003
2.15411e-09
0.00840003
7.40176e-09
0.00840004
1.28499e-08
0.00840005
4.25413e-08
0.00840009
7.3338e-08
0.00840014
2.41152e-07
0.00840039
4.13522e-07
0.00840068
1.37027e-06
0.00840201
2.29996e-06
0.00840389
8.01958e-06
0.00841131
1.24027e-05
0.00842734
4.97798e-05
0.00848198
7.57125e-05
0.00867253
0.000338233
0.00935494
0.000749364
0.0120897
0.00277617
0.0128626
0.00860911
0.0128659
0.00986601
0.0126954
0.00998629
0.0123572
0.00964379
0.00884061
0.0121164
0.00840003
1.12548e-11
0.00840003
6.81328e-11
0.00840003
2.48482e-10
0.00840003
6.4707e-10
0.00840003
1.7543e-09
0.00840003
4.04332e-09
0.00840004
1.03165e-08
0.00840006
2.31685e-08
0.00840007
5.82496e-08
0.00840018
1.29997e-07
0.00840027
3.26057e-07
0.00840091
7.25711e-07
0.00840135
1.85095e-06
0.00840535
4.01183e-06
0.00840656
1.11171e-05
0.00843372
2.26212e-05
0.00843655
7.24736e-05
0.00862266
0.000151857
0.0087772
0.000593613
0.00992792
0.0016226
0.0126224
0.0059063
0.0129729
0.00951469
0.0131043
0.00985388
0.0129054
0.00984242
0.00925359
0.0124931
0.00840003
8.84752e-12
0.00840003
4.79137e-11
0.00840003
1.7607e-10
0.00840003
4.55659e-10
0.00840003
1.23476e-09
0.00840003
2.84889e-09
0.00840004
7.25795e-09
0.00840004
1.63284e-08
0.00840006
4.10262e-08
0.0084001
9.17018e-08
0.00840019
2.29883e-07
0.0084004
5.12242e-07
0.00840096
1.2895e-06
0.0084021
2.86036e-06
0.00840582
7.34896e-06
0.00841218
1.62162e-05
0.00844029
4.40465e-05
0.00848826
0.000103648
0.00876314
0.000317313
0.00947992
0.000904034
0.0122388
0.00313634
0.0132384
0.00851263
0.0133163
0.00977586
0.0132096
0.00994916
0.00961929
0.0128444
0.00840003
7.86942e-12
0.00840003
2.67551e-11
0.00840003
1.37154e-10
0.00840003
2.70111e-10
0.00840003
9.47632e-10
0.00840003
1.70966e-09
0.00840003
5.54529e-09
0.00840004
9.83644e-09
0.00840005
3.13067e-08
0.00840009
5.53272e-08
0.00840014
1.75492e-07
0.00840034
3.08997e-07
0.00840064
9.84817e-07
0.00840178
1.72011e-06
0.00840349
5.60448e-06
0.00841015
9.5203e-06
0.00842045
3.35748e-05
0.00846808
5.57516e-05
0.00856472
0.000219867
0.00897077
0.000496653
0.0102668
0.00183804
0.0128635
0.0059085
0.0132981
0.00934078
0.013528
0.00972001
0.00978588
0.0133636
0.00840003
3.37882e-12
0.00840003
2.30583e-11
0.00840003
7.25716e-11
0.00840003
2.15677e-10
0.00840003
5.14111e-10
0.00840003
1.34307e-09
0.00840003
3.02632e-09
0.00840004
7.67959e-09
0.00840005
1.70826e-08
0.00840006
4.30644e-08
0.00840014
9.54561e-08
0.00840021
2.40511e-07
0.00840066
5.32358e-07
0.00840102
1.34676e-06
0.00840364
2.97792e-06
0.00840545
7.65336e-06
0.00842197
1.70187e-05
0.00843202
4.53443e-05
0.00854452
0.000107156
0.00872552
0.000314122
0.00964202
0.00091997
0.0124738
0.00306543
0.0135408
0.00827204
0.0136212
0.00964046
0.00975653
0.0136519
0.00840003
2.02289e-12
0.00840003
1.57175e-11
0.00840003
4.89431e-11
0.00840003
1.45186e-10
0.00840003
3.46717e-10
0.00840003
8.99838e-10
0.00840003
2.03793e-09
0.00840003
5.13523e-09
0.00840004
1.14908e-08
0.00840005
2.87585e-08
0.00840009
6.41497e-08
0.00840016
1.60376e-07
0.00840034
3.57064e-07
0.00840079
8.94685e-07
0.00840177
1.98721e-06
0.00840436
5.03802e-06
0.00841025
1.10952e-05
0.00842567
2.97604e-05
0.00846884
6.37027e-05
0.00858494
0.000197172
0.00899589
0.00050781
0.010137
0.00192257
0.0130358
0.00536802
0.0136101
0.00906525
0.00957714
0.0137903
0.00840003
9.58836e-13
0.00840003
1.17037e-11
0.00840003
2.78284e-11
0.00840003
1.04263e-10
0.00840003
2.00141e-10
0.00840003
6.39125e-10
0.00840003
1.17762e-09
0.00840003
3.62082e-09
0.00840004
6.61672e-09
0.00840005
2.01378e-08
0.00840007
3.67257e-08
0.00840012
1.11484e-07
0.00840028
2.02792e-07
0.00840055
6.16942e-07
0.00840142
1.11641e-06
0.008403
3.43622e-06
0.00840795
6.12638e-06
0.00841801
1.96313e-05
0.00844675
3.47468e-05
0.00852422
0.000119541
0.00878143
0.000249154
0.00980341
0.000900563
0.0124977
0.00266646
0.0138837
0.00767436
0.00952229
0.0139395
0.00840003
1.21519e-12
0.00840003
5.04515e-12
0.00840003
2.32705e-11
0.00840003
4.951e-11
0.00840003
1.61508e-10
0.00840003
3.10263e-10
0.00840003
9.40992e-10
0.00840003
1.76968e-09
0.00840003
5.2712e-09
0.00840004
9.86745e-09
0.00840005
2.92593e-08
0.00840011
5.46828e-08
0.00840015
1.62138e-07
0.00840046
3.02299e-07
0.00840067
8.99637e-07
0.00840244
1.67058e-06
0.00840352
5.03843e-06
0.00841386
9.26443e-06
0.00841909
2.92876e-05
0.00848557
5.40024e-05
0.00854543
0.000185802
0.00901739
0.00043257
0.0101599
0.00151439
0.013133
0.0047013
0.00865707
0.0139967
0.00840003
5.65448e-13
0.00840003
3.87125e-12
0.00840003
1.21596e-11
0.00840003
3.61299e-11
0.00840003
8.59618e-11
0.00840003
2.24035e-10
0.00840003
5.0346e-10
0.00840003
1.2728e-09
0.00840003
2.82226e-09
0.00840004
7.08246e-09
0.00840005
1.56479e-08
0.00840007
3.92177e-08
0.00840014
8.64931e-08
0.00840022
2.17093e-07
0.00840065
4.78124e-07
0.0084011
1.20648e-06
0.00840348
2.65394e-06
0.00840594
6.77256e-06
0.00842007
1.51443e-05
0.00843502
3.89257e-05
0.00852637
9.41267e-05
0.00870317
0.000255141
0.0094738
0.000744565
0.0117695
0.00240144
0.00659199
0.0138253
0.00840003
3.21117e-13
0.00840003
2.48709e-12
0.00840003
7.74425e-12
0.00840003
2.29865e-11
0.00840003
5.47793e-11
0.00840003
1.41878e-10
0.00840003
3.20214e-10
0.00840003
8.04074e-10
0.00840003
1.79177e-09
0.00840003
4.46517e-09
0.00840004
9.91813e-09
0.00840005
2.46678e-08
0.00840009
5.47248e-08
0.00840017
1.36093e-07
0.00840034
3.01481e-07
0.00840079
7.51389e-07
0.00840178
1.66111e-06
0.00840436
4.17688e-06
0.0084103
9.1826e-06
0.00842515
2.39693e-05
0.00846665
5.23747e-05
0.00857186
0.000149549
0.00893632
0.00037917
0.0100348
0.00130018
0.00358072
0.0130355
0.00840003
1.45357e-13
0.00840003
1.75568e-12
0.00840003
4.2853e-12
0.00840003
1.5662e-11
0.00840003
3.0799e-11
0.00840003
9.57716e-11
0.00840003
1.80693e-10
0.00840003
5.40356e-10
0.00840003
1.01149e-09
0.00840003
2.99133e-09
0.00840004
5.59737e-09
0.00840005
1.64809e-08
0.00840007
3.08751e-08
0.00840011
9.06986e-08
0.00840025
1.6999e-07
0.0084005
4.99404e-07
0.00840122
9.33935e-07
0.00840262
2.76208e-06
0.00840669
5.10423e-06
0.00841483
1.57616e-05
0.00843961
2.7521e-05
0.00849104
9.78013e-05
0.00869429
0.000175469
0.00929077
0.000702618
0.0018664
0.0110013
0.00840003
1.43428e-13
0.00840003
8.27696e-13
0.00840003
3.04406e-12
0.00840003
7.87274e-12
0.00840003
2.13166e-11
0.00840003
4.87522e-11
0.00840003
1.23746e-10
0.00840003
2.75356e-10
0.00840003
6.87475e-10
0.00840003
1.52026e-09
0.00840003
3.77586e-09
0.00840004
8.34016e-09
0.00840005
2.06613e-08
0.0084001
4.56326e-08
0.00840015
1.12855e-07
0.0084004
2.49175e-07
0.00840072
6.16085e-07
0.00840212
1.35991e-06
0.00840382
3.3878e-06
0.00841213
7.44146e-06
0.00842031
1.922e-05
0.00847598
4.21095e-05
0.00853492
0.000115995
0.00895167
0.000284993
0.000921627
0.00989862
0.00840003
1.12253e-13
0.00840003
4.29941e-13
0.00840003
2.01703e-12
0.00840003
4.27475e-12
0.00840003
1.38769e-11
0.00840003
2.67152e-11
0.00840003
8.00783e-11
0.00840003
1.51084e-10
0.00840003
4.43517e-10
0.00840003
8.334e-10
0.00840003
2.4308e-09
0.00840004
4.56603e-09
0.00840004
1.32809e-08
0.00840006
2.49505e-08
0.0084001
7.24703e-08
0.00840022
1.36e-07
0.00840044
3.95379e-07
0.00840106
7.38995e-07
0.00840227
2.16985e-06
0.00840573
3.97479e-06
0.00841256
1.23296e-05
0.00843368
2.10364e-05
0.00847333
7.59353e-05
0.00862846
0.000130079
0.000524635
0.0090244
0.00840003
4.56915e-14
0.00840003
3.12903e-13
0.00840003
9.88612e-13
0.00840003
2.91781e-12
0.00840003
6.95968e-12
0.00840003
1.79771e-11
0.00840003
4.04245e-11
0.00840003
1.01149e-10
0.00840003
2.24221e-10
0.00840003
5.56498e-10
0.00840003
1.22904e-09
0.00840003
3.04386e-09
0.00840004
6.7144e-09
0.00840005
1.66216e-08
0.00840008
3.66343e-08
0.00840013
9.0731e-08
0.00840032
1.99724e-07
0.00840057
4.95584e-07
0.00840164
1.09013e-06
0.00840288
2.72243e-06
0.00840922
5.98723e-06
0.00841481
1.53645e-05
0.00845705
3.36614e-05
0.00849321
9.3531e-05
0.000216883
0.0088005
0.00840003
2.40968e-14
0.00840003
1.86303e-13
0.00840003
5.8043e-13
0.00840003
1.72046e-12
0.00840003
4.09236e-12
0.00840003
1.05477e-11
0.00840003
2.37168e-11
0.00840003
5.91458e-11
0.00840003
1.31173e-10
0.00840003
3.24297e-10
0.00840003
7.16641e-10
0.00840003
1.76704e-09
0.00840004
3.90055e-09
0.00840004
9.60734e-09
0.00840006
2.11944e-08
0.0084001
5.21794e-08
0.00840018
1.15018e-07
0.00840039
2.83272e-07
0.00840086
6.23562e-07
0.00840203
1.54044e-06
0.00840463
3.38207e-06
0.00841145
8.48138e-06
0.0084266
1.84823e-05
0.00847115
4.87407e-05
0.000109145
0.00857817
0.00840003
1.04498e-14
0.00840003
1.2085e-13
0.00840003
3.02694e-13
0.00840003
1.07958e-12
0.00840003
2.16508e-12
0.00840003
6.55824e-12
0.00840003
1.25829e-11
0.00840003
3.66079e-11
0.00840003
6.95474e-11
0.00840003
2.001e-10
0.00840003
3.79421e-10
0.00840003
1.08768e-09
0.00840003
2.06246e-09
0.00840004
5.90168e-09
0.00840005
1.11938e-08
0.00840007
3.19935e-08
0.00840012
6.06421e-08
0.00840023
1.73358e-07
0.00840053
3.27577e-07
0.00840113
9.40164e-07
0.00840275
1.76463e-06
0.00840601
5.14277e-06
0.00841511
9.5184e-06
0.00843394
2.87346e-05
5.45182e-05
0.00849319
0.00840003
9.22109e-15
0.00840003
5.42397e-14
0.00840003
1.97565e-13
0.00840003
5.1385e-13
0.00840003
1.37932e-12
0.00840003
3.16142e-12
0.00840003
7.94648e-12
0.00840003
1.76815e-11
0.00840003
4.37061e-11
0.00840003
9.65051e-11
0.00840003
2.37487e-10
0.00840003
5.23241e-10
0.00840003
1.28621e-09
0.00840003
2.83142e-09
0.00840004
6.96017e-09
0.00840006
1.53094e-08
0.00840008
3.76628e-08
0.00840017
8.27349e-08
0.00840029
2.03922e-07
0.00840078
4.47247e-07
0.00840144
1.10737e-06
0.00840415
2.42415e-06
0.00840758
6.05912e-06
0.00842281
1.34024e-05
3.40486e-05
0.00844327
0.00840003
5.24456e-15
0.00840003
2.96999e-14
0.00840003
1.08164e-13
0.00840003
2.79882e-13
0.00840003
7.50621e-13
0.00840003
1.71661e-12
0.00840003
4.2955e-12
0.00840003
9.53915e-12
0.00840003
2.34366e-11
0.00840003
5.1635e-11
0.00840003
1.26145e-10
0.00840003
2.77225e-10
0.00840003
6.75576e-10
0.00840003
1.48294e-09
0.00840004
3.60718e-09
0.00840004
7.90841e-09
0.00840006
1.92063e-08
0.0084001
4.20183e-08
0.0084002
1.01986e-07
0.00840043
2.22297e-07
0.00840099
5.40949e-07
0.00840223
1.17363e-06
0.00840532
2.88284e-06
0.00841249
6.226e-06
1.55966e-05
0.00843058
0.00840003
3.90185e-15
0.00840003
1.21077e-14
0.00840003
6.4904e-14
0.00840003
1.24581e-13
0.00840003
4.39162e-13
0.00840003
7.68324e-13
0.00840003
2.48713e-12
0.00840003
4.228e-12
0.00840003
1.34564e-11
0.00840003
2.25174e-11
0.00840003
7.18002e-11
0.00840003
1.18504e-10
0.00840003
3.80903e-10
0.00840003
6.19515e-10
0.00840003
2.01269e-09
0.00840004
3.21891e-09
0.00840005
1.05947e-08
0.00840007
1.6601e-08
0.00840012
5.55683e-08
0.00840025
8.47592e-08
0.0084005
2.90781e-07
0.00840124
4.27156e-07
0.00840256
1.52562e-06
0.00840665
2.09985e-06
8.28815e-06
0.00841375
0.00840003
1.25084e-15
0.00840003
8.01383e-15
0.00840003
2.61593e-14
0.00840003
7.47691e-14
0.00840003
1.81957e-13
0.00840003
4.5201e-13
0.00840003
1.03059e-12
0.00840003
2.46207e-12
0.00840003
5.52048e-12
0.00840003
1.29949e-11
0.00840003
2.90332e-11
0.00840003
6.77522e-11
0.00840003
1.51427e-10
0.00840003
3.50626e-10
0.00840003
7.85043e-10
0.00840003
1.80218e-09
0.00840004
4.04513e-09
0.00840005
9.19251e-09
0.00840008
2.06994e-08
0.00840012
4.64701e-08
0.0084003
1.05117e-07
0.00840048
2.32525e-07
0.00840146
5.30578e-07
0.00840233
1.1521e-06
2.70109e-06
0.00840783
0.00840003
5.40936e-16
0.00840003
4.52676e-15
0.00840003
1.37627e-14
0.00840003
4.05315e-14
0.00840003
9.49112e-14
0.00840003
2.42405e-13
0.00840003
5.35132e-13
0.00840003
1.31815e-12
0.00840003
2.85649e-12
0.00840003
6.97385e-12
0.00840003
1.49735e-11
0.00840003
3.6543e-11
0.00840003
7.79017e-11
0.00840003
1.90661e-10
0.00840003
4.03507e-10
0.00840003
9.92015e-10
0.00840003
2.0825e-09
0.00840004
5.14963e-09
0.00840005
1.07046e-08
0.00840006
2.66648e-08
0.00840011
5.45082e-08
0.00840019
1.37903e-07
0.00840044
2.67641e-07
0.00840078
7.1651e-07
1.17974e-06
0.00840219
0.00840003
-2.31287e-16
0.00840003
3.80875e-15
0.00840003
3.39629e-15
0.00840003
3.09576e-14
0.00840003
2.61573e-14
0.00840003
1.83247e-13
0.00840003
1.464e-13
0.00840003
1.01104e-12
0.00840003
7.54619e-13
0.00840003
5.47883e-12
0.00840003
3.78243e-12
0.00840003
2.95582e-11
0.00840003
1.87004e-11
0.00840003
1.59442e-10
0.00840003
9.15873e-11
0.00840003
8.61774e-10
0.00840003
4.44321e-10
0.00840003
4.67868e-09
0.00840004
2.12064e-09
0.00840004
2.55907e-08
0.00840008
9.51966e-09
0.00840006
1.43099e-07
0.00840029
2.26174e-08
0.00840004
8.70147e-07
-3.66279e-07
0.00840148
0.00840003
4.93475e-16
0.00840003
-8.12447e-16
0.00840003
4.7887e-15
0.00840003
-2.42625e-15
0.00840003
3.09348e-14
0.00840003
-1.44498e-14
0.00840003
1.70512e-13
0.00840003
-1.03981e-13
0.00840003
9.06369e-13
0.00840003
-8.08062e-13
0.00840003
4.74375e-12
0.00840003
-6.05031e-12
0.00840003
2.45937e-11
0.00840003
-4.20111e-11
0.00840003
1.26491e-10
0.00840003
-2.79425e-10
0.00840003
6.46627e-10
0.00840004
-1.81386e-09
0.00840003
3.31027e-09
0.00840007
-1.16294e-08
0.00840005
1.778e-08
0.00840026
-7.57559e-08
0.00840011
1.20017e-07
0.00840141
-5.47683e-07
1.16208e-06
0.00839961
0.00840003
1.21404e-16
0.00840003
-2.08899e-16
0.00840003
8.35296e-16
0.00840003
-2.22004e-15
0.00840003
4.63e-15
0.00840003
-1.55371e-14
0.00840003
2.37789e-14
0.00840003
-1.00868e-13
0.00840003
1.09404e-13
0.00840003
-6.4901e-13
0.00840003
4.60713e-13
0.00840003
-4.12433e-12
0.00840003
1.87743e-12
0.00840003
-2.5848e-11
0.00840003
4.64186e-12
0.00840003
-1.60106e-10
0.00840003
-6.27658e-12
0.00840003
-9.82913e-10
0.00840003
-2.03207e-10
0.00840002
-5.98256e-09
0.00840004
-1.63524e-09
0.00839998
-3.64324e-08
0.00840009
-1.05539e-09
0.00839967
-2.28252e-07
1.71344e-07
0.00840056
0.00840003
0.00840003
0.00840003
0.00840003
0.00840003
0.00840003
0.00840003
0.00840003
0.00840003
0.00840003
0.00840003
0.00840003
0.00840003
0.00840003
0.00840003
0.00840003
0.00840003
0.00840003
0.00840003
0.00840002
0.00840001
0.00839996
0.00839994
0.00839962
0.00839968
0.00470001
0.00413716
0.00306275
0.00163595
0.00236536
0.000695059
0.00204944
0.00030629
0.00199055
4.71562e-05
0.00214476
-0.000185112
0.0022147
-0.000121851
0.00189367
0.000236684
0.00118527
0.000591134
0.000460103
0.000680945
-0.000165741
0.000630744
-0.000722844
0.000537747
-0.00127236
0.0005147
-0.00170003
0.000441401
-0.00201866
0.000331453
-0.00224516
0.000224439
-0.00237415
0.000133462
-0.0024591
9.10777e-05
-0.00253753
8.45056e-05
-0.00262156
9.2115e-05
-0.00270721
9.19369e-05
-0.00278685
8.37509e-05
-0.00285309
7.28046e-05
-0.00290458
5.82431e-05
-0.00294992
5.1001e-05
-0.00299911
5.36315e-05
-0.00304132
4.49807e-05
-0.00306497
2.57291e-05
-0.00306946
3.37741e-06
-0.00304404
-2.90728e-05
-0.00297546
-7.46534e-05
-0.00285799
-0.000125855
-0.00269264
-0.00017411
-0.00248327
-0.000218705
-0.00223974
-0.000251897
-0.00197675
-0.000271227
-0.00170055
-0.000283357
-0.00142164
-0.000284678
-0.00113017
-0.000296601
-0.000841213
-0.000293061
-0.000556421
-0.000288224
-0.000271884
-0.000287595
2.72041e-05
-0.000301781
0.000303941
-0.000279024
0.000561668
-0.000259459
0.000808007
-0.00024781
0.00104464
-0.000237788
0.00126958
-0.000225932
0.00148257
-0.000213903
0.00168519
-0.000203284
0.00188262
-0.000197947
0.002075
-0.000192969
0.00225839
-0.000184195
0.00243126