/*--------------------------------*- C++ -*----------------------------------*\
| =========                 |                                                 |
| \\      /  F ield         | OpenFOAM: The Open Source CFD Toolbox           |
|  \\    /   O peration     | Version:  2112                                  |
|   \\  /    A nd           | Website:  www.openfoam.com                      |
|    \\/     M anipulation  |                                                 |
\*---------------------------------------------------------------------------*/
FoamFile
{
    version     2.0;
    format      ascii;
    arch        "LSB;label=32;scalar=64";
    class       volScalarField;
    location    "4.5";
    object      T;
}
// * * * * * * * * * * * * * * * * * * * * * * * * * * * * * * * * * * * * * //

dimensions      [0 0 0 1 0 0 0];

internalField   nonuniform List<scalar> 
5250
(
1.00001
1.00002
1.00006
1.0001
1.00033
1.00061
1.00182
1.00375
1.00979
1.02532
1.05761
1.17589
1.40441
2.12951
2.64971
2.75209
2.74634
2.74192
2.7557
2.76905
2.77899
2.78657
2.78969
2.79247
2.79957
1.00001
1.00002
1.00006
1.0001
1.00033
1.0006
1.0018
1.00368
1.00965
1.02478
1.05657
1.1722
1.39596
2.11128
2.64415
2.75166
2.74582
2.74068
2.75434
2.76756
2.7773
2.78466
2.78782
2.79002
2.79678
1.00001
1.00002
1.00005
1.0001
1.00032
1.00058
1.00175
1.00354
1.00939
1.02362
1.05445
1.16433
1.37771
2.06982
2.62883
2.74905
2.74324
2.73686
2.75096
2.76403
2.77447
2.78214
2.78519
2.78786
2.794
1.00001
1.00001
1.00005
1.00009
1.0003
1.00055
1.00169
1.00333
1.009
1.02196
1.0514
1.15295
1.35118
2.00529
2.60366
2.74367
2.73843
2.72905
2.7436
2.75654
2.76576
2.77541
2.78019
2.78236
2.78985
1.00001
1.00001
1.00005
1.00009
1.00029
1.00052
1.00161
1.00309
1.00853
1.01998
1.04775
1.13928
1.319
1.9268
2.56459
2.73248
2.72769
2.71923
2.73607
2.7496
2.76032
2.7665
2.77205
2.7763
2.78125
1.00001
1.00001
1.00005
1.00008
1.00027
1.00048
1.00151
1.00284
1.00808
1.01801
1.04446
1.12558
1.2895
1.78959
2.56355
2.71705
2.7074
2.69899
2.71745
2.732
2.74868
2.75703
2.75857
2.76222
2.77179
1.00001
1.00001
1.00004
1.00008
1.00025
1.00045
1.00141
1.00263
1.00766
1.0164
1.04174
1.11362
1.26474
1.72067
2.56258
2.70741
2.69709
2.68804
2.70511
2.71634
2.73036
2.74304
2.74703
2.74836
2.75188
1.00001
1.00001
1.00004
1.00007
1.00023
1.00042
1.00132
1.00242
1.00727
1.01488
1.03932
1.10204
1.24264
1.67334
2.54019
2.68975
2.67395
2.67669
2.68442
2.69858
2.71069
2.72044
2.72393
2.72362
2.72779
1
1.00001
1.00004
1.00006
1.00021
1.00038
1.0012
1.00219
1.00667
1.0134
1.03602
1.09164
1.21797
1.61641
2.47757
2.66744
2.67144
2.66792
2.66898
2.67971
2.68805
2.69774
2.69872
2.69096
2.67256
1
1.00001
1.00003
1.00006
1.00018
1.00033
1.00102
1.00194
1.00559
1.01206
1.03082
1.08432
1.18879
1.5694
2.40515
2.63031
2.66488
2.65657
2.64977
2.65766
2.65986
2.66399
2.65924
2.64153
2.5911
1
1.00001
1.00002
1.00006
1.00011
1.00031
1.00068
1.00168
1.00443
1.00992
1.02892
1.06047
1.19772
1.44802
2.20012
2.59694
2.66559
2.65287
2.63709
2.63432
2.63515
2.63031
2.61163
2.56172
2.37092
1
1.00001
1.00002
1.00004
1.00014
1.00025
1.00077
1.00148
1.00413
1.00928
1.02286
1.06361
1.13879
1.43156
2.11452
2.50858
2.65115
2.64251
2.62379
2.61479
2.60178
2.59045
2.56209
2.50113
2.30389
1
1.00001
1.00002
1.00004
1.00012
1.00022
1.0007
1.00126
1.00393
1.00752
1.02143
1.04859
1.12079
1.32859
1.94591
2.43179
2.61948
2.61664
2.61038
2.59881
2.5833
2.54892
2.51163
2.45337
2.3024
1
1
1.00002
1.00003
1.0001
1.00018
1.00058
1.00106
1.00329
1.00621
1.01804
1.03891
1.10095
1.25669
1.75977
2.35872
2.58329
2.57573
2.57833
2.57344
2.56009
2.53059
2.46904
2.41955
2.30752
1
1
1.00001
1.00003
1.00008
1.00015
1.00047
1.00085
1.00259
1.00505
1.01369
1.03298
1.07694
1.224
1.55073
2.27995
2.55018
2.55781
2.55142
2.54301
2.53182
2.50782
2.44897
2.38462
2.30393
1
1
1.00001
1.00002
1.00007
1.00012
1.00037
1.00068
1.00202
1.00406
1.01068
1.02678
1.06134
1.18439
1.42159
2.10132
2.48031
2.54649
2.53097
2.52181
2.50032
2.48412
2.44142
2.37468
2.29678
1
1
1.00001
1.00002
1.00005
1.00009
1.0003
1.00054
1.00167
1.00317
1.00883
1.02025
1.04868
1.14047
1.32018
1.9104
2.36522
2.52059
2.51654
2.50351
2.47738
2.44323
2.41712
2.36472
2.29249
1
1
1.00001
1.00001
1.00004
1.00007
1.00023
1.00042
1.00131
1.0024
1.00713
1.01468
1.03806
1.09856
1.23118
1.60748
2.25507
2.45768
2.4817
2.48044
2.46592
2.43209
2.39421
2.35024
2.28983
1
1
1.00001
1.00001
1.00003
1.00006
1.00017
1.00031
1.00097
1.00182
1.00522
1.01114
1.02825
1.07628
1.16808
1.50437
2.19111
2.39694
2.43947
2.43356
2.42875
2.41233
2.37809
2.33449
2.28134
1
1
1
1.00001
1.00002
1.00005
1.0001
1.00029
1.00055
1.00153
1.00337
1.00826
1.02219
1.04903
1.14771
1.33146
1.93011
2.3311
2.4245
2.41962
2.40295
2.38403
2.361
2.32503
2.27724
1
1
1
1.00001
1.00001
1.00004
1.00007
1.00023
1.00042
1.00129
1.00238
1.0071
1.01444
1.03768
1.09377
1.23025
1.5733
2.20086
2.38579
2.38833
2.37908
2.35592
2.32653
2.29988
2.26771
1
1
1
1
1.00001
1.00002
1.00007
1.00013
1.00038
1.00071
1.00209
1.00425
1.01115
1.02734
1.0634
1.17586
1.44377
1.99398
2.32168
2.3708
2.36406
2.34603
2.31316
2.27817
2.24466
1
1
1
1
1.00001
1.00002
1.00004
1.00012
1.00022
1.00067
1.00126
1.00372
1.00748
1.01995
1.04843
1.11407
1.31264
1.85416
2.17769
2.31887
2.33014
2.32326
2.30538
2.27204
2.23419
1
1
1
1
1.00001
1.00001
1.00003
1.00006
1.0002
1.00036
1.0011
1.00207
1.00592
1.01244
1.03178
1.08189
1.18763
1.50754
2.09056
2.26334
2.28989
2.28675
2.27857
2.26053
2.22876
1
1
1
1
1
1.00001
1.00002
1.00004
1.00014
1.00025
1.00078
1.00142
1.00423
1.00844
1.02217
1.0556
1.12467
1.36182
1.89773
2.18293
2.26925
2.26553
2.25287
2.2344
2.20941
1
1
1
1
1
1.00001
1.00002
1.00003
1.00009
1.00017
1.00053
1.00097
1.00293
1.00556
1.0158
1.03345
1.08753
1.20707
1.61875
2.00735
2.21877
2.2447
2.24008
2.2242
2.19907
1
1
1
1
1
1
1.00001
1.00003
1.00005
1.00014
1.00027
1.0008
1.00151
1.0042
1.0091
1.02237
1.0598
1.12849
1.38807
1.90656
2.13315
2.19861
2.20745
2.20133
2.1886
1
1
1
1
1
1
1.00001
1.00002
1.00003
1.0001
1.00018
1.00056
1.00101
1.00308
1.00577
1.01646
1.03479
1.08906
1.21617
1.61278
2.01882
2.17407
2.18106
2.17693
2.16412
1
1
1
1
1
1
1
1.00001
1.00002
1.00006
1.00012
1.00036
1.00066
1.00199
1.00372
1.01066
1.02241
1.0563
1.14055
1.35954
1.80789
2.10469
2.16366
2.16208
2.15064
1
1
1
1
1
1
1
1.00001
1.00002
1.00003
1.0001
1.00018
1.00053
1.00099
1.00291
1.00567
1.01549
1.03402
1.08526
1.20725
1.57551
1.94978
2.12495
2.13732
2.13402
1
1
1
1
1
1
1
1
1.00001
1.00002
1.00006
1.00011
1.00035
1.00063
1.00192
1.00353
1.01025
1.02103
1.05332
1.13201
1.32756
1.76766
2.04453
2.11452
2.11765
1
1
1
1
1
1
1
1
1.00001
1.00001
1.00004
1.00007
1.00021
1.00039
1.00116
1.00215
1.00621
1.01234
1.0328
1.07357
1.18861
1.43543
1.90115
2.06573
2.08297
1
1
1
1
1
1
1
1
1
1.00001
1.00002
1.00005
1.0001
1.0003
1.00057
1.00166
1.00318
1.0089
1.01882
1.04683
1.11561
1.28863
1.66797
1.9776
2.06152
1
1
1
1
1
1
1
1
1
1
1.00001
1.00003
1.00008
1.00015
1.00043
1.00081
1.00234
1.00458
1.01252
1.02639
1.06921
1.15539
1.45751
1.79739
2.0075
1
1
1
1
1
1
1
1
1
1
1.00001
1.00002
1.00005
1.00009
1.00027
1.00049
1.00147
1.00269
1.00786
1.01561
1.04036
1.09664
1.23013
1.56922
1.87794
1
1
1
1
1
1
1
1
1
1
1.00001
1.00001
1.00003
1.00005
1.00016
1.00029
1.00086
1.00157
1.00464
1.00891
1.02381
1.05539
1.12578
1.3383
1.74595
1
1
1
1
1
1
1
1
1
1
1
1.00001
1.00001
1.00004
1.00007
1.00021
1.00038
1.00112
1.00212
1.00586
1.01224
1.03028
1.07625
1.16684
1.44698
1
1
1
1
1
1
1
1
1
1
1
1
1.00001
1.00002
1.00004
1.00012
1.00022
1.00067
1.00123
1.00356
1.00699
1.01811
1.0436
1.09642
1.26874
1
1
1
1
1
1
1
1
1
1
1
1
1.00001
1.00001
1.00003
1.00006
1.00016
1.0003
1.00088
1.00164
1.00466
1.00937
1.024
1.05731
1.13081
1
1
1
1
1
1
1
1
1
1
1
1
1
1.00001
1.00002
1.00003
1.00009
1.00017
1.00051
1.00092
1.00272
1.00509
1.01402
1.02958
1.07182
1
1
1
1
1
1
1
1
1
1
1
1
1
1
1.00001
1.00002
1.00005
1.0001
1.00029
1.00052
1.00153
1.00287
1.00796
1.01641
1.04109
1
1
1
1
1
1
1
1
1
1
1
1
1
1
1
1.00001
1.00002
1.00007
1.00013
1.00037
1.00069
1.00197
1.00382
1.01037
1.02147
1
1
1
1
1
1
1
1
1
1
1
1
1
1
1
1.00001
1.00001
1.00004
1.00007
1.00022
1.0004
1.00118
1.00219
1.00618
1.01218
1
1
1
1
1
1
1
1
1
1
1
1
1
1
1
1
1.00001
1.00003
1.00005
1.00015
1.00027
1.0008
1.00147
1.00432
1.00828
1
1
1
1
1
1
1
1
1
1
1
1
1
1
1
1
1.00001
1.00002
1.00005
1.00009
1.00027
1.0005
1.00151
1.00283
1.00815
1
1
1
1
1
1
1
1
1
1
1
1
1
1
1
1
1.00001
1.00001
1.00004
1.00008
1.00025
1.00044
1.00139
1.00255
1.00766
1
1
1
1
1
1
1
1
1
1
1
1
1
1
1
1
1.00001
1.00001
1.00004
1.00007
1.00023
1.00042
1.00128
1.00243
1.007
1
1
1
1
1
1
1
1
1
1
1
1
1
1
1
1
1
1.00002
1.00003
1.00009
1.00016
1.00049
1.00097
1.00263
1.00618
1
1
1
1
1
1
1
1
1
1
1
1
1
1
1
1
1.00001
1.00001
1.00004
1.00007
1.00022
1.00041
1.00125
1.00239
1.00687
1
1
1
1
1
1
1
1
1
1
1
1
1
1
1
1
1.00001
1.00001
1.00004
1.00007
1.00023
1.00041
1.0013
1.00238
1.00717
2.34156
2.2509
2.25307
2.34689
2.43817
2.60058
2.75658
2.9333
3.07167
3.17518
3.21122
3.20589
3.03952
2.97518
2.97943
2.96508
2.94212
2.93467
2.92469
2.91405
2.90553
2.89134
2.88008
2.86953
2.85701
2.85083
2.8438
2.84056
2.84347
2.85131
2.87015
2.89092
2.91568
2.93834
2.95803
2.97357
2.98428
2.99379
2.99964
3.00281
3.0038
3.00359
2.99745
2.99569
2.98655
2.9816
2.97015
2.9642
2.95176
2.94514
2.93146
2.92348
2.90874
2.90087
2.88627
2.87789
2.86288
2.85436
2.83925
2.83074
2.81628
2.80744
2.79326
2.78403
2.77005
2.76062
2.74694
2.7377
2.72434
2.71538
2.70221
2.69321
2.67981
2.67052
2.65692
2.64755
2.63402
2.6248
2.61149
2.60254
2.58952
2.58091
2.56827
2.56001
2.54778
2.53994
2.52816
2.52077
2.50951
2.50263
2.49203
2.48579
2.476
2.47061
2.462
2.45799
2.45124
2.44973
2.44679
2.44758
2.20334
2.12846
2.09094
2.0857
2.08909
2.10715
2.17249
2.35412
2.67288
2.82744
2.96845
3.07141
3.10114
3.10994
3.11299
3.11901
3.11415
3.1059
3.11642
3.12999
3.12733
3.1126
3.09998
3.09367
3.08361
3.07684
3.07258
3.07088
3.07053
3.07135
3.07474
3.07646
3.07703
3.07247
3.06505
3.06048
3.04064
3.02713
3.01142
2.99955
2.97444
2.95869
2.939
2.92257
2.90341
2.88709
2.86842
2.8531
2.83549
2.82097
2.80385
2.78886
2.77073
2.75645
2.73938
2.72578
2.70944
2.69613
2.68017
2.66708
2.65144
2.63873
2.62357
2.61129
2.5964
2.58446
2.56982
2.55831
2.54407
2.53282
2.51872
2.50748
2.49365
2.48279
2.46937
2.45901
2.44593
2.436
2.42332
2.41369
2.40146
2.39206
2.38026
2.37113
2.35971
2.35089
2.33983
2.33136
2.32069
2.31266
2.30243
2.29499
2.28538
2.27873
2.27006
2.26465
2.25772
2.25446
2.25123
2.24953
2.19449
2.12061
2.04387
1.98287
1.92481
1.92236
1.95356
2.05972
2.24607
2.52819
2.7005
2.73598
2.82141
2.93374
2.98437
3.02494
3.0608
3.08548
3.10987
3.13212
3.14842
3.16052
3.16902
3.18548
3.21819
3.23959
3.24219
3.23842
3.23403
3.22138
3.20687
3.17651
3.14526
3.10815
3.06679
3.01539
2.97905
2.93966
2.90958
2.87806
2.85121
2.82656
2.80299
2.78163
2.76111
2.74267
2.72405
2.70792
2.69143
2.67759
2.66254
2.64861
2.63338
2.61968
2.60602
2.59319
2.58036
2.5682
2.55599
2.54454
2.53256
2.52162
2.5096
2.49891
2.48701
2.47651
2.46488
2.45453
2.44314
2.43297
2.42181
2.41199
2.40102
2.3916
2.38082
2.37168
2.3611
2.35209
2.34173
2.33282
2.32272
2.31401
2.30415
2.29571
2.28612
2.27796
2.26864
2.26088
2.25181
2.24453
2.23582
2.22914
2.22079
2.21486
2.20721
2.20233
2.19617
2.19304
2.19081
2.18868
2.19631
2.10736
2.03228
1.95945
1.90549
1.87308
1.87813
1.91689
2.03016
2.21342
2.41319
2.51338
2.58704
2.62552
2.67621
2.77296
2.84466
2.88778
2.94997
3.00216
3.04123
3.07452
3.1059
3.13552
3.17014
3.20604
3.22856
3.23912
3.23817
3.22099
3.18053
3.12531
3.06066
2.99915
2.93437
2.88936
2.84431
2.80951
2.77649
2.74932
2.72447
2.70324
2.68339
2.66659
2.64938
2.63418
2.61792
2.60414
2.58998
2.57843
2.56615
2.5554
2.54286
2.53173
2.51949
2.50856
2.49639
2.4858
2.47399
2.46383
2.45234
2.44246
2.43119
2.42151
2.41031
2.40056
2.38921
2.37918
2.36777
2.35767
2.34647
2.33671
2.32584
2.31654
2.30591
2.29691
2.28647
2.27757
2.26733
2.25843
2.2484
2.23958
2.22981
2.22132
2.21181
2.20383
2.19456
2.18709
2.17806
2.17119
2.16251
2.15648
2.14847
2.14353
2.13669
2.13295
2.12817
2.12629
2.12527
2.1242
2.20435
2.11102
2.03648
1.96543
1.90802
1.86105
1.84336
1.85831
1.90237
2.03112
2.22036
2.31889
2.38435
2.45204
2.49639
2.53361
2.57818
2.64954
2.70797
2.73977
2.789
2.85734
2.90514
2.94409
2.98894
3.02709
3.05526
3.08336
3.0793
3.05586
3.00541
2.93923
2.87476
2.81078
2.76245
2.72111
2.68959
2.66393
2.64255
2.62487
2.60913
2.59513
2.58255
2.57109
2.5605
2.55018
2.54028
2.53027
2.52035
2.51082
2.50141
2.49191
2.4816
2.47143
2.46136
2.4519
2.44221
2.43297
2.42306
2.41385
2.40378
2.39474
2.38462
2.37566
2.36545
2.35648
2.34624
2.33727
2.32702
2.31805
2.30779
2.29883
2.28867
2.27975
2.26985
2.261
2.25137
2.24262
2.23312
2.22452
2.21494
2.20652
2.19684
2.1886
2.17903
2.1712
2.16196
2.15481
2.14596
2.13955
2.13111
2.12539
2.11779
2.11279
2.10677
2.10272
2.09906
2.09752
2.09699
2.09568
2.21308
2.12996
2.04893
1.98279
1.91884
1.87046
1.82997
1.82568
1.84425
1.89533
2.01376
2.17687
2.26197
2.29183
2.33214
2.38823
2.42013
2.45123
2.48561
2.52972
2.57966
2.6134
2.64888
2.70329
2.74601
2.78726
2.8116
2.84844
2.84612
2.83005
2.78408
2.7272
2.66916
2.62227
2.58343
2.5589
2.54206
2.53161
2.52247
2.51562
2.50781
2.50149
2.49387
2.4871
2.47921
2.47205
2.46363
2.45584
2.44751
2.44032
2.43278
2.4255
2.41663
2.40799
2.39841
2.38998
2.38068
2.37237
2.36297
2.35435
2.34454
2.33566
2.32565
2.31678
2.30686
2.29811
2.28848
2.27993
2.2705
2.26201
2.25252
2.24385
2.23419
2.22532
2.21558
2.20675
2.19711
2.1886
2.17925
2.17107
2.16195
2.15385
2.14474
2.13681
2.1277
2.12025
2.11133
2.10468
2.09636
2.09059
2.08322
2.07819
2.07207
2.06771
2.06298
2.05989
2.05669
2.05658
2.05588
2.05413
2.21895
2.13965
2.07013
1.99955
1.94186
1.88555
1.84427
1.81403
1.81562
1.83741
1.89649
1.996
2.13503
2.20586
2.22843
2.25428
2.28918
2.32742
2.35255
2.36853
2.40015
2.43875
2.47716
2.51021
2.54129
2.58291
2.6172
2.65476
2.66287
2.65297
2.61702
2.56629
2.52439
2.48083
2.45605
2.43588
2.42861
2.42728
2.42795
2.42723
2.42547
2.42312
2.41926
2.41482
2.4098
2.40455
2.39904
2.39301
2.38658
2.38004
2.37385
2.36765
2.36056
2.35296
2.34484
2.3372
2.32917
2.3218
2.31382
2.30657
2.29831
2.29073
2.28214
2.27433
2.26571
2.25787
2.24935
2.24162
2.23324
2.22568
2.2172
2.20961
2.20065
2.19276
2.18333
2.17521
2.16578
2.15778
2.14876
2.14108
2.13252
2.12531
2.11689
2.11002
2.10151
2.09498
2.08659
2.08058
2.0729
2.06765
2.06123
2.05697
2.05193
2.04898
2.0452
2.04376
2.04232
2.04249
2.04221
2.0409
2.22111
2.15409
2.08344
2.02273
1.96099
1.90897
1.86131
1.82336
1.8052
1.80858
1.83232
1.90012
1.98016
2.09337
2.15171
2.17799
2.19293
2.21286
2.24452
2.26535
2.28838
2.30564
2.33669
2.37248
2.40825
2.44191
2.47954
2.52882
2.546
2.53807
2.50377
2.46256
2.4181
2.38222
2.35598
2.3365
2.32805
2.32895
2.33516
2.34063
2.34461
2.34696
2.34661
2.34528
2.34246
2.34012
2.33618
2.33321
2.32856
2.32467
2.31966
2.3159
2.31041
2.30508
2.29785
2.2916
2.28437
2.27801
2.27082
2.26441
2.25714
2.25059
2.24285
2.23597
2.22783
2.22082
2.21264
2.20563
2.19753
2.1905
2.18243
2.17526
2.167
2.15947
2.15089
2.14301
2.13424
2.12635
2.1178
2.11052
2.10248
2.096
2.08846
2.08249
2.07533
2.06944
2.06269
2.05682
2.05076
2.0456
2.04047
2.03686
2.03297
2.03084
2.02884
2.02794
2.02791
2.02818
2.02813
2.02632
2.22284
2.15926
2.09837
2.03724
1.98237
1.93003
1.88186
1.84372
1.80998
1.79882
1.80613
1.8299
1.89715
1.96961
2.05655
2.10352
2.13227
2.14445
2.15795
2.17165
2.19917
2.22094
2.24401
2.26947
2.30081
2.34881
2.39888
2.45556
2.47481
2.46387
2.43198
2.39251
2.34736
2.3092
2.28075
2.26534
2.25455
2.24942
2.25396
2.26303
2.27404
2.28046
2.28667
2.28812
2.28969
2.28864
2.28705
2.28516
2.28244
2.27967
2.27603
2.27261
2.26841
2.2636
2.2575
2.2514
2.24477
2.23875
2.23189
2.22586
2.2189
2.21278
2.20566
2.19905
2.19146
2.18427
2.17632
2.16908
2.16119
2.15431
2.14661
2.13996
2.13221
2.12536
2.11723
2.10995
2.10141
2.09412
2.0855
2.07871
2.07043
2.06435
2.05678
2.05117
2.04441
2.03887
2.03278
2.02756
2.0222
2.01792
2.0139
2.01094
2.00886
2.00754
2.0073
2.00767
2.00816
2.00882
2.01041
2.00895
2.22241
2.16583
2.10734
2.05121
1.99759
1.94705
1.9019
1.85844
1.82672
1.799
1.79579
1.8046
1.82855
1.88926
1.96242
2.02777
2.06415
2.08909
2.10722
2.11487
2.12491
2.14686
2.17507
2.20359
2.23207
2.28419
2.35815
2.41945
2.43268
2.41613
2.38441
2.3436
2.29824
2.25711
2.22796
2.21014
2.19847
2.19141
2.18858
2.19385
2.20414
2.21642
2.22574
2.23238
2.23654
2.23727
2.23771
2.2367
2.23508
2.23311
2.23023
2.22746
2.22398
2.22036
2.21523
2.20972
2.20343
2.19766
2.19151
2.18578
2.17967
2.17382
2.1674
2.16123
2.15421
2.14763
2.14
2.13325
2.12549
2.11909
2.11177
2.10595
2.09895
2.09323
2.08588
2.07983
2.0719
2.06553
2.05743
2.05113
2.04368
2.0378
2.03152
2.02623
2.02099
2.01625
2.01179
2.0077
2.00414
2.00097
1.99859
1.99692
1.99584
1.99581
1.99598
1.99641
1.99713
1.99782
1.99949
1.99814
2.22033
2.16967
2.11713
2.06456
2.01275
1.96479
1.91805
1.87785
1.83804
1.81156
1.78843
1.78945
1.80031
1.82611
1.88309
1.94873
2.00668
2.03106
2.054
2.07254
2.08233
2.09804
2.11859
2.15501
2.19722
2.26681
2.35266
2.40635
2.40959
2.39055
2.35514
2.31525
2.26445
2.22565
2.19238
2.17067
2.15536
2.14624
2.1419
2.13933
2.14419
2.15379
2.16579
2.17651
2.18457
2.19014
2.19331
2.19456
2.19479
2.19382
2.19185
2.18988
2.18711
2.18443
2.18037
2.17567
2.16991
2.16452
2.15876
2.15349
2.14755
2.14215
2.13577
2.13003
2.12312
2.11704
2.10976
2.10347
2.09599
2.08971
2.08231
2.07641
2.06927
2.06377
2.05673
2.0511
2.04386
2.03775
2.03064
2.02436
2.01793
2.01212
2.00665
2.00173
1.99725
1.99345
1.99016
1.98751
1.98542
1.98393
1.98312
1.98255
1.98273
1.98288
1.98316
1.98347
1.98377
1.98408
1.98368
1.98255
2.21108
2.16811
2.12164
2.07436
2.02812
1.98072
1.93879
1.89544
1.8594
1.82413
1.79908
1.78266
1.78396
1.7951
1.82169
1.87217
1.93555
1.98652
2.0048
2.02573
2.04111
2.06145
2.08178
2.11995
2.18405
2.27672
2.36759
2.39741
2.39104
2.36659
2.33397
2.28772
2.24076
2.20241
2.16913
2.14532
2.12522
2.11462
2.10546
2.10247
2.0999
2.10314
2.11095
2.1223
2.13348
2.14293
2.1498
2.15412
2.1559
2.15647
2.15502
2.15349
2.15039
2.14817
2.14444
2.14107
2.1357
2.13118
2.12544
2.12072
2.11467
2.10956
2.10309
2.09753
2.09061
2.0847
2.07759
2.07175
2.06471
2.05905
2.05192
2.04625
2.03919
2.03368
2.02703
2.02153
2.01527
2.00954
2.00354
1.99786
1.99234
1.98725
1.98245
1.97819
1.9745
1.97149
1.96918
1.96766
1.96684
1.96671
1.96703
1.96734
1.9678
1.96826
1.96827
1.96785
1.96681
1.96579
1.96361
1.96067
2.19643
2.15833
2.11912
2.07788
2.03515
1.99475
1.95193
1.91562
1.87682
1.84449
1.81449
1.79169
1.78044
1.78224
1.79368
1.82178
1.86499
1.92366
1.96849
1.99134
2.00675
2.02716
2.06207
2.10892
2.20341
2.31275
2.38151
2.38897
2.37704
2.34873
2.31074
2.26466
2.22377
2.18825
2.15762
2.13163
2.11079
2.09386
2.08283
2.07411
2.07149
2.06785
2.06876
2.07395
2.08341
2.09348
2.10276
2.10997
2.115
2.1174
2.11856
2.11746
2.11515
2.11305
2.10988
2.10711
2.10254
2.09821
2.0924
2.08754
2.0814
2.07637
2.07011
2.06494
2.05838
2.05287
2.04579
2.04009
2.03286
2.02729
2.02026
2.01474
2.00803
2.00227
1.99596
1.99018
1.98442
1.97895
1.9737
1.96869
1.96402
1.95966
1.95579
1.95254
1.94995
1.94804
1.94691
1.94639
1.94671
1.94702
1.94773
1.94849
1.94928
1.94914
1.94867
1.94771
1.94548
1.94276
1.93848
1.93461
2.19292
2.15596
2.1166
2.07817
2.03901
2.00049
1.96265
1.9251
1.8912
1.85755
1.8279
1.80281
1.78268
1.77704
1.77963
1.79157
1.81963
1.86143
1.9162
1.95686
1.98773
2.01095
2.05543
2.13195
2.25171
2.3579
2.38949
2.38525
2.36791
2.33617
2.2938
2.25331
2.21732
2.1833
2.1539
2.12714
2.10482
2.08457
2.06962
2.05628
2.04903
2.04218
2.04029
2.03629
2.03838
2.04427
2.05293
2.06186
2.06941
2.07487
2.07763
2.07818
2.07647
2.07454
2.07121
2.069
2.06517
2.06185
2.05639
2.05191
2.04564
2.04084
2.0344
2.02974
2.02343
2.01873
2.01226
2.00702
2.00034
1.99463
1.98829
1.98259
1.97666
1.97101
1.96535
1.95993
1.9548
1.95004
1.94576
1.94189
1.93833
1.93526
1.93272
1.93093
1.92978
1.92939
1.92979
1.93022
1.93098
1.93191
1.93299
1.93345
1.93307
1.93233
1.931
1.92873
1.92412
1.91882
1.91308
1.9092
2.18214
2.15184
2.11619
2.07979
2.04419
2.00662
1.97191
1.93554
1.90228
1.86984
1.84038
1.81189
1.79177
1.77251
1.77254
1.7769
1.78959
1.81875
1.86114
1.91548
1.96209
2.00761
2.07108
2.19391
2.32294
2.38994
2.39285
2.38345
2.35949
2.32477
2.28653
2.24921
2.2165
2.18412
2.15677
2.12897
2.10548
2.08244
2.06439
2.04646
2.03373
2.02093
2.01428
2.00584
2.00361
1.99969
2.00328
2.00921
2.01818
2.02538
2.03178
2.03494
2.03671
2.03621
2.03426
2.0327
2.02993
2.0278
2.02347
2.01961
2.01384
2.00936
2.00344
1.99901
1.99352
1.9891
1.9838
1.97883
1.97322
1.96772
1.96199
1.95641
1.95091
1.94561
1.94051
1.9357
1.93124
1.92725
1.92379
1.9208
1.91843
1.91681
1.91586
1.91556
1.91603
1.91661
1.91762
1.91899
1.9206
1.92171
1.92198
1.92173
1.92085
1.91901
1.91542
1.91037
1.90405
1.89772
1.89141
1.88727
2.17094
2.14192
2.11206
2.0784
2.04499
2.01143
1.97684
1.94414
1.91079
1.87996
1.84987
1.82348
1.79722
1.77966
1.76466
1.76595
1.77337
1.78991
1.82376
1.87184
1.93988
2.0094
2.1234
2.27289
2.38191
2.4039
2.3989
2.38084
2.35425
2.3167
2.28103
2.24876
2.21766
2.18909
2.15952
2.13264
2.10622
2.0829
2.05934
2.03954
2.0195
2.00331
1.98957
1.97882
1.97145
1.96464
1.96218
1.96147
1.96632
1.97337
1.9825
1.98895
1.99515
1.99716
1.99865
1.99771
1.99581
1.99459
1.99198
1.98962
1.98517
1.98125
1.97639
1.97202
1.96724
1.96272
1.95795
1.95315
1.94819
1.94322
1.93822
1.93331
1.92854
1.92402
1.91979
1.91596
1.91259
1.90973
1.90729
1.90557
1.90458
1.90454
1.90513
1.9061
1.90732
1.90926
1.91127
1.91293
1.91401
1.91371
1.91309
1.91192
1.90936
1.9049
1.89893
1.89247
1.88541
1.87865
1.87196
1.86779
2.16318
2.13638
2.10858
2.07789
2.04494
2.01437
1.98142
1.95059
1.91828
1.88895
1.85823
1.83274
1.80563
1.78532
1.76726
1.76117
1.76477
1.77588
1.79986
1.84562
1.91996
2.02522
2.18793
2.34532
2.41032
2.40933
2.40004
2.37823
2.34417
2.31205
2.27988
2.25059
2.22005
2.1916
2.16152
2.13429
2.10565
2.08017
2.054
2.03049
2.00676
1.98729
1.96859
1.95626
1.94388
1.93707
1.9296
1.92676
1.9253
1.928
1.93498
1.94325
1.95217
1.9581
1.96289
1.96418
1.96464
1.96361
1.96225
1.96082
1.95816
1.95472
1.95077
1.9468
1.94262
1.93839
1.93393
1.92941
1.92482
1.92027
1.91583
1.91157
1.90758
1.9039
1.90063
1.89787
1.89557
1.89384
1.89279
1.89272
1.89336
1.89438
1.89574
1.89793
1.90047
1.90285
1.90436
1.90493
1.90477
1.90402
1.90214
1.89869
1.89337
1.88734
1.88062
1.8735
1.86626
1.85901
1.85221
1.84788
2.14469
2.12234
2.09875
2.07386
2.04423
2.01403
1.98467
1.95444
1.92521
1.89535
1.86783
1.83969
1.81561
1.79245
1.7735
1.76431
1.76613
1.77588
1.79624
1.84134
1.92185
2.06552
2.26298
2.39699
2.41558
2.40927
2.39254
2.36939
2.34013
2.30838
2.27751
2.24599
2.21567
2.18425
2.1554
2.12513
2.09802
2.06969
2.04353
2.0174
1.99491
1.97366
1.95629
1.93943
1.92654
1.91483
1.90615
1.89889
1.89445
1.89318
1.8939
1.89918
1.90655
1.91536
1.92228
1.92798
1.93101
1.93273
1.93243
1.93148
1.92995
1.92773
1.92437
1.92055
1.91659
1.91264
1.90868
1.90474
1.9008
1.89697
1.8933
1.88992
1.8869
1.88437
1.8824
1.88088
1.88
1.87998
1.88064
1.88187
1.88336
1.88571
1.88909
1.89181
1.89429
1.89541
1.89529
1.89481
1.89377
1.89148
1.8869
1.8816
1.8754
1.86884
1.86179
1.85472
1.8473
1.84049
1.83394
1.83009
2.13433
2.11167
2.08828
2.06654
2.04202
2.01311
1.98556
1.95661
1.9298
1.9005
1.87494
1.84673
1.82351
1.80059
1.78182
1.77344
1.77708
1.78852
1.81259
1.86052
1.96787
2.11191
2.28519
2.37273
2.38507
2.3759
2.36424
2.3414
2.31196
2.28124
2.25234
2.22276
2.19454
2.16614
2.13908
2.112
2.08639
2.05966
2.03538
2.01064
1.98901
1.96757
1.9489
1.93034
1.91451
1.89904
1.8876
1.87684
1.86975
1.86323
1.86207
1.86112
1.86368
1.86994
1.87726
1.88597
1.89216
1.89748
1.89984
1.90085
1.90007
1.8991
1.89757
1.89527
1.8921
1.88884
1.88561
1.88249
1.87947
1.87664
1.87409
1.8719
1.87025
1.86914
1.86856
1.86875
1.86964
1.87098
1.87284
1.87521
1.87908
1.88253
1.88546
1.8879
1.88823
1.88816
1.88756
1.88582
1.88219
1.87745
1.87144
1.86494
1.85788
1.85068
1.84324
1.83595
1.82863
1.82202
1.81563
1.812
2.11859
2.09594
2.07465
2.05075
2.03284
2.00955
1.98496
1.95681
1.93295
1.90444
1.88149
1.85415
1.83199
1.81095
1.79508
1.79217
1.80005
1.81612
1.85005
1.9182
2.02893
2.14936
2.24161
2.30371
2.32887
2.32896
2.32151
2.30951
2.28907
2.26245
2.2356
2.20874
2.18208
2.15621
2.13066
2.10578
2.08057
2.05574
2.0306
2.00672
1.9835
1.96227
1.94172
1.92289
1.90494
1.88859
1.87382
1.86128
1.85066
1.84275
1.83587
1.83307
1.83182
1.83258
1.83622
1.84312
1.85067
1.85872
1.86421
1.86891
1.8704
1.87144
1.8708
1.87013
1.8688
1.86667
1.86399
1.86133
1.85883
1.85669
1.85502
1.85399
1.85376
1.85413
1.85505
1.85651
1.85854
1.86199
1.86567
1.86969
1.87341
1.87633
1.87811
1.87805
1.87765
1.87663
1.87436
1.86991
1.86439
1.85842
1.85151
1.84464
1.8372
1.83006
1.82261
1.8157
1.80857
1.80243
1.79626
1.79295
2.11001
2.09169
2.06647
2.04199
2.01895
1.99778
1.97836
1.95429
1.93222
1.90667
1.88424
1.86175
1.84013
1.82462
1.81623
1.82224
1.83589
1.86374
1.92136
2.00771
2.10088
2.15333
2.19484
2.2379
2.27174
2.2862
2.28659
2.28072
2.27003
2.25301
2.22941
2.20364
2.17617
2.15016
2.12461
2.10105
2.07652
2.05302
2.02811
2.00491
1.98129
1.96008
1.93844
1.91938
1.89934
1.88226
1.86424
1.84972
1.83564
1.82514
1.81558
1.80873
1.80303
1.8018
1.80035
1.80242
1.80726
1.8156
1.82346
1.83131
1.8363
1.8405
1.84159
1.84275
1.84234
1.84193
1.84104
1.83978
1.83847
1.8376
1.83761
1.83816
1.83929
1.84092
1.84329
1.84743
1.85178
1.85611
1.86044
1.8641
1.86712
1.86735
1.86753
1.86702
1.86531
1.86212
1.85727
1.85181
1.84525
1.83868
1.83129
1.82431
1.81667
1.80969
1.80229
1.7957
1.78883
1.78297
1.77717
1.77397
2.08776
2.07866
2.06069
2.03738
2.01431
1.99137
1.97072
1.94761
1.92758
1.90529
1.88473
1.86519
1.84931
1.84142
1.84569
1.85898
1.88494
1.93813
2.01718
2.09518
2.1318
2.14639
2.15952
2.18037
2.20545
2.23204
2.24728
2.25112
2.24613
2.23804
2.22225
2.19827
2.17053
2.14456
2.11952
2.0959
2.07183
2.04783
2.02383
1.99999
1.9771
1.9546
1.93323
1.91267
1.89295
1.87414
1.856
1.83913
1.82371
1.81038
1.79933
1.78992
1.78173
1.77555
1.77208
1.77111
1.77199
1.77618
1.78248
1.79178
1.79947
1.80724
1.8119
1.81599
1.81804
1.81949
1.82061
1.82091
1.82152
1.82225
1.82343
1.82541
1.82853
1.83229
1.83669
1.84163
1.8465
1.85088
1.85404
1.85683
1.85642
1.85612
1.85526
1.85323
1.84892
1.84423
1.83805
1.83188
1.82484
1.81809
1.81062
1.80377
1.79651
1.79001
1.78309
1.777
1.77063
1.76528
1.76007
1.75725
2.06386
2.05907
2.04616
2.02687
2.00633
1.98567
1.96638
1.94499
1.9249
1.90477
1.8863
1.87133
1.86398
1.86829
1.88248
1.9083
1.96116
2.03503
2.1085
2.13455
2.14085
2.13442
2.13435
2.13558
2.14568
2.16676
2.19439
2.21288
2.21823
2.21367
2.20614
2.19107
2.16701
2.13982
2.11467
2.08925
2.06602
2.04203
2.01958
1.9961
1.97384
1.95077
1.93002
1.90851
1.88972
1.86943
1.85134
1.83233
1.81591
1.80007
1.78708
1.77488
1.7653
1.7555
1.74896
1.74392
1.74327
1.74346
1.74589
1.75148
1.76025
1.76912
1.77783
1.7851
1.79099
1.79562
1.79926
1.80242
1.80545
1.8088
1.81234
1.81651
1.82156
1.82702
1.83263
1.83786
1.84242
1.84525
1.84689
1.84677
1.84616
1.84462
1.8415
1.83743
1.83185
1.82617
1.81938
1.81293
1.80574
1.79919
1.79205
1.78561
1.77879
1.77271
1.76629
1.76063
1.75484
1.74995
1.74538
1.74275
2.04343
2.04269
2.03338
2.01852
1.99603
1.97528
1.95662
1.93853
1.92117
1.90431
1.8904
1.88403
1.88928
1.90356
1.93239
1.98255
2.05976
2.12458
2.14866
2.14595
2.13406
2.12395
2.10715
2.10662
2.108
2.11695
2.1372
2.16461
2.18099
2.18549
2.18132
2.17332
2.16025
2.13659
2.11086
2.0855
2.06176
2.03875
2.01596
1.99271
1.96886
1.94591
1.92365
1.9033
1.88333
1.86401
1.84436
1.82566
1.80739
1.79144
1.77611
1.76311
1.75072
1.74039
1.7311
1.72392
1.71922
1.71771
1.71779
1.71959
1.72455
1.73267
1.74266
1.75308
1.76323
1.77203
1.77963
1.78648
1.79292
1.79914
1.8055
1.81213
1.81851
1.82456
1.82973
1.83402
1.83687
1.83674
1.83665
1.83596
1.83407
1.83061
1.82551
1.82034
1.81404
1.80783
1.80106
1.79473
1.7878
1.78151
1.77473
1.76865
1.76221
1.75653
1.75064
1.74549
1.74033
1.73602
1.73216
1.72993
2.00198
2.02124
2.02115
2.01064
1.99339
1.97083
1.95127
1.9327
1.91717
1.90552
1.90141
1.9085
1.9251
1.95458
2.0082
2.08516
2.14625
2.16761
2.16228
2.14808
2.13311
2.10755
2.09141
2.08273
2.08315
2.08468
2.09236
2.11006
2.13261
2.14511
2.14952
2.14578
2.13859
2.12717
2.10398
2.07926
2.05395
2.03154
2.00818
1.98578
1.96159
1.9394
1.91732
1.89776
1.87782
1.85881
1.83879
1.82031
1.80177
1.78589
1.7699
1.75599
1.74205
1.7299
1.71904
1.70995
1.70261
1.69746
1.69509
1.69517
1.69643
1.70067
1.70842
1.72017
1.73339
1.74671
1.75929
1.77072
1.78109
1.79076
1.79966
1.80769
1.81453
1.81994
1.82346
1.82591
1.82526
1.82478
1.82359
1.8214
1.8172
1.81263
1.80681
1.80111
1.79464
1.78868
1.78208
1.77609
1.76946
1.76364
1.75728
1.7518
1.74585
1.74079
1.73543
1.73099
1.72657
1.7231
1.72019
1.71853
1.92811
1.98515
1.99476
1.99288
1.98495
1.96818
1.94914
1.93329
1.9193
1.9157
1.92482
1.9426
1.97442
2.03262
2.11004
2.16934
2.18708
2.18097
2.16552
2.14386
2.11771
2.09525
2.07688
2.06636
2.06027
2.05983
2.061
2.06565
2.07913
2.09673
2.10736
2.11264
2.10939
2.10367
2.09271
2.07159
2.04882
2.02574
2.00336
1.97978
1.95669
1.93349
1.91302
1.89251
1.87405
1.85379
1.8349
1.81533
1.79774
1.78062
1.76498
1.74901
1.73504
1.72032
1.70919
1.69785
1.68973
1.68269
1.67755
1.67578
1.676
1.6774
1.68175
1.69051
1.70328
1.71879
1.73526
1.75157
1.76677
1.7799
1.79061
1.79921
1.80529
1.80884
1.81096
1.81024
1.80958
1.80817
1.80506
1.8018
1.79687
1.79178
1.78575
1.78031
1.77428
1.76882
1.76278
1.75732
1.75135
1.74607
1.74036
1.73536
1.73009
1.72556
1.72101
1.71732
1.71388
1.7114
1.7095
1.70837
1.7846
1.9445
1.96972
1.97163
1.96765
1.95963
1.94634
1.93486
1.93053
1.94169
1.95971
1.99507
2.05772
2.13506
2.19056
2.20552
2.19971
2.18294
2.16107
2.13155
2.1075
2.08777
2.06998
2.05714
2.04552
2.03915
2.03616
2.03691
2.03865
2.04702
2.06166
2.07108
2.07731
2.0744
2.06973
2.05979
2.0428
2.02179
1.99942
1.97595
1.95209
1.92926
1.90811
1.88801
1.86876
1.84874
1.82908
1.81045
1.79178
1.77602
1.75807
1.74334
1.72683
1.71298
1.70023
1.68811
1.67912
1.66979
1.66408
1.66038
1.66047
1.66111
1.66361
1.66995
1.68056
1.69484
1.71125
1.7298
1.74775
1.76401
1.77705
1.78629
1.79215
1.79508
1.79417
1.7932
1.79101
1.78843
1.78345
1.77894