/*--------------------------------*- C++ -*----------------------------------*\
| =========                 |                                                 |
| \\      /  F ield         | OpenFOAM: The Open Source CFD Toolbox           |
|  \\    /   O peration     | Version:  2112                                  |
|   \\  /    A nd           | Website:  www.openfoam.com                      |
|    \\/     M anipulation  |                                                 |
\*---------------------------------------------------------------------------*/
FoamFile
{
    version     2.0;
    format      ascii;
    arch        "LSB;label=32;scalar=64";
    class       volVectorField;
    location    "4.5";
    object      U;
}
// * * * * * * * * * * * * * * * * * * * * * * * * * * * * * * * * * * * * * //

dimensions      [0 1 -1 0 0 0 0];

internalField   nonuniform List<vector> 
5250
(
(3 1.07933e-08 0)
(2.99999 8.37318e-08 0)
(2.99996 2.57492e-07 0)
(2.99991 7.80219e-07 0)
(2.99978 1.83349e-06 0)
(2.99951 5.06345e-06 0)
(2.99867 1.06615e-05 0)
(2.99724 3.28577e-05 0)
(2.99173 6.1487e-05 0)
(2.98307 0.00022323 0)
(2.94758 0.000437809 0)
(2.87019 0.00152618 0)
(2.63728 0.0036284 0)
(1.88666 0.0118009 0)
(0.902315 0.0305047 0)
(0.394426 0.0269982 0)
(0.514855 0.025837 0)
(0.545693 0.0270974 0)
(0.485539 0.0285816 0)
(0.391557 0.0303566 0)
(0.309356 0.0322414 0)
(0.243756 0.0341933 0)
(0.177392 0.0360958 0)
(0.104689 0.0381216 0)
(0.0445347 0.0405673 0)
(3 3.18157e-08 0)
(2.99999 2.4715e-07 0)
(2.99996 7.59379e-07 0)
(2.99992 2.30265e-06 0)
(2.99978 5.40161e-06 0)
(2.99952 1.49985e-05 0)
(2.99869 3.12391e-05 0)
(2.99728 9.85719e-05 0)
(2.99189 0.000179843 0)
(2.98339 0.000679584 0)
(2.94862 0.00131859 0)
(2.87302 0.00469144 0)
(2.64503 0.0112204 0)
(1.90974 0.0365614 0)
(0.916045 0.0929115 0)
(0.392482 0.0779113 0)
(0.516677 0.0707439 0)
(0.549228 0.0720134 0)
(0.489291 0.0740983 0)
(0.395638 0.0770456 0)
(0.313164 0.0795093 0)
(0.246706 0.0816997 0)
(0.179092 0.0834718 0)
(0.104683 0.0848505 0)
(0.0431703 0.085311 0)
(3 5.11423e-08 0)
(2.99999 3.97824e-07 0)
(2.99996 1.22163e-06 0)
(2.99992 3.70833e-06 0)
(2.99979 8.69764e-06 0)
(2.99953 2.42155e-05 0)
(2.99874 5.02901e-05 0)
(2.99736 0.000160198 0)
(2.99221 0.000288154 0)
(2.98403 0.00111214 0)
(2.95079 0.00214363 0)
(2.879 0.00771439 0)
(2.6617 0.0185673 0)
(1.96149 0.0607504 0)
(0.950187 0.15665 0)
(0.396727 0.131638 0)
(0.526276 0.117921 0)
(0.562053 0.120204 0)
(0.502509 0.124634 0)
(0.409001 0.131393 0)
(0.325258 0.136583 0)
(0.256957 0.141059 0)
(0.187053 0.144994 0)
(0.109546 0.147953 0)
(0.0445569 0.148172 0)
(3 6.67592e-08 0)
(2.99999 5.19839e-07 0)
(2.99997 1.59609e-06 0)
(2.99992 4.84919e-06 0)
(2.9998 1.13903e-05 0)
(2.99955 3.1658e-05 0)
(2.99881 6.61968e-05 0)
(2.99748 0.000208777 0)
(2.99268 0.000376262 0)
(2.98495 0.00144247 0)
(2.95391 0.00277572 0)
(2.88764 0.00998966 0)
(2.6859 0.0241019 0)
(2.03871 0.0789845 0)
(1.00511 0.209281 0)
(0.411847 0.186497 0)
(0.54538 0.168545 0)
(0.585737 0.170499 0)
(0.527166 0.176262 0)
(0.433607 0.186622 0)
(0.347121 0.195027 0)
(0.275571 0.202573 0)
(0.201925 0.209503 0)
(0.119232 0.214899 0)
(0.0481449 0.215531 0)
(3 7.56912e-08 0)
(2.99999 5.88913e-07 0)
(2.99997 1.80937e-06 0)
(2.99993 5.48778e-06 0)
(2.99981 1.29291e-05 0)
(2.99958 3.5493e-05 0)
(2.99889 7.59559e-05 0)
(2.99762 0.000229439 0)
(2.99323 0.000424409 0)
(2.98605 0.00157351 0)
(2.95766 0.00302365 0)
(2.89794 0.0107582 0)
(2.71504 0.026611 0)
(2.1352 0.0850146 0)
(1.08623 0.228586 0)
(0.455002 0.230705 0)
(0.579223 0.219369 0)
(0.62138 0.222072 0)
(0.564039 0.229068 0)
(0.470513 0.24278 0)
(0.38009 0.255142 0)
(0.303757 0.2666 0)
(0.224585 0.277497 0)
(0.134384 0.286386 0)
(0.0545435 0.288314 0)
(3 7.74343e-08 0)
(2.99999 6.00504e-07 0)
(2.99997 1.84716e-06 0)
(2.99993 5.57455e-06 0)
(2.99982 1.31661e-05 0)
(2.99961 3.54383e-05 0)
(2.99897 7.78633e-05 0)
(2.99777 0.000220306 0)
(2.99379 0.000430674 0)
(2.98713 0.00148311 0)
(2.96132 0.00280845 0)
(2.90849 0.0099125 0)
(2.74337 0.0250773 0)
(2.22505 0.0734873 0)
(1.18659 0.205599 0)
(0.49677 0.263509 0)
(0.606226 0.271021 0)
(0.650132 0.273903 0)
(0.598136 0.282128 0)
(0.509115 0.300323 0)
(0.417625 0.318378 0)
(0.337908 0.335136 0)
(0.253867 0.351559 0)
(0.155174 0.366233 0)
(0.0638725 0.37202 0)
(3 7.76002e-08 0)
(2.99999 5.9924e-07 0)
(2.99997 1.84376e-06 0)
(2.99994 5.53433e-06 0)
(2.99983 1.30415e-05 0)
(2.99963 3.46268e-05 0)
(2.99904 7.6622e-05 0)
(2.99791 0.000208051 0)
(2.99428 0.000419928 0)
(2.98804 0.00136504 0)
(2.96447 0.00249675 0)
(2.9175 0.00895257 0)
(2.76402 0.0223072 0)
(2.29493 0.0595307 0)
(1.29701 0.180481 0)
(0.542219 0.30379 0)
(0.618598 0.331707 0)
(0.661411 0.32523 0)
(0.622206 0.333501 0)
(0.543759 0.356564 0)
(0.455389 0.382806 0)
(0.375326 0.407445 0)
(0.288848 0.432418 0)
(0.182812 0.456783 0)
(0.0781595 0.472039 0)
(3 8.57502e-08 0)
(2.99999 6.61582e-07 0)
(2.99997 2.03705e-06 0)
(2.99994 6.10184e-06 0)
(2.99985 1.43809e-05 0)
(2.99966 3.79384e-05 0)
(2.99911 8.4321e-05 0)
(2.99805 0.000222875 0)
(2.99475 0.000464541 0)
(2.98887 0.00139069 0)
(2.96746 0.00265668 0)
(2.92578 0.00887844 0)
(2.78221 0.0213455 0)
(2.36299 0.0598779 0)
(1.43224 0.173648 0)
(0.617576 0.350028 0)
(0.627322 0.378884 0)
(0.658267 0.371719 0)
(0.640161 0.384313 0)
(0.576561 0.410529 0)
(0.494535 0.44596 0)
(0.416846 0.481354 0)
(0.331411 0.519273 0)
(0.220679 0.559908 0)
(0.100418 0.596888 0)
(3 1.05953e-07 0)
(2.99999 8.13641e-07 0)
(2.99998 2.50955e-06 0)
(2.99995 7.50204e-06 0)
(2.99986 1.78088e-05 0)
(2.99969 4.67521e-05 0)
(2.9992 0.000105419 0)
(2.99823 0.000268795 0)
(2.99525 0.00060293 0)
(2.98988 0.00153306 0)
(2.97056 0.00340875 0)
(2.9337 0.00908394 0)
(2.8031 0.0222642 0)
(2.43203 0.063242 0)
(1.5787 0.168015 0)
(0.708308 0.391352 0)
(0.635416 0.408798 0)
(0.663695 0.411054 0)
(0.658797 0.432417 0)
(0.608929 0.46232 0)
(0.537639 0.506398 0)
(0.46565 0.555144 0)
(0.385936 0.609119 0)
(0.278361 0.67646 0)
(0.140152 0.760865 0)
(3 4.95996e-08 0)
(2.99999 1.29757e-06 0)
(2.99998 2.63322e-06 0)
(2.99995 1.15303e-05 0)
(2.99988 1.91227e-05 0)
(2.99973 7.41594e-05 0)
(2.9993 0.000105822 0)
(2.99847 0.000453475 0)
(2.9958 0.000489068 0)
(2.99122 0.0026552 0)
(2.97363 0.0018558 0)
(2.94201 0.0160867 0)
(2.82361 0.0109853 0)
(2.49542 0.09193 0)
(1.71898 0.159986 0)
(0.804535 0.435376 0)
(0.639718 0.44289 0)
(0.673519 0.44794 0)
(0.680859 0.474944 0)
(0.643305 0.511645 0)
(0.586359 0.562675 0)
(0.524353 0.624102 0)
(0.459382 0.700745 0)
(0.374181 0.815242 0)
(0.214287 1.02093 0)
(3 9.06531e-08 0)
(2.99999 7.07476e-07 0)
(2.99999 2.17666e-06 0)
(2.99996 6.57792e-06 0)
(2.99991 1.55942e-05 0)
(2.99976 4.1514e-05 0)
(2.99951 9.36596e-05 0)
(2.99855 0.000243619 0)
(2.99708 0.00054381 0)
(2.99103 0.00144216 0)
(2.98141 0.00313063 0)
(2.94191 0.00918071 0)
(2.8551 0.0213871 0)
(2.59094 0.0641799 0)
(1.78743 0.185589 0)
(0.928884 0.469876 0)
(0.647799 0.473803 0)
(0.688132 0.481116 0)
(0.708678 0.510466 0)
(0.682511 0.554328 0)
(0.640001 0.61075 0)
(0.597467 0.682778 0)
(0.567434 0.780368 0)
(0.566194 0.927548 0)
(0.603233 1.16998 0)
(3 1.34308e-07 0)
(2.99999 1.28831e-07 0)
(2.99998 1.75823e-06 0)
(2.99996 1.70163e-06 0)
(2.99991 1.2231e-05 0)
(2.9998 9.12699e-06 0)
(2.99947 8.14888e-05 0)
(2.99884 3.62259e-05 0)
(2.9968 0.000585142 0)
(2.99337 0.000291745 0)
(2.98007 0.00423889 0)
(2.95713 0.00285316 0)
(2.86895 0.0305371 0)
(2.64053 0.046772 0)
(2.04984 0.190712 0)
(1.05678 0.511235 0)
(0.670803 0.515141 0)
(0.712867 0.521051 0)
(0.743791 0.543885 0)
(0.72805 0.589424 0)
(0.699646 0.649267 0)
(0.679762 0.727842 0)
(0.686269 0.833939 0)
(0.746867 0.979266 0)
(0.893974 1.16515 0)
(3 7.30549e-08 0)
(3 5.70761e-07 0)
(2.99999 1.75303e-06 0)
(2.99997 5.32282e-06 0)
(2.99992 1.25561e-05 0)
(2.99982 3.38393e-05 0)
(2.99954 7.5399e-05 0)
(2.99897 0.00020587 0)
(2.9973 0.000426579 0)
(2.99408 0.00134701 0)
(2.98364 0.00244396 0)
(2.9639 0.00930538 0)
(2.89504 0.0179725 0)
(2.71742 0.068478 0)
(2.25611 0.168488 0)
(1.22583 0.503322 0)
(0.730326 0.553906 0)
(0.754307 0.57134 0)
(0.78697 0.580803 0)
(0.781944 0.620999 0)
(0.765274 0.680642 0)
(0.764809 0.758644 0)
(0.797381 0.858969 0)
(0.885132 0.981254 0)
(1.05661 1.10152 0)
(3 7.96838e-08 0)
(3 6.22447e-07 0)
(2.99999 1.91259e-06 0)
(2.99997 5.80346e-06 0)
(2.99993 1.37734e-05 0)
(2.99985 3.69716e-05 0)
(2.99961 8.35851e-05 0)
(2.99914 0.000219763 0)
(2.99775 0.000493835 0)
(2.99506 0.0012901 0)
(2.98663 0.00296276 0)
(2.97027 0.00776995 0)
(2.91592 0.018347 0)
(2.77912 0.0531921 0)
(2.41594 0.137203 0)
(1.42084 0.411129 0)
(0.824864 0.57798 0)
(0.803121 0.614408 0)
(0.827359 0.623878 0)
(0.838131 0.653568 0)
(0.833275 0.707214 0)
(0.845318 0.778135 0)
(0.891831 0.863253 0)
(0.987175 0.957746 0)
(1.152 1.03679 0)
(3 7.52962e-08 0)
(3 5.86932e-07 0)
(2.99999 1.80551e-06 0)
(2.99998 5.46215e-06 0)
(2.99995 1.29711e-05 0)
(2.99988 3.4613e-05 0)
(2.99969 7.82812e-05 0)
(2.99931 0.000203252 0)
(2.99819 0.000460854 0)
(2.99614 0.00116011 0)
(2.989 0.00274072 0)
(2.97691 0.00658753 0)
(2.93116 0.0164365 0)
(2.82383 0.042335 0)
(2.52374 0.112397 0)
(1.62067 0.321773 0)
(0.935451 0.615721 0)
(0.837211 0.651847 0)
(0.857847 0.667287 0)
(0.882445 0.685271 0)
(0.894068 0.728931 0)
(0.916402 0.789436 0)
(0.969131 0.858753 0)
(1.06328 0.929672 0)
(1.21271 0.984096 0)
(3 6.28431e-08 0)
(3 4.86432e-07 0)
(2.99999 1.4984e-06 0)
(2.99998 4.50284e-06 0)
(2.99996 1.06683e-05 0)
(2.9999 2.81998e-05 0)
(2.99975 6.33865e-05 0)
(2.99946 0.000164191 0)
(2.99855 0.000360712 0)
(2.99696 0.000962597 0)
(2.99113 0.00202583 0)
(2.98182 0.00588301 0)
(2.94445 0.0124804 0)
(2.86338 0.0381949 0)
(2.62067 0.0952578 0)
(1.85751 0.289115 0)
(1.0982 0.652253 0)
(0.871074 0.682736 0)
(0.88347 0.698721 0)
(0.916346 0.709012 0)
(0.945281 0.743676 0)
(0.97719 0.794117 0)
(1.03275 0.850644 0)
(1.12223 0.904881 0)
(1.25448 0.943938 0)
(3 5.27041e-08 0)
(3 4.07109e-07 0)
(2.99999 1.25444e-06 0)
(2.99999 3.76315e-06 0)
(2.99997 8.90211e-06 0)
(2.99992 2.34903e-05 0)
(2.9998 5.25944e-05 0)
(2.99956 0.000136904 0)
(2.99885 0.000295054 0)
(2.99753 0.000821225 0)
(2.99308 0.00162236 0)
(2.9857 0.00527106 0)
(2.95698 0.0102472 0)
(2.89679 0.0351269 0)
(2.71263 0.0827378 0)
(2.12775 0.266208 0)
(1.30704 0.662158 0)
(0.935139 0.713706 0)
(0.923442 0.724749 0)
(0.952971 0.730652 0)
(0.992795 0.753793 0)
(1.03085 0.794529 0)
(1.08655 0.840952 0)
(1.16988 0.883599 0)
(1.28613 0.912949 0)
(3 4.62983e-08 0)
(3 3.57842e-07 0)
(3 1.1028e-06 0)
(2.99999 3.31217e-06 0)
(2.99997 7.8556e-06 0)
(2.99994 2.07592e-05 0)
(2.99985 4.67417e-05 0)
(2.99966 0.000120792 0)
(2.99912 0.000267542 0)
(2.99807 0.000704673 0)
(2.99482 0.00150313 0)
(2.98906 0.00433772 0)
(2.9685 0.00884169 0)
(2.92698 0.0275934 0)
(2.79724 0.0673848 0)
(2.40229 0.200297 0)
(1.60031 0.551618 0)
(1.05864 0.723743 0)
(0.991718 0.748093 0)
(1.00346 0.75859 0)
(1.04253 0.768663 0)
(1.0838 0.797441 0)
(1.13628 0.833868 0)
(1.21137 0.8671 0)
(1.31287 0.889257 0)
(3 2.5602e-08 0)
(3 3.39598e-07 0)
(3 8.37253e-07 0)
(2.99999 3.05106e-06 0)
(2.99998 6.07492e-06 0)
(2.99995 1.90538e-05 0)
(2.99988 3.63671e-05 0)
(2.99974 0.000111145 0)
(2.99934 0.000206787 0)
(2.99856 0.000651835 0)
(2.99609 0.00110866 0)
(2.99185 0.00398561 0)
(2.97589 0.0056035 0)
(2.94751 0.0246339 0)
(2.84312 0.0389837 0)
(2.5616 0.154215 0)
(1.89587 0.371241 0)
(1.18043 0.740896 0)
(1.0403 0.775133 0)
(1.04348 0.790116 0)
(1.08161 0.791645 0)
(1.12939 0.80587 0)
(1.18091 0.831486 0)
(1.24846 0.856469 0)
(1.33706 0.87267 0)
(3 1.85231e-08 0)
(3 2.51399e-07 0)
(3 6.14075e-07 0)
(2.99999 2.25398e-06 0)
(2.99999 4.4404e-06 0)
(2.99996 1.39926e-05 0)
(2.99992 2.63623e-05 0)
(2.9998 8.08752e-05 0)
(2.99957 0.000149875 0)
(2.99882 0.000467185 0)
(2.99759 0.000829219 0)
(2.99282 0.00284731 0)
(2.98533 0.00448778 0)
(2.95553 0.0186653 0)
(2.89263 0.0304678 0)
(2.69891 0.122327 0)
(2.1263 0.304729 0)
(1.38161 0.750188 0)
(1.09658 0.806126 0)
(1.08359 0.817045 0)
(1.1141 0.815543 0)
(1.16642 0.816784 0)
(1.22048 0.832376 0)
(1.2825 0.850117 0)
(1.3602 0.86173 0)
(3 3.51003e-08 0)
(3 1.29572e-07 0)
(3 6.08817e-07 0)
(3 1.28909e-06 0)
(2.99999 4.21937e-06 0)
(2.99997 8.10177e-06 0)
(2.99994 2.47986e-05 0)
(2.99985 4.62064e-05 0)
(2.99966 0.000143014 0)
(2.99912 0.000251042 0)
(2.99808 0.00086915 0)
(2.9949 0.00133081 0)
(2.98907 0.00565651 0)
(2.96941 0.00804598 0)
(2.92844 0.03667 0)
(2.80322 0.0689217 0)
(2.43016 0.247356 0)
(1.6882 0.619693 0)
(1.21153 0.808015 0)
(1.14577 0.833535 0)
(1.15684 0.839747 0)
(1.20377 0.833728 0)
(1.2586 0.838403 0)
(1.31558 0.848402 0)
(1.38385 0.85527 0)
(3 2.17715e-08 0)
(3 1.18697e-07 0)
(3 4.41152e-07 0)
(3 1.13228e-06 0)
(2.99999 3.10961e-06 0)
(2.99998 7.12829e-06 0)
(2.99995 1.84553e-05 0)
(2.9999 4.12791e-05 0)
(2.99974 0.000105714 0)
(2.99943 0.000234674 0)
(2.99849 0.000604141 0)
(2.99679 0.0013268 0)
(2.99094 0.00352963 0)
(2.98084 0.00760864 0)
(2.94473 0.0211726 0)
(2.86051 0.0520654 0)
(2.62373 0.142055 0)
(1.95156 0.426029 0)
(1.35532 0.78845 0)
(1.20037 0.843858 0)
(1.19581 0.86351 0)
(1.23408 0.858806 0)
(1.29062 0.851052 0)
(1.34584 0.851933 0)
(1.407 0.853654 0)
(3 1.23573e-08 0)
(3 9.60621e-08 0)
(3 2.95914e-07 0)
(3 8.91046e-07 0)
(2.99999 2.11245e-06 0)
(2.99999 5.58483e-06 0)
(2.99997 1.25676e-05 0)
(2.99992 3.23802e-05 0)
(2.99982 7.19003e-05 0)
(2.99954 0.000185819 0)
(2.99899 0.000405959 0)
(2.99734 0.00109377 0)
(2.9943 0.00227675 0)
(2.98404 0.00669907 0)
(2.96528 0.0142061 0)
(2.89986 0.0413645 0)
(2.73594 0.111681 0)
(2.29313 0.299965 0)
(1.54969 0.762664 0)
(1.26776 0.861734 0)
(1.23825 0.882672 0)
(1.25972 0.883436 0)
(1.31256 0.869294 0)
(1.37095 0.861115 0)
(1.42927 0.857443 0)
(3 1.50252e-08 0)
(3 5.86808e-08 0)
(3 2.6607e-07 0)
(3 5.84832e-07 0)
(3 1.86383e-06 0)
(2.99999 3.73184e-06 0)
(2.99998 1.10906e-05 0)
(2.99995 2.17922e-05 0)
(2.99987 6.38711e-05 0)
(2.99971 0.00012482 0)
(2.99925 0.000367477 0)
(2.99835 0.000709171 0)
(2.99562 0.00217622 0)
(2.99076 0.00391903 0)
(2.97364 0.0136644 0)
(2.94096 0.0237151 0)
(2.83292 0.0872293 0)
(2.53716 0.206325 0)
(1.88571 0.587552 0)
(1.39083 0.853483 0)
(1.29723 0.889437 0)
(1.29694 0.902217 0)
(1.33658 0.890659 0)
(1.39367 0.873961 0)
(1.45046 0.865005 0)
(3 6.90467e-09 0)
(3 5.35184e-08 0)
(3 1.64975e-07 0)
(3 4.95616e-07 0)
(3 1.17525e-06 0)
(2.99999 3.09665e-06 0)
(2.99998 6.97198e-06 0)
(2.99996 1.78692e-05 0)
(2.99991 3.97179e-05 0)
(2.99979 0.000101388 0)
(2.99947 0.000224143 0)
(2.99885 0.000577998 0)
(2.99697 0.00125375 0)
(2.99362 0.00341678 0)
(2.98179 0.00701631 0)
(2.96111 0.0212602 0)
(2.88673 0.0460813 0)
(2.69642 0.144896 0)
(2.22273 0.381346 0)
(1.56147 0.831981 0)
(1.35281 0.905051 0)
(1.33362 0.919144 0)
(1.35591 0.91244 0)
(1.40929 0.89147 0)
(1.46831 0.875668 0)
(3 3.99176e-09 0)
(3 4.36105e-08 0)
(3 1.15618e-07 0)
(3 3.93826e-07 0)
(3 8.30833e-07 0)
(3 2.4419e-06 0)
(2.99999 4.93465e-06 0)
(2.99997 1.40404e-05 0)
(2.99994 2.80987e-05 0)
(2.99986 7.94749e-05 0)
(2.99964 0.000158137 0)
(2.99921 0.000451178 0)
(2.99798 0.00087553 0)
(2.99557 0.00265532 0)
(2.98834 0.00468319 0)
(2.97377 0.0166766 0)
(2.92946 0.0280625 0)
(2.81929 0.107779 0)
(2.52865 0.239212 0)
(1.83733 0.684036 0)
(1.45974 0.881774 0)
(1.38772 0.915528 0)
(1.38866 0.925146 0)
(1.42847 0.910101 0)
(1.48487 0.885956 0)
(3 2.7407e-09 0)
(3 2.97541e-08 0)
(3 7.90324e-08 0)
(3 2.6912e-07 0)
(3 5.68026e-07 0)
(3 1.66786e-06 0)
(2.99999 3.36873e-06 0)
(2.99998 9.57381e-06 0)
(2.99996 1.91462e-05 0)
(2.9999 5.40708e-05 0)
(2.99978 0.000107663 0)
(2.99945 0.000305116 0)
(2.99881 0.000603775 0)
(2.9968 0.00174035 0)
(2.99338 0.00339029 0)
(2.98082 0.0102101 0)
(2.9591 0.0203077 0)
(2.87941 0.0630883 0)
(2.68174 0.151399 0)
(2.18334 0.431904 0)
(1.59885 0.85202 0)
(1.4398 0.919506 0)
(1.42287 0.934585 0)
(1.44393 0.927665 0)
(1.49484 0.901474 0)
(3 3.08388e-09 0)
(3 1.66228e-08 0)
(3 6.18017e-08 0)
(3 1.58458e-07 0)
(3 4.33035e-07 0)
(3 9.90036e-07 0)
(3 2.54144e-06 0)
(2.99999 5.6632e-06 0)
(2.99997 1.43312e-05 0)
(2.99993 3.16878e-05 0)
(2.99985 8.00766e-05 0)
(2.99962 0.0001761 0)
(2.99917 0.000451472 0)
(2.99789 0.000965142 0)
(2.99539 0.00265407 0)
(2.98787 0.0053291 0)
(2.97294 0.0163662 0)
(2.92708 0.0338188 0)
(2.8123 0.109128 0)
(2.5119 0.274945 0)
(1.86099 0.71526 0)
(1.52841 0.898724 0)
(1.46869 0.930777 0)
(1.47011 0.938221 0)
(1.5078 0.92128 0)
(3 2.52067e-09 0)
(3 1.09084e-08 0)
(3 4.63644e-08 0)
(3 1.06499e-07 0)
(3 3.22391e-07 0)
(3 6.69433e-07 0)
(3 1.89089e-06 0)
(2.99999 3.84472e-06 0)
(2.99998 1.06871e-05 0)
(2.99996 2.16225e-05 0)
(2.9999 5.99375e-05 0)
(2.99976 0.000120865 0)
(2.99946 0.000336264 0)
(2.99863 0.000673807 0)
(2.99702 0.00190663 0)
(2.99216 0.00374575 0)
(2.98298 0.011147 0)
(2.95357 0.0219808 0)
(2.88533 0.0693059 0)
(2.69735 0.159691 0)
(2.16415 0.479859 0)
(1.67726 0.853604 0)
(1.52494 0.926372 0)
(1.50446 0.943263 0)
(1.52172 0.937846 0)
(3 1.65671e-09 0)
(3 7.17538e-09 0)
(3 3.04546e-08 0)
(3 7.01199e-08 0)
(3 2.11818e-07 0)
(3 4.40738e-07 0)
(3 1.24153e-06 0)
(3 2.52904e-06 0)
(2.99999 7.00707e-06 0)
(2.99997 1.42045e-05 0)
(2.99993 3.92223e-05 0)
(2.99986 7.92905e-05 0)
(2.99963 0.000219484 0)
(2.9992 0.00044183 0)
(2.99795 0.00123884 0)
(2.99553 0.0024556 0)
(2.98824 0.00722922 0)
(2.97382 0.0139561 0)
(2.92973 0.0438991 0)
(2.82206 0.0991984 0)
(2.52357 0.296169 0)
(1.92266 0.717902 0)
(1.61127 0.903154 0)
(1.54959 0.93866 0)
(1.54734 0.947128 0)
(3 7.34957e-10 0)
(3 5.68132e-09 0)
(3 1.75192e-08 0)
(3 5.2434e-08 0)
(3 1.24193e-07 0)
(3 3.25201e-07 0)
(3 7.30598e-07 0)
(3 1.85704e-06 0)
(2.99999 4.12112e-06 0)
(2.99998 1.04058e-05 0)
(2.99996 2.30082e-05 0)
(2.99991 5.80709e-05 0)
(2.99977 0.000128107 0)
(2.99948 0.000324566 0)
(2.9987 0.000713051 0)
(2.99715 0.00183397 0)
(2.99257 0.00399376 0)
(2.98395 0.010655 0)
(2.95626 0.0236113 0)
(2.89438 0.0657899 0)
(2.71807 0.165959 0)
(2.22124 0.473246 0)
(1.75682 0.855257 0)
(1.60278 0.933646 0)
(1.57914 0.951318 0)
(3 4.08478e-10 0)
(3 4.05522e-09 0)
(3 1.11764e-08 0)
(3 3.66656e-08 0)
(3 7.963e-08 0)
(3 2.25728e-07 0)
(3 4.67953e-07 0)
(3 1.2832e-06 0)
(3 2.63355e-06 0)
(2.99999 7.16215e-06 0)
(2.99997 1.46607e-05 0)
(2.99994 3.98022e-05 0)
(2.99986 8.12733e-05 0)
(2.99968 0.00022111 0)
(2.99921 0.000449476 0)
(2.99826 0.00123617 0)
(2.99557 0.00247531 0)
(2.99022 0.00712785 0)
(2.97456 0.0137848 0)
(2.94029 0.043097 0)
(2.84325 0.0934232 0)
(2.55731 0.295905 0)
(2.03543 0.679068 0)
(1.70165 0.897402 0)
(1.6299 0.941686 0)
(3 3.10245e-10 0)
(3 2.38796e-09 0)
(3 7.37079e-09 0)
(3 2.19791e-08 0)
(3 5.20569e-08 0)
(3 1.35676e-07 0)
(3 3.04618e-07 0)
(3 7.69967e-07 0)
(3 1.70737e-06 0)
(2.99999 4.28268e-06 0)
(2.99998 9.46425e-06 0)
(2.99996 2.36928e-05 0)
(2.99992 5.22527e-05 0)
(2.99979 0.000130869 0)
(2.99954 0.000287952 0)
(2.99884 0.000724675 0)
(2.99746 0.00158636 0)
(2.9934 0.00405524 0)
(2.98571 0.00894719 0)
(2.96153 0.0234701 0)
(2.90739 0.055439 0)
(2.75239 0.151637 0)
(2.32806 0.422659 0)
(1.86769 0.812379 0)
(1.68907 0.923448 0)
(3 2.78451e-10 0)
(3 1.23169e-09 0)
(3 5.13832e-09 0)
(3 1.20157e-08 0)
(3 3.56897e-08 0)
(3 7.52475e-08 0)
(3 2.08177e-07 0)
(3 4.2918e-07 0)
(3 1.16672e-06 0)
(3 2.3936e-06 0)
(2.99999 6.47745e-06 0)
(2.99998 1.3273e-05 0)
(2.99995 3.58982e-05 0)
(2.99988 7.34702e-05 0)
(2.9997 0.000199205 0)
(2.99934 0.00040665 0)
(2.99834 0.0011141 0)
(2.99635 0.00224997 0)
(2.99067 0.0064067 0)
(2.97882 0.0126807 0)
(2.94524 0.038159 0)
(2.86408 0.0855833 0)
(2.63771 0.251879 0)
(2.12736 0.631082 0)
(1.79432 0.886826 0)
(3 1.20529e-10 0)
(3 9.29347e-10 0)
(3 2.86861e-09 0)
(3 8.56307e-09 0)
(3 2.02764e-08 0)
(3 5.28623e-08 0)
(3 1.18603e-07 0)
(3 2.9977e-07 0)
(3 6.64059e-07 0)
(3 1.66585e-06 0)
(2.99999 3.67717e-06 0)
(2.99999 9.21139e-06 0)
(2.99997 2.02928e-05 0)
(2.99993 5.08945e-05 0)
(2.99982 0.000111889 0)
(2.9996 0.00028191 0)
(2.999 0.000617687 0)
(2.99781 0.00157258 0)
(2.99439 0.00346347 0)
(2.98797 0.00889031 0)
(2.96758 0.0204832 0)
(2.92512 0.0529709 0)
(2.79962 0.135345 0)
(2.44075 0.378948 0)
(1.99427 0.768897 0)
(3 6.55883e-11 0)
(3 6.23474e-10 0)
(3 1.74937e-09 0)
(3 5.64181e-09 0)
(3 1.24221e-08 0)
(3 3.46175e-08 0)
(3 7.26595e-08 0)
(3 1.95709e-07 0)
(3 4.06569e-07 0)
(3 1.08525e-06 0)
(3 2.25045e-06 0)
(2.99999 5.98878e-06 0)
(2.99998 1.24177e-05 0)
(2.99996 3.30062e-05 0)
(2.99989 6.83945e-05 0)
(2.99977 0.000181943 0)
(2.99941 0.000376102 0)
(2.99872 0.00100727 0)
(2.99675 0.00206036 0)
(2.99303 0.00571956 0)
(2.98127 0.0112423 0)
(2.95931 0.0340015 0)
(2.88847 0.0706888 0)
(2.69746 0.224347 0)
(2.28955 0.53572 0)
(3 3.95501e-11 0)
(3 3.73551e-10 0)
(3 1.05099e-09 0)
(3 3.38366e-09 0)
(3 7.46167e-09 0)
(3 2.07403e-08 0)
(3 4.35669e-08 0)
(3 1.16979e-07 0)
(3 2.43077e-07 0)
(3 6.46664e-07 0)
(3 1.34085e-06 0)
(3 3.55584e-06 0)
(2.99999 7.37136e-06 0)
(2.99997 1.95188e-05 0)
(2.99994 4.04471e-05 0)
(2.99986 0.000107088 0)
(2.99969 0.000221481 0)
(2.99922 0.000588712 0)
(2.99831 0.00120876 0)
(2.99563 0.00329458 0)
(2.99083 0.00652095 0)
(2.97495 0.0193882 0)
(2.94431 0.0378002 0)
(2.84948 0.119356 0)
(2.59047 0.30225 0)
(3 3.89558e-11 0)
(3 1.7907e-10 0)
(3 7.28685e-10 0)
(3 1.73227e-09 0)
(3 5.03722e-09 0)
(3 1.07606e-08 0)
(3 2.91304e-08 0)
(3 6.07595e-08 0)
(3 1.61502e-07 0)
(3 3.34988e-07 0)
(3 8.85536e-07 0)
(3 1.83439e-06 0)
(2.99999 4.83807e-06 0)
(2.99998 1.00148e-05 0)
(2.99997 2.63858e-05 0)
(2.99992 5.45225e-05 0)
(2.99982 0.000143784 0)
(2.99954 0.000296034 0)
(2.999 0.000788045 0)
(2.99746 0.00159324 0)
(2.99465 0.00444469 0)
(2.98533 0.0085424 0)
(2.96905 0.0260784 0)
(2.9139 0.0523892 0)
(2.77751 0.163755 0)
(3 2.29185e-11 0)
(3 1.06624e-10 0)
(3 4.31939e-10 0)
(3 1.02972e-09 0)
(3 2.98524e-09 0)
(3 6.39203e-09 0)
(3 1.72524e-08 0)
(3 3.60662e-08 0)
(3 9.55853e-08 0)
(3 1.98739e-07 0)
(3 5.2392e-07 0)
(3 1.08833e-06 0)
(3 2.86295e-06 0)
(2.99999 5.94767e-06 0)
(2.99998 1.56273e-05 0)
(2.99995 3.24536e-05 0)
(2.99989 8.52753e-05 0)
(2.99976 0.000176738 0)
(2.99939 0.000467079 0)
(2.99868 0.000956635 0)
(2.99663 0.00261512 0)
(2.99282 0.00512247 0)
(2.98075 0.0153537 0)
(2.95759 0.0297195 0)
(2.88541 0.0926639 0)
(3 9.42364e-12 0)
(3 7.22488e-11 0)
(3 2.23171e-10 0)
(3 6.63604e-10 0)
(3 1.56973e-09 0)
(3 4.06818e-09 0)
(3 9.10547e-09 0)
(3 2.28417e-08 0)
(3 5.04415e-08 0)
(3 1.25466e-07 0)
(3 2.76112e-07 0)
(3 6.85103e-07 0)
(3 1.50614e-06 0)
(3 3.73412e-06 0)
(2.99999 8.20382e-06 0)
(2.99997 2.03401e-05 0)
(2.99994 4.46404e-05 0)
(2.99986 0.000110819 0)
(2.99965 0.000242837 0)
(2.99924 0.000606261 0)
(2.99812 0.00131952 0)
(2.99592 0.00338413 0)
(2.98956 0.00717192 0)
(2.97711 0.0195735 0)
(2.94054 0.0427234 0)
(3 4.87447e-12 0)
(3 4.48611e-11 0)
(3 1.27467e-10 0)
(3 4.05444e-10 0)
(3 9.00126e-10 0)
(3 2.4699e-09 0)
(3 5.21447e-09 0)
(3 1.38098e-08 0)
(3 2.88109e-08 0)
(3 7.55746e-08 0)
(3 1.57225e-07 0)
(3 4.11139e-07 0)
(3 8.54822e-07 0)
(3 2.23197e-06 0)
(2.99999 4.63968e-06 0)
(2.99999 1.21029e-05 0)
(2.99996 2.51401e-05 0)
(2.99992 6.55785e-05 0)
(2.9998 0.000135914 0)
(2.99957 0.000355445 0)
(2.99894 0.000733009 0)
(2.99769 0.00194036 0)
(2.99416 0.00394716 0)
(2.98719 0.010829 0)
(2.96703 0.0221186 0)
(3 2.71767e-12 0)
(3 2.50751e-11 0)
(3 7.09611e-11 0)
(3 2.26684e-10 0)
(3 5.01436e-10 0)
(3 1.38012e-09 0)
(3 2.90234e-09 0)
(3 7.70516e-09 0)
(3 1.6007e-08 0)
(3 4.20897e-08 0)
(3 8.71813e-08 0)
(3 2.28587e-07 0)
(3 4.7325e-07 0)
(3 1.23931e-06 0)
(3 2.56618e-06 0)
(2.99999 6.71437e-06 0)
(2.99998 1.3901e-05 0)
(2.99995 3.63665e-05 0)
(2.9999 7.5177e-05 0)
(2.99974 0.000197122 0)
(2.99944 0.000406066 0)
(2.9986 0.0010747 0)
(2.99694 0.00219521 0)
(2.99231 0.00595581 0)
(2.9827 0.0122529 0)
(3 2.16964e-12 0)
(3 1.18585e-11 0)
(3 4.36609e-11 0)
(3 1.1199e-10 0)
(3 3.02114e-10 0)
(3 6.8779e-10 0)
(3 1.73348e-09 0)
(3 3.83638e-09 0)
(3 9.49997e-09 0)
(3 2.08686e-08 0)
(3 5.14151e-08 0)
(3 1.12702e-07 0)
(3 2.7718e-07 0)
(3 6.07087e-07 0)
(3 1.4918e-06 0)
(2.99999 3.26499e-06 0)
(2.99999 8.02051e-06 0)
(2.99997 1.7532e-05 0)
(2.99994 4.30966e-05 0)
(2.99985 9.40389e-05 0)
(2.99967 0.000231926 0)
(2.99918 0.000504576 0)
(2.99823 0.00125463 0)
(2.99557 0.00274428 0)
(2.99026 0.00686356 0)
(3 1.33982e-12 0)
(3 5.90184e-12 0)
(3 2.48592e-11 0)
(3 5.70928e-11 0)
(3 1.6976e-10 0)
(3 3.49718e-10 0)
(3 9.6482e-10 0)
(3 1.93222e-09 0)
(3 5.23631e-09 0)
(3 1.03767e-08 0)
(3 2.80322e-08 0)
(3 5.51912e-08 0)
(3 1.49234e-07 0)
(3 2.92062e-07 0)
(3 7.91414e-07 0)
(3 1.53838e-06 0)
(2.99999 4.18065e-06 0)
(2.99998 8.05605e-06 0)
(2.99996 2.1993e-05 0)
(2.9999 4.1867e-05 0)
(2.99978 0.000115305 0)
(2.99945 0.000215808 0)
(2.9988 0.000605205 0)
(2.99698 0.00109926 0)
(2.99345 0.00321635 0)
(3 7.46078e-13 0)
(3 2.7224e-12 0)
(3 1.26664e-11 0)
(3 2.70697e-11 0)
(3 8.58781e-11 0)
(3 1.65298e-10 0)
(3 4.85033e-10 0)
(3 9.02815e-10 0)
(3 2.60909e-09 0)
(3 4.76708e-09 0)
(3 1.38162e-08 0)
(3 2.48384e-08 0)
(3 7.265e-08 0)
(3 1.28356e-07 0)
(3 3.80074e-07 0)
(3 6.58105e-07 0)
(2.99999 1.97835e-06 0)
(2.99999 3.34279e-06 0)
(2.99997 1.02436e-05 0)
(2.99993 1.67707e-05 0)
(2.99982 5.27962e-05 0)
(2.99959 8.271e-05 0)
(2.99896 0.000271815 0)
(2.99774 0.000393822 0)
(2.99402 0.00143404 0)
(3 2.35248e-13 0)
(3 1.76955e-12 0)
(3 5.43343e-12 0)
(3 1.59564e-11 0)
(3 3.75951e-11 0)
(3 9.55079e-11 0)
(3 2.12073e-10 0)
(3 5.17881e-10 0)
(3 1.13056e-09 0)
(3 2.7244e-09 0)
(3 5.91268e-09 0)
(3 1.41619e-08 0)
(3 3.06513e-08 0)
(3 7.30953e-08 0)
(3 1.57907e-07 0)
(3 3.749e-07 0)
(2.99999 8.0853e-07 0)
(2.99999 1.90947e-06 0)
(2.99997 4.11094e-06 0)
(2.99994 9.64339e-06 0)
(2.99984 2.07175e-05 0)
(2.99964 4.81653e-05 0)
(2.99906 0.000103188 0)
(2.99794 0.000236011 0)
(2.99451 0.000510669 0)
(3 6.69771e-15 0)
(3 1.29514e-12 0)
(3 2.18643e-12 0)
(3 1.09737e-11 0)
(3 1.56208e-11 0)
(3 6.51537e-11 0)
(3 8.76371e-11 0)
(3 3.58277e-10 0)
(3 4.60588e-10 0)
(3 1.93255e-09 0)
(3 2.37034e-09 0)
(3 1.03757e-08 0)
(3 1.20934e-08 0)
(3 5.57058e-08 0)
(3 6.14213e-08 0)
(3 2.99707e-07 0)
(3 3.10758e-07 0)
(2.99999 1.6191e-06 0)
(2.99997 1.55996e-06 0)
(2.99994 8.80027e-06 0)
(2.99985 7.51629e-06 0)
(2.99966 4.86289e-05 0)
(2.99912 2.83534e-05 0)
(2.99808 0.000285011 0)
(2.99475 -1.87024e-05 0)
(3 2.66883e-14 0)
(3 3.30284e-13 0)
(3 9.83674e-13 0)
(3 2.95997e-12 0)
(3 7.01278e-12 0)
(3 1.76072e-11 0)
(3 3.89228e-11 0)
(3 9.35935e-11 0)
(3 2.02525e-10 0)
(3 4.79285e-10 0)
(3 1.02896e-09 0)
(3 2.41299e-09 0)
(3 5.1567e-09 0)
(3 1.20047e-08 0)
(3 2.55591e-08 0)
(3 5.90797e-08 0)
(3 1.25355e-07 0)
(2.99999 2.87405e-07 0)
(2.99998 6.0782e-07 0)
(2.99994 1.37852e-06 0)
(2.99987 2.90577e-06 0)
(2.99965 6.49067e-06 0)
(2.99926 1.36186e-05 0)
(2.9979 2.97718e-05 0)
(2.9957 6.25515e-05 0)
(3 1.16335e-13 0)
(3 -3.08941e-13 0)
(3 8.19408e-13 0)
(3 -2.29226e-12 0)
(3 4.80085e-12 0)
(3 -1.39987e-11 0)
(3 2.55562e-11 0)
(3 -8.57063e-11 0)
(3 1.31657e-10 0)
(3 -5.27046e-10 0)
(3 6.62869e-10 0)
(3 -3.23019e-09 0)
(3 3.27402e-09 0)
(3 -1.96949e-08 0)
(3 1.58334e-08 0)
(3 -1.1957e-07 0)
(3 7.48137e-08 0)
(2.99999 -7.24822e-07 0)
(2.99997 3.49867e-07 0)
(2.99994 -4.39744e-06 0)
(2.99985 1.86494e-06 0)
(2.99967 -2.7157e-05 0)
(2.99914 1.72816e-05 0)
(2.99812 -0.000181639 0)
(2.99484 0.000239306 0)
(3 7.91822e-15 0)
(3 9.15619e-15 0)
(3 3.94981e-14 0)
(3 -7.84421e-15 0)
(3 -5.01051e-14 0)
(3 -4.59651e-13 0)
(3 -1.15591e-12 0)
(3 -4.84213e-12 0)
(3 -1.1828e-11 0)
(3 -4.10771e-11 0)
(3 -9.76614e-11 0)
(3 -3.07056e-10 0)
(3 -7.15579e-10 0)
(3 -2.11687e-09 0)
(3 -4.88011e-09 0)
(3 -1.38442e-08 0)
(3 -3.19319e-08 0)
(2.99999 -8.70502e-08 0)
(2.99997 -2.03258e-07 0)
(2.99994 -5.25689e-07 0)
(2.99985 -1.2513e-06 0)
(2.99967 -2.98761e-06 0)
(2.99913 -7.20528e-06 0)
(2.99809 -1.35525e-05 0)
(2.99483 -4.2536e-05 0)
(1.27934 1.08091 0)
(1.71389 0.884623 0)
(1.90368 0.618661 0)
(1.91312 0.36285 0)
(1.82027 0.137286 0)
(1.61761 -0.0185512 0)
(1.30396 -0.0229209 0)
(0.966468 0.100032 0)
(0.610083 0.177302 0)
(0.246028 0.192285 0)
(0.0358289 0.15959 0)
(-0.167387 0.107938 0)
(-0.364106 0.0671885 0)
(-0.503262 0.0294118 0)
(-0.629515 0.00361893 0)
(-0.730759 -0.0118846 0)
(-0.792166 -0.0120666 0)
(-0.830016 -0.00346393 0)
(-0.863588 0.00487715 0)
(-0.900078 0.0108649 0)
(-0.938824 0.0127436 0)
(-0.97601 0.0110575 0)
(-1.01027 0.00749969 0)
(-1.04357 0.00356474 0)
(-1.07552 0.00152598 0)
(-1.09884 0.00130827 0)
(-1.1109 0.000506648 0)
(-1.11664 -0.00075938 0)
(-1.11094 -0.00212153 0)
(-1.08354 -0.0050375 0)
(-1.0335 -0.00952191 0)
(-0.963612 -0.0142724 0)
(-0.879253 -0.0183038 0)
(-0.785737 -0.0215629 0)
(-0.688785 -0.0238581 0)
(-0.593027 -0.0253695 0)
(-0.500842 -0.0272322 0)
(-0.41394 -0.029412 0)
(-0.327921 -0.0340022 0)
(-0.24778 -0.0348851 0)
(-0.171743 -0.0354044 0)
(-0.0987763 -0.0369859 0)
(-0.0312663 -0.0424449 0)
(0.0469054 -0.0358968 0)
(0.107105 -0.0315603 0)
(0.167679 -0.0298844 0)
(0.223839 -0.0285704 0)
(0.27672 -0.0270256 0)
(0.325452 -0.0254051 0)
(0.371276 -0.0241909 0)
(0.418628 -0.023914 0)
(0.466374 -0.0237191 0)
(0.511625 -0.02273 0)
(0.554489 -0.0214715 0)
(0.595674 -0.0204234 0)
(0.635386 -0.0194599 0)
(0.673855 -0.0186112 0)
(0.711105 -0.0177528 0)
(0.74727 -0.0169674 0)
(0.782357 -0.0161746 0)
(0.816489 -0.0154446 0)
(0.849661 -0.0147179 0)
(0.881966 -0.0140402 0)
(0.913408 -0.013372 0)
(0.944061 -0.0127456 0)
(0.973936 -0.0121323 0)
(1.00309 -0.011554 0)
(1.03155 -0.010988 0)
(1.05936 -0.0104511 0)
(1.08655 -0.00992418 0)
(1.11314 -0.00942166 0)
(1.13916 -0.00892733 0)
(1.16465 -0.00845453 0)
(1.1896 -0.00799081 0)
(1.21405 -0.00754579 0)
(1.23799 -0.00710711 0)
(1.26145 -0.00668549 0)
(1.28443 -0.00627184 0)
(1.30694 -0.0058764 0)
(1.32898 -0.00549233 0)
(1.35055 -0.00512848 0)
(1.37167 -0.00478023 0)
(1.39233 -0.00445464 0)
(1.41253 -0.00414893 0)
(1.43229 -0.00386878 0)
(1.4516 -0.00361236 0)
(1.47046 -0.00338464 0)
(1.48887 -0.00318592 0)
(1.5068 -0.0030216 0)
(1.52425 -0.00289352 0)
(1.54119 -0.00280775 0)
(1.55758 -0.00276714 0)
(1.57336 -0.00277696 0)
(1.58845 -0.00283802 0)
(1.6027 -0.00295243 0)
(1.61591 -0.00311613 0)
(1.62772 -0.00332621 0)
(1.63772 -0.00356752 0)
(1.64448 -0.00383594 0)
(1.65257 -0.00436862 0)
(1.36339 0.997295 0)
(1.68384 0.723435 0)
(1.8611 0.415633 0)
(1.9352 0.159311 0)
(1.95128 -0.0200244 0)