/*--------------------------------*- C++ -*----------------------------------*\
| =========                 |                                                 |
| \\      /  F ield         | OpenFOAM: The Open Source CFD Toolbox           |
|  \\    /   O peration     | Version:  2112                                  |
|   \\  /    A nd           | Website:  www.openfoam.com                      |
|    \\/     M anipulation  |                                                 |
\*---------------------------------------------------------------------------*/
FoamFile
{
    version     2.0;
    format      ascii;
    arch        "LSB;label=32;scalar=64";
    class       volScalarField;
    location    "4";
    object      Ma;
}
// * * * * * * * * * * * * * * * * * * * * * * * * * * * * * * * * * * * * * //

dimensions      [0 0 0 0 0 0 0];

internalField   nonuniform List<scalar> 
5250
(
2.99999
2.99997
2.99988
2.99977
2.99928
2.9986
2.99595
2.99167
2.97731
2.94666
2.86787
2.65275
2.23909
1.31626
0.56953
0.243377
0.315195
0.334831
0.299136
0.242943
0.19254
0.152618
0.113271
0.0700624
0.0370342
2.99999
2.99997
2.99989
2.99977
2.9993
2.99862
2.99601
2.99182
2.97767
2.94773
2.87023
2.65935
2.2521
1.33769
0.58084
0.246155
0.318671
0.339135
0.303694
0.248309
0.198878
0.159998
0.122447
0.0837934
0.0592263
2.99999
2.99997
2.99989
2.99978
2.99932
2.99867
2.99612
2.99211
2.97838
2.94996
2.8751
2.67343
2.28034
1.3863
0.607725
0.256446
0.328993
0.351037
0.316265
0.262683
0.215167
0.178692
0.144935
0.11321
0.0955584
2.99999
2.99997
2.9999
2.99979
2.99935
2.99873
2.99628
2.99253
2.97939
2.95317
2.8821
2.69391
2.32202
1.46127
0.648856
0.276739
0.347512
0.371342
0.337356
0.286047
0.240267
0.206224
0.1764
0.149948
0.135815
2.99999
2.99998
2.9999
2.9998
2.99939
2.99881
2.99648
2.99302
2.98061
2.95701
2.89045
2.71864
2.37317
1.5569
0.703697
0.311567
0.375993
0.39983
0.366762
0.317468
0.273512
0.241259
0.214305
0.191623
0.179437
2.99999
2.99998
2.99991
2.99981
2.99943
2.99889
2.99672
2.99353
2.98186
2.9608
2.89827
2.74324
2.42152
1.6753
0.759443
0.343825
0.404251
0.428821
0.39975
0.354837
0.313395
0.283561
0.259308
0.239546
0.229428
3
2.99998
2.99992
2.99983
2.99947
2.99897
2.99694
2.994
2.98293
2.96399
2.90492
2.76614
2.46172
1.75814
0.827897
0.383838
0.429413
0.450004
0.428948
0.393302
0.357292
0.331216
0.311145
0.295968
0.289812
3
2.99998
2.99992
2.99984
2.99951
2.99904
2.99715
2.99445
2.98395
2.967
2.91114
2.78846
2.49925
1.83543
0.91527
0.439835
0.450649
0.464484
0.457445
0.431248
0.403399
0.383869
0.370686
0.36249
0.366415
3
2.99998
2.99993
2.99986
2.99955
2.99913
2.99741
2.99497
2.98535
2.97017
2.91882
2.80924
2.54316
1.92162
1.01942
0.502709
0.465284
0.481142
0.485455
0.469636
0.450981
0.440369
0.43724
0.443764
0.471935
3
2.99999
2.99994
2.99988
2.99962
2.99924
2.99778
2.99558
2.98752
2.97348
2.92926
2.82661
2.59305
2.00121
1.1244
0.571698
0.479711
0.499788
0.513317
0.507718
0.500717
0.49989
0.512811
0.549948
0.646062
3
2.99999
2.99997
2.99988
2.99975
2.9993
2.9985
2.99604
2.99053
2.97642
2.93969
2.85791
2.61272
2.16208
1.22513
0.654629
0.495026
0.518928
0.541566
0.545625
0.548471
0.561549
0.597265
0.677656
0.852604
3
2.99999
2.99996
2.99991
2.99971
2.99943
2.99833
2.99664
2.99068
2.97973
2.94695
2.86868
2.69156
2.21697
1.43001
0.750271
0.523301
0.546561
0.5719
0.583597
0.595932
0.621907
0.676014
0.778286
0.965336
3
2.99999
2.99996
2.99992
2.99975
2.9995
2.99851
2.9971
2.99148
2.98303
2.95258
2.8957
2.73733
2.36825
1.63682
0.859495
0.571026
0.588477
0.608529
0.623296
0.641688
0.678544
0.741807
0.844335
1.005
3
3
2.99997
2.99993
2.99979
2.99958
2.99875
2.99758
2.99289
2.98593
2.96042
2.91497
2.78142
2.48527
1.83621
0.970521
0.630981
0.632592
0.648361
0.665901
0.686898
0.726356
0.792633
0.88569
1.02033
3
3
2.99998
2.99995
2.99983
2.99967
2.999
2.99807
2.99439
2.98871
2.96916
2.92958
2.82649
2.55652
2.03983
1.10498
0.707793
0.665541
0.68284
0.70321
0.728131
0.767378
0.831193
0.916698
1.02977
3
3
2.99998
2.99996
2.99987
2.99974
2.99921
2.99846
2.99555
2.99097
2.97544
2.94334
2.85953
2.63574
2.20848
1.31114
0.818774
0.696014
0.710441
0.732082
0.763152
0.801759
0.859493
0.938719
1.03799
3.00001
3
2.99999
2.99997
2.99989
2.99979
2.99936
2.99877
2.99638
2.99285
2.98012
2.95646
2.88881
2.71664
2.3706
1.56731
0.961746
0.744819
0.742954
0.761452
0.794474
0.835473
0.886323
0.956034
1.04351
3.00001
3
2.99999
2.99998
2.99992
2.99984
2.99951
2.99905
2.99718
2.99452
2.98433
2.96767
2.91446
2.79524
2.52703
1.91364
1.13595
0.822375
0.791115
0.801027
0.827199
0.86564
0.913646
0.974311
1.05009
3.00001
3
3
2.99999
2.99994
2.99988
2.99964
2.99928
2.99791
2.99588
2.98841
2.97555
2.93543
2.843
2.63528
2.10174
1.31704
0.906457
0.832974
0.841065
0.862012
0.895371
0.939034
0.993483
1.0595
3.00001
3
3
2.99999
2.99997
2.9999
2.99979
2.99938
2.99876
2.99657
2.99262
2.98072
2.95327
2.88694
2.70407
2.34977
1.56054
1.03759
0.877191
0.874686
0.892348
0.923467
0.963445
1.01146
1.06939
3.00001
3.00001
3
2.99999
2.99998
2.99992
2.99984
2.99951
2.99905
2.99721
2.99456
2.98444
2.96805
2.91564
2.80285
2.53225
1.95723
1.22009
0.946661
0.918917
0.92834
0.955379
0.993108
1.03409
1.0825
3.00001
3.00001
3
3
2.99998
2.99996
2.99986
2.99972
2.99918
2.99838
2.99542
2.99054
2.97472
2.94149
2.8573
2.64199
2.197
1.42617
1.03504
0.954937
0.960602
0.982859
1.01795
1.0569
1.10011
3.00001
3.00001
3
3
2.99999
2.99996
2.99992
2.99975
2.9995
2.99855
2.99713
2.99185
2.98332
2.95514
2.89739
2.75057
2.3989
1.71233
1.17737
1.00913
0.997491
1.01081
1.03819
1.07551
1.11649
3.00001
3.00001
3.00001
3
2.99999
2.99998
2.99993
2.99986
2.99958
2.99918
2.99763
2.9953
2.98691
2.9726
2.92825
2.82931
2.60571
2.08148
1.37439
1.08737
1.04024
1.04546
1.06481
1.09517
1.13234
3.00001
3.00001
3.00001
3
3
2.99999
2.99995
2.9999
2.9997
2.99943
2.99831
2.99674
2.99067
2.98122
2.9495
2.88367
2.72493
2.32269
1.64772
1.20207
1.08175
1.07669
1.0895
1.11612
1.15112
3.00001
3.00001
3.00001
3.00001
3
2.99999
2.99997
2.99994
2.9998
2.99961
2.99886
2.99778
2.99365
2.98736
2.96525
2.92599
2.81059
2.57295
2.00334
1.39052
1.14739
1.1103
1.11546
1.13617
1.16641
3.00001
3.00001
3.00001
3.00001
3
3
2.99999
2.99995
2.9999
2.99969
2.99939
2.99827
2.99656
2.99057
2.97998
2.94837
2.87557
2.71361
2.28724
1.62112
1.24521
1.15309
1.14634
1.15693
1.18015
3.00001
3.00001
3.00001
3.00001
3.00001
3
2.99999
2.99997
2.99993
2.99979
2.99959
2.9988
2.99768
2.99333
2.98687
2.96386
2.92333
2.80689
2.55823
2.00068
1.40968
1.2041
1.17798
1.18231
1.20141
3.00001
3.00001
3.00001
3.00001
3.00001
3
3
2.99998
2.99996
2.99987
2.99973
2.99923
2.99849
2.99568
2.99149
2.97646
2.95046
2.87479
2.70469
2.32426
1.65513
1.29961
1.21336
1.20782
1.219
3.00001
3.00001
3.00001
3.00001
3.00001
3.00001
3
2.99999
2.99997
2.99993
2.9998
2.9996
2.99884
2.99772
2.99362
2.98711
2.96553
2.92499
2.81382
2.57417
2.03168
1.47402
1.26808
1.23962
1.24221
3.00001
3.00001
3.00001
3.00001
3.00001
3.00001
3
3
2.99998
2.99996
2.99987
2.99974
2.99925
2.99855
2.99584
2.99189
2.97743
2.95325
2.88126
2.72242
2.36856
1.71287
1.36836
1.27616
1.26729
3.00001
3.00001
3.00001
3.00001
3.00001
3.00001
3
3
2.99999
2.99998
2.99992
2.99984
2.99955
2.99911
2.99748
2.99505
2.98633
2.972
2.92725
2.83855
2.61154
2.15204
1.5589
1.34003
1.30496
3.00001
3.00001
3.00001
3.00001
3.00001
3.00001
3.00001
3
3
2.99999
2.99996
2.99989
2.99977
2.99934
2.9987
2.99635
2.99271
2.98021
2.95806
2.89487
2.75373
2.43049
1.83663
1.4507
1.34159
3.00001
3.00001
3.00001
3.00001
3.00001
3.00001
3.00001
3.00001
3
3
2.99998
2.99995
2.99983
2.99967
2.99906
2.99813
2.99483
2.9895
2.97215
2.94036
2.84887
2.66674
2.19747
1.6573
1.41382
3.00001
3.00001
3.00001
3.00001
3.00001
3.00001
3.00001
3.00001
3
3
2.99999
2.99997
2.9999
2.9998
2.99942
2.99887
2.99679
2.99378
2.98268
2.96489
2.9096
2.79343
2.52921
1.97249
1.56155
3.00001
3.00001
3.00001
3.00001
3.00001
3.00001
3.00001
3.00001
3.00001
3
3
2.99999
2.99994
2.99989
2.99966
2.99934
2.99812
2.99636
2.98979
2.97974
2.94636
2.88063
2.72341
2.34056
1.78143
3.00001
3.00001
3.00001
3.00001
3.00001
3.00001
3.00001
3.00001
3.00001
3
3
2.99999
2.99998
2.99992
2.99984
2.99955
2.99911
2.99753
2.99512
2.98684
2.97257
2.93079
2.8378
2.63978
2.16478
3.00001
3.00001
3.00001
3.00001
3.00001
3.00001
3.00001
3.00001
3.00001
3.00001
3
3
2.99999
2.99996
2.99991
2.99974
2.99948
2.99853
2.99716
2.99212
2.98418
2.95858
2.90597
2.7825
2.46843
3.00001
3.00001
3.00001
3.00001
3.00001
3.00001
3.00001
3.00001
3.00001
3.00001
3.00001
3
3
2.99998
2.99994
2.99988
2.99965
2.99931
2.99807
2.99619
2.98961
2.97874
2.94535
2.87567
2.71371
3.00001
3.00001
3.00001
3.00001
3.00001
3.00001
3.00001
3.00001
3.00001
3.00001
3.00001
3.00001
3
2.99999
2.99997
2.99993
2.9998
2.99961
2.99889
2.99785
2.994
2.98821
2.96852
2.93345
2.83931
3.00001
3.00001
3.00001
3.00001
3.00001
3.00001
3.00001
3.00001
3.00001
3.00001
3.00001
3.00001
3
3
2.99999
2.99997
2.99989
2.99978
2.99938
2.99879
2.99662
2.99337
2.98212
2.96303
2.90698
3.00001
3.00001
3.00001
3.00001
3.00001
3.00001
3.00001
3.00001
3.00001
3.00001
3.00001
3.00001
3.00001
3
3
2.99998
2.99995
2.99986
2.99971
2.9992
2.99842
2.99572
2.99134
2.97732
2.95199
3.00001
3.00001
3.00001
3.00001
3.00001
3.00001
3.00001
3.00001
3.00001
3.00001
3.00001
3.00001
3.00001
3
3
2.99999
2.99998
2.99992
2.99984
2.99955
2.99913
2.99759
2.9953
2.98729
2.97429
3.00001
3.00001
3.00001
3.00001
3.00001
3.00001
3.00001
3.00001
3.00001
3.00001
3.00001
3.00001
3.00001
3.00001
3
3
2.99999
2.99996
2.99991
2.99974
2.9995
2.99859
2.99726
2.99246
2.98509
3.00001
3.00001
3.00001
3.00001
3.00001
3.00001
3.00001
3.00001
3.00001
3.00001
3.00001
3.00001
3.00001
3.00001
3.00001
3
2.99999
2.99998
2.99993
2.99986
2.9996
2.99921
2.99779
2.99565
2.98797
3.00001
3.00001
3.00001
3.00001
3.00001
3.00001
3.00001
3.00001
3.00001
3.00001
3.00001
3.00001
3.00001
3.00001
3.00001
3
3
2.99999
2.99995
2.99989
2.99968
2.99937
2.99815
2.99642
2.98965
3.00001
3.00001
3.00001
3.00001
3.00001
3.00001
3.00001
3.00001
3.00001
3.00001
3.00001
3.00001
3.00001
3.00001
3.00001
3
3
2.99999
2.99996
2.99991
2.99972
2.99944
2.99836
2.99671
2.99082
3.00001
3.00001
3.00001
3.00001
3.00001
3.00001
3.00001
3.00001
3.00001
3.00001
3.00001
3.00001
3.00001
3.00001
3.00001
3
3
2.99999
2.99997
2.9999
2.9998
2.99942
2.99876
2.99672
2.9922
3.00001
3.00001
3.00001
3.00001
3.00001
3.00001
3.00001
3.00001
3.00001
3.00001
3.00001
3.00001
3.00001
3.00001
3.00001
3
3
2.99999
2.99996
2.99991
2.99973
2.99947
2.99843
2.99682
2.9911
3.00001
3.00001
3.00001
3.00001
3.00001
3.00001
3.00001
3.00001
3.00001
3.00001
3.00001
3.00001
3.00001
3.00001
3.00001
3
3
2.99999
2.99996
2.99991
2.99972
2.99945
2.99835
2.99677
2.99065
1.09232
1.28475
1.34222
1.30969
1.23723
1.15541
1.07742
1.03334
1.01972
1.01158
0.989546
0.935409
0.814149
0.571878
0.296516
0.125871
0.0753582
0.136613
0.229479
0.307713
0.37608
0.429699
0.466472
0.4925
0.515996
0.539679
0.563007
0.582325
0.59374
0.599823
0.599418
0.586342
0.556833
0.512077
0.457423
0.398508
0.339388
0.282061
0.226814
0.174447
0.125787
0.0800604
0.0421353
0.0288078
0.0593752
0.0955911
0.130566
0.163603
0.194312
0.222736
0.252242
0.281981
0.310541
0.337397
0.363418
0.388385
0.412897
0.436435
0.459597
0.481818
0.503776
0.524826
0.54569
0.565699
0.585619
0.604701
0.6238
0.642066
0.660425
0.677989
0.695677
0.712597
0.729703
0.746008
0.762612
0.778341
0.794481
0.809687
0.825363
0.840085
0.855301
0.869549
0.884318
0.898107
0.912431
0.925793
0.93969
0.952649
0.966154
0.978724
0.991838
1.004
1.01669
1.02835
1.04046
1.05132
1.06229
1.07125
1.07893
1.08329
1.13602
1.25471
1.32239
1.36419
1.40523
1.43603
1.44551
1.44002
1.42124
1.38579
1.34658
1.29366
1.194
0.994493
0.712076
0.513149
0.408275
0.324707
0.245543
0.174459
0.112022
0.0679347
0.0973751
0.15998
0.224335
0.279435
0.324478
0.354958
0.368942
0.372267
0.367008
0.349471
0.316137
0.269299
0.21548
0.162262
0.113179
0.0763896
0.0626882
0.0816418
0.114685
0.149585
0.184507
0.216197
0.2479
0.278773
0.309315
0.338458
0.366131
0.391663
0.41753
0.443843
0.469701
0.49387
0.51739
0.539956
0.562193
0.583525
0.604611
0.624812
0.64488
0.664079
0.683238
0.701559
0.71991
0.737456
0.755095
0.771955
0.788964
0.805208
0.821664
0.837347
0.853322
0.86849
0.884032
0.89873
0.913859
0.92812
0.942846
0.956675
0.971016
0.984418
0.998372
1.01137
1.02493
1.03757
1.05075
1.06304
1.07585
1.08782
1.10032
1.112
1.12423
1.13555
1.14735
1.15794
1.1687
1.17755
1.18521
1.18964
1.13775
1.24606
1.34286
1.43548
1.51973
1.58537
1.61689
1.61824
1.61148
1.59274
1.56132
1.5092
1.43228
1.27757
1.03841
0.829906
0.715157
0.636042
0.562588
0.494323
0.426332
0.358887
0.292195
0.229088
0.16952
0.115409
0.0686136
0.0502672
0.0764035
0.0993511
0.113517
0.0980941
0.078644
0.0872304
0.114808
0.14777
0.184979
0.221845
0.255646
0.287883
0.31892
0.348943
0.377674
0.404719
0.430951
0.456421
0.48153
0.505733
0.528874
0.550268
0.571413
0.593245
0.615245
0.636019
0.656074
0.675449
0.69452
0.713087
0.731342
0.749117
0.766635
0.783695
0.80056
0.817004
0.833266
0.84917
0.86489
0.880304
0.895548
0.910487
0.925315
0.939801
0.954266
0.968347
0.982481
0.99621
1.01002
1.02342
1.0369
1.04998
1.0631
1.07588
1.08862
1.10111
1.1135
1.12571
1.13784
1.14982
1.1618
1.17352
1.18533
1.19673
1.20827
1.21928
1.2304
1.24077
1.25096
1.25979
1.26715
1.27171
1.14518
1.25407
1.35335
1.44403
1.52491
1.59199
1.64376
1.68008
1.69566
1.69503
1.68726
1.66387
1.61121
1.49176
1.29948
1.06931
0.932358
0.867113
0.808308
0.743776
0.685308
0.629723
0.569743
0.510183
0.453464
0.398016
0.343546
0.292186
0.245793
0.21146
0.19432
0.203223
0.242926
0.290346
0.33536
0.375018
0.410259
0.440248
0.467398
0.491928
0.515214
0.537218
0.558532
0.578833
0.598783
0.618308
0.637727
0.656755
0.675289
0.692509
0.709218
0.72646
0.744617
0.762168
0.779139
0.795451
0.811628
0.827424
0.843147
0.858513
0.873772
0.888665
0.903471
0.917908
0.93233
0.946417
0.960563
0.974368
0.988268
1.00174
1.01537
1.02848
1.04185
1.05465
1.06779
1.08035
1.09327
1.1056
1.11826
1.13036
1.14275
1.15461
1.16674
1.17837
1.19034
1.20179
1.21358
1.22478
1.23633
1.24731
1.25865
1.26941
1.28052
1.29099
1.30176
1.31167
1.32165
1.33019
1.3376
1.34193
1.14578
1.25212
1.34812
1.43537
1.5147
1.58593
1.64756
1.70018
1.73902
1.76047
1.7616
1.75308
1.72645
1.66372
1.51468
1.29648
1.11428
1.02814
0.976486
0.929829
0.884915
0.836788
0.787254
0.740529
0.691132
0.639494
0.588559
0.539059
0.493208
0.456487
0.43503
0.441403
0.472753
0.515191
0.556641
0.593733
0.622136
0.64235
0.658284
0.672319
0.685831
0.69917
0.712717
0.726012
0.739602
0.753007
0.766822
0.780553
0.794509
0.807606
0.820363
0.833404
0.847766
0.862448
0.876738
0.89048
0.904143
0.917598
0.93114
0.944516
0.957899
0.971123
0.984246
0.997202
1.01003
1.02276
1.03551
1.04816
1.06088
1.07341
1.08592
1.09821
1.11044
1.1225
1.13454
1.14647
1.15841
1.17022
1.18203
1.19364
1.20524
1.21666
1.22813
1.23945
1.25077
1.26196
1.27314
1.28416
1.29516
1.3059
1.31666
1.32708
1.33759
1.34769
1.3579
1.36753
1.3771
1.38554
1.39286
1.3972
1.14232
1.242
1.33397
1.41894
1.49656
1.5673
1.63144
1.68652
1.73435
1.77032
1.79422
1.79786
1.78969
1.76153
1.68915
1.52322
1.29378
1.16496
1.10642
1.06096
1.02425
0.991274
0.95516
0.914571
0.872232
0.829341
0.782167
0.735684
0.68891
0.644279
0.617166
0.621268
0.651893
0.694429
0.736687
0.772921
0.799072
0.812587
0.818477
0.822189
0.826328
0.832032
0.838966
0.846676
0.855013
0.863748
0.873085
0.882849
0.893268
0.903467
0.91332
0.923188
0.934335
0.946443
0.958728
0.970531
0.982297
0.993835
1.00557
1.01727
1.02923
1.04113
1.05314
1.065
1.07689
1.08861
1.10034
1.11192
1.1236
1.13514
1.14683
1.15833
1.16998
1.18137
1.19291
1.20413
1.21558
1.22668
1.23809
1.24917
1.26057
1.27156
1.28275
1.29351
1.30449
1.31504
1.32588
1.3363
1.34706
1.35742
1.36803
1.37825
1.38864
1.39857
1.40867
1.41812
1.42766
1.43608
1.44357
1.44805
1.13839
1.23068
1.31847
1.39943
1.4749
1.54462
1.60787
1.66662
1.71725
1.76298
1.79819
1.82266
1.82597
1.81683
1.7846
1.70024
1.51974
1.30838
1.21067
1.16935
1.13321
1.10132
1.07324
1.04614
1.01113
0.971371
0.927953
0.883584
0.829509
0.772115
0.741373
0.746689
0.778156
0.82199
0.867835
0.905579
0.933692
0.94939
0.953282
0.949838
0.945081
0.942879
0.942798
0.945203
0.949115
0.953878
0.95967
0.965927
0.973188
0.980473
0.987877
0.995042
1.00319
1.01243
1.02266
1.03265
1.04266
1.0525
1.06267
1.07292
1.08356
1.09423
1.10514
1.11597
1.12686
1.13761
1.14836
1.15903
1.16978
1.18051
1.19146
1.20233
1.21347
1.22442
1.23558
1.24649
1.2575
1.26839
1.27932
1.29014
1.30096
1.3117
1.32246
1.33307
1.34368
1.35413
1.36452
1.37482
1.38505
1.39522
1.40541
1.41545
1.42561
1.43545
1.44544
1.4549
1.46435
1.47282
1.48035
1.4849
1.13425
1.21977
1.30148
1.37945
1.45209
1.5198
1.58311
1.64048
1.69439
1.74101
1.7835
1.81654
1.83878
1.84065
1.82959
1.79351
1.69807
1.51942
1.3341
1.25203
1.22102
1.19398
1.16439
1.13976
1.11201
1.0791
1.03765
0.985473
0.916839
0.848037
0.821053
0.831159
0.862951
0.909761
0.96079
1.00306
1.03055
1.04927
1.05833
1.05688
1.0477
1.03722
1.02993
1.02616
1.02488
1.02606
1.02841
1.03171
1.03602
1.04086
1.04626
1.05145
1.05753
1.06454
1.07316
1.08201
1.09115
1.10009
1.10938
1.11873
1.12858
1.13852
1.14885
1.15907
1.16952
1.17966
1.19006
1.20013
1.21062
1.22092
1.2317
1.24236
1.25336
1.2642
1.27519
1.28596
1.29688
1.30746
1.31819
1.32865
1.3393
1.34979
1.36044
1.37095
1.38161
1.392
1.40261
1.41276
1.42324
1.43316
1.44348
1.45325
1.46336
1.47301
1.48287
1.49226
1.50165
1.5102
1.51786
1.52256
1.1336
1.21073
1.28723
1.36011
1.42973
1.4954
1.55626
1.61434
1.66641
1.71633
1.75936
1.79918
1.8303
1.84968
1.85021
1.83732
1.79814
1.69225
1.52335
1.36174
1.29129
1.26414
1.24109
1.21532
1.18622
1.15507
1.11322
1.0478
0.957047
0.884452
0.867465
0.883491
0.918017
0.96883
1.02561
1.07097
1.10189
1.11978
1.13153
1.13614
1.13214
1.12081
1.10804
1.09788
1.09107
1.08774
1.08654
1.0875
1.08979
1.09306
1.09729
1.10154
1.10641
1.11194
1.11895
1.12683
1.13514
1.14338
1.15192
1.16051
1.16966
1.1789
1.18873
1.19842
1.20853
1.21832
1.22842
1.23821
1.24833
1.25823
1.26853
1.27868
1.28922
1.29959
1.3103
1.32075
1.33139
1.34174
1.35228
1.36255
1.37303
1.38324
1.39373
1.40391
1.41439
1.42455
1.43494
1.44503
1.45524
1.46524
1.47528
1.48516
1.49511
1.50482
1.51471
1.52412
1.5337
1.54231
1.55022
1.5551
1.13529
1.205
1.27535
1.34419
1.41
1.47261
1.53237
1.58725
1.64071
1.68811
1.7344
1.77419
1.81126
1.84032
1.85628
1.85537
1.84075
1.79925
1.6875
1.52939
1.38657
1.32585
1.29904
1.27662
1.24774
1.20828
1.15481
1.06644
0.961018
0.900843
0.894941
0.914456
0.955105
1.01027
1.06773
1.11413
1.14798
1.17002
1.18302
1.19052
1.19333
1.18893
1.17788
1.16457
1.15285
1.1443
1.13929
1.13712
1.13704
1.13885
1.14199
1.14567
1.14982
1.15426
1.16003
1.16676
1.17449
1.18221
1.19044
1.1987
1.20752
1.21643
1.22585
1.23524
1.24499
1.25452
1.26435
1.27392
1.28382
1.29351
1.30361
1.31355
1.32393
1.33417
1.34471
1.35501
1.36555
1.37583
1.38632
1.39652
1.4069
1.41699
1.42724
1.43727
1.44744
1.45745
1.46758
1.47755
1.48764
1.49748
1.50749
1.51713
1.527
1.53643
1.5461
1.55533
1.5646
1.57325
1.58095
1.58613
1.13989
1.20213
1.26594
1.33014
1.39236
1.45244
1.50938
1.56409
1.61443
1.66364
1.70741
1.75037
1.7875
1.82182
1.84908
1.86162
1.85909
1.84321
1.79983
1.68666
1.53533
1.40925
1.35422
1.32261
1.29189
1.24541
1.16644
1.04763
0.940699
0.90423
0.909879
0.934756
0.980742
1.03983
1.0942
1.13892
1.17408
1.20084
1.21836
1.22934
1.23455
1.23757
1.23455
1.22544
1.21322
1.20114
1.1918
1.18574
1.18296
1.1828
1.18496
1.18831
1.1924
1.19649
1.20146
1.20737
1.21463
1.22221
1.23031
1.23848
1.24714
1.25582
1.26497
1.27405
1.28351
1.2928
1.30244
1.31189
1.32169
1.33129
1.34124
1.35098
1.36112
1.37093
1.38112
1.39102
1.40127
1.41125
1.42151
1.43152
1.4417
1.45165
1.46169
1.47153
1.48146
1.49119
1.50106
1.5107
1.52056
1.53012
1.53989
1.54935
1.55895
1.56825
1.57757
1.58658
1.59547
1.60375
1.61116
1.61596
1.14883
1.20344
1.26116
1.31904
1.37729
1.43346
1.48837
1.54034
1.59068
1.6374
1.68282
1.72404
1.76389
1.79925
1.831
1.85643
1.86567
1.86197
1.84496
1.79918
1.68621
1.53811
1.4272
1.3699
1.32293
1.25929
1.14466
1.00125
0.916682
0.902011
0.914883
0.949963
1.00253
1.05944
1.10948
1.15188
1.18695
1.21577
1.23776
1.25409
1.26399
1.27009
1.27389
1.27472
1.26867
1.25857
1.2477
1.23873
1.23271
1.23049
1.23099
1.23374
1.23777
1.24192
1.24645
1.25157
1.25815
1.26558
1.27371
1.28186
1.29042
1.2989
1.30774
1.31647
1.3255
1.33439
1.34359
1.35268
1.36218
1.37152
1.38131
1.39083
1.40061
1.41007
1.41981
1.42929
1.43903
1.44856
1.45829
1.46785
1.47757
1.4871
1.49675
1.5062
1.51576
1.52508
1.53456
1.54378
1.55321
1.56234
1.57173
1.58075
1.59005
1.59887
1.60799
1.61643
1.62514
1.63278
1.63996
1.64426
1.1613
1.20953
1.26051
1.3134
1.36639
1.41895
1.47006
1.51978
1.56749
1.61341
1.65702
1.69866
1.73778
1.77434
1.80844
1.83732
1.86104
1.86729
1.86224
1.84285
1.79343
1.68051
1.53233
1.42564
1.34744
1.24753
1.08683
0.946418
0.898764
0.90022
0.918994
0.961617
1.01769
1.06956
1.11453
1.15397
1.18838
1.21865
1.24436
1.26629
1.28334
1.29654
1.3054
1.31265
1.31683
1.31583
1.30961
1.3005
1.29263
1.28722
1.28525
1.28554
1.28821
1.29175
1.29584
1.29999
1.3053
1.31165
1.31915
1.32675
1.33472
1.34252
1.35069
1.35877
1.36726
1.37567
1.38445
1.3931
1.40216
1.41112
1.42047
1.42953
1.43889
1.44793
1.45726
1.4663
1.4756
1.48466
1.49392
1.50297
1.51218
1.52117
1.53034
1.53927
1.54841
1.55723
1.56632
1.57503
1.58406
1.59267
1.60163
1.61013
1.61898
1.62729
1.63591
1.64385
1.65198
1.65909
1.66568
1.6698
1.17244
1.21606
1.26221
1.31043
1.35922
1.40845
1.45632
1.5038
1.54896
1.59348
1.63533
1.67645
1.71445
1.75189
1.78523
1.81778
1.84442
1.86417
1.8674
1.86016
1.83685
1.78037
1.66195
1.50189
1.36724
1.2037
1.0042
0.896528
0.880281
0.89079
0.922934
0.971437
1.02217
1.06816
1.10974
1.14795
1.18337
1.21594
1.24638
1.27378
1.29892
1.31974
1.33732
1.34976
1.36044
1.36649
1.36977
1.36687
1.35975
1.35244
1.34606
1.34265
1.34146
1.34275
1.34561
1.3489
1.35272
1.35715
1.3631
1.36967
1.37691
1.38403
1.39152
1.39884
1.40666
1.41442
1.42273
1.43085
1.43948
1.4478
1.45648
1.46487
1.47367
1.48219
1.49107
1.49965
1.50854
1.51716
1.52606
1.53473
1.54363
1.55232
1.56123
1.56989
1.57879
1.58738
1.59622
1.60466
1.61336
1.6216
1.63011
1.6381
1.6464
1.65407
1.66205
1.66926
1.67666
1.68315
1.68914
1.69291
1.18573
1.2238
1.26558
1.30894
1.35397
1.39949
1.44499
1.4896
1.53346
1.57567
1.61693
1.65613
1.69437
1.73035
1.76481
1.79713
1.82605
1.85151
1.86407
1.86288
1.85094
1.81793
1.74243
1.59929
1.39724
1.13942
0.919531
0.8579
0.860801
0.879263
0.918734
0.968617
1.01649
1.06066
1.10315
1.14316
1.18208
1.21919
1.25487
1.28828
1.31898
1.34642
1.36963
1.3883
1.40266
1.41346
1.42132
1.42492
1.42418
1.4185
1.40982
1.40237
1.39622
1.39344
1.39287
1.39454
1.39735
1.40002
1.40373
1.40842
1.4146
1.42101
1.42799
1.43479
1.44207
1.44915
1.45683
1.46438
1.4725
1.48031
1.48856
1.49652
1.5049
1.51304
1.52153
1.52982
1.53835
1.54668
1.5552
1.56354
1.57205
1.58036
1.58889
1.59716
1.60572
1.61392
1.62245
1.63052
1.63896
1.64682
1.65507
1.66264
1.67056
1.6777
1.68511
1.69165
1.69853
1.70432
1.70941
1.7127
1.19974
1.23417
1.27145
1.31117
1.35217
1.39395
1.43681
1.47848
1.52072
1.56074
1.60109
1.63858
1.67652
1.71099
1.74612
1.77711
1.80814
1.83335
1.85235
1.8541
1.84553
1.82144
1.76291
1.64288
1.41377
1.09184
0.864487
0.824524
0.837682
0.87076
0.921015
0.974512
1.02529
1.07327
1.11775
1.1606
1.20141
1.24124
1.27864
1.31371
1.34538
1.37431
1.3994
1.42143
1.43848
1.45259
1.46235
1.4698
1.47291
1.47352
1.46932
1.46144
1.45273
1.44556
1.4403
1.43816
1.43813
1.43972
1.44192
1.44464
1.44903
1.4545
1.46086
1.46717
1.47405
1.48077
1.48807
1.49523
1.50286
1.51028
1.51816
1.52585
1.53391
1.54181
1.54998
1.55799
1.56619
1.57426
1.58247
1.59054
1.59875
1.60675
1.61498
1.62289
1.63116
1.63898
1.64725
1.65495
1.66307
1.67053
1.67831
1.68531
1.69255
1.69889
1.70558
1.71135
1.71723
1.72182
1.72535
1.72786
1.2132
1.2455
1.27916
1.31517
1.35325
1.39149
1.43129
1.4706
1.5102
1.54878
1.58717
1.6236
1.66046
1.694
1.72855
1.75898
1.7895
1.81456
1.8324
1.83317
1.82393
1.80041
1.74457
1.63546
1.43023
1.15541
0.941734
0.896136
0.911069
0.938362
0.982549
1.03263
1.07923
1.12201
1.16191
1.19961
1.23591
1.27068
1.30411
1.33576
1.36597
1.39374
1.41946
1.44214
1.46255
1.4792
1.49263
1.50262
1.51045
1.51444
1.51607
1.51402
1.50806
1.49905
1.49112
1.48433
1.48048
1.47895
1.47975
1.48149
1.48406
1.48754
1.49279
1.49858
1.50503
1.51138
1.5182
1.5249
1.532
1.53901
1.54636
1.5536
1.56111
1.56853
1.57619
1.58377
1.59156
1.59924
1.60712
1.61482
1.62277
1.63047
1.63847
1.6461
1.65408
1.6616
1.66946
1.67675
1.68434
1.69121
1.6983
1.70447
1.71093
1.71652
1.72238
1.727
1.73138
1.73431
1.73567
1.73827
1.22914
1.25935
1.28999
1.32188
1.35652
1.39253
1.42841
1.46588
1.50255
1.53933
1.57598
1.61086
1.64633
1.67919
1.71215
1.74225
1.77048
1.79385
1.80403
1.79906
1.78547
1.75232
1.68321
1.54713
1.39589
1.24835
1.08944
0.998942
0.985498
0.998794
1.02198
1.05895
1.10226
1.14347
1.18136
1.21658
1.25051
1.28303
1.31495
1.34572
1.37564
1.40363
1.43011
1.45443
1.47719
1.49712
1.51447
1.528
1.53892
1.54748
1.55289
1.55449
1.55441
1.55023
1.54305
1.53418
1.5268
1.52115
1.51861
1.51797
1.5194
1.52106
1.52388
1.52821
1.53417
1.54039
1.54688
1.55324
1.55988
1.56646
1.57338
1.58026
1.58746
1.59461
1.60203
1.60936
1.61693
1.62433
1.63198
1.63937
1.64705
1.65441
1.66205
1.66933
1.67685
1.68392
1.69119
1.69786
1.7047
1.71067
1.71685
1.72218
1.72772
1.73228
1.73644
1.73946
1.74128
1.7419
1.74128
1.7444
1.24181
1.27222
1.30208
1.33152
1.36216
1.39548
1.42907
1.46314
1.4983
1.53222
1.56744
1.6008
1.63447
1.66663
1.69755
1.72647
1.7512
1.76683
1.76707
1.75612
1.73039
1.67669
1.56477
1.4473
1.36703
1.30688
1.22394
1.12559
1.06635
1.05337
1.06326
1.08087
1.11222
1.15163
1.19029
1.22607
1.25966
1.29165
1.32273
1.353
1.38229
1.4102
1.43675
1.46223
1.48617
1.50868
1.52857
1.54612
1.56035
1.57252
1.58216
1.58919
1.59233
1.59319
1.59131
1.58558
1.5773
1.56953
1.56288
1.55896
1.55731
1.55785
1.55929
1.56137
1.56516
1.5705
1.57666
1.58283
1.58925
1.59555
1.60212
1.60855
1.61535
1.62199
1.62903
1.63586
1.64305
1.64998
1.65722
1.66413
1.67136
1.67818
1.68538
1.692
1.69911
1.70535
1.71209
1.71774
1.72365
1.72869
1.73387
1.73829
1.74217
1.74511
1.74682
1.74748
1.74712
1.7465
1.74237
1.74487
1.26008
1.28646
1.31493
1.34398
1.37131
1.4008
1.43169
1.46346
1.49561
1.52825
1.56036
1.59293
1.62422
1.65521
1.68367
1.70963
1.72718
1.7304
1.72077
1.69854
1.6509
1.55508
1.44498
1.37958
1.35501
1.33719
1.30752
1.25406
1.18368
1.12973
1.11176
1.11702
1.12955
1.15495
1.19101
1.22797
1.26297
1.29606
1.32746
1.35811
1.3872
1.41542
1.44206
1.46844
1.49338
1.51747
1.53913
1.55962
1.57731
1.59323
1.60596
1.61716
1.62526
1.63024
1.6315
1.63139
1.62781
1.62131
1.61291
1.60559
1.6
1.59718
1.59637
1.59739
1.59896
1.60169
1.60639
1.61209
1.61841
1.62448
1.63086
1.63695
1.64344
1.64969
1.65634
1.66278
1.66959
1.67611
1.68303
1.68942
1.69635
1.70243
1.70921
1.71496
1.72128
1.72661
1.73204
1.73674
1.74147
1.74562
1.74923
1.75196
1.75348
1.754
1.75363
1.75285
1.74969
1.74642
1.73929
1.73989
1.27561
1.29719
1.32591
1.3547
1.38215
1.40979
1.43764
1.46655
1.49635
1.52641
1.55704
1.58652
1.61645
1.64411
1.66957
1.68777
1.69251
1.6833
1.66288
1.6175
1.53327
1.4237
1.36203
1.34542
1.34825
1.35333
1.35152
1.33602
1.29718
1.23923
1.186
1.16225
1.16266
1.17367
1.19457
1.2272
1.26311
1.29831
1.33145
1.36309
1.39284
1.42098
1.44823
1.47487
1.50082
1.52534
1.5488
1.57055
1.59129
1.60967
1.62626
1.6398
1.65182
1.66135
1.66767
1.67033
1.67096
1.6693
1.66397
1.65621
1.64832
1.64176
1.63729
1.63527
1.63546
1.63635
1.63835
1.64199
1.64756
1.65326
1.65936
1.66526
1.67137
1.67724
1.68343
1.68928
1.69568
1.7015
1.70802
1.71375
1.72012
1.72566
1.73154
1.73664
1.74166
1.74596
1.7501
1.75386
1.7571
1.75952
1.76075
1.76105
1.7604
1.75934
1.756
1.75209
1.74644
1.74191
1.7348
1.73492
1.30138
1.31421
1.3364
1.36478
1.39141
1.41795
1.44487
1.47212
1.50005
1.52775
1.55589
1.58388
1.61009
1.63467
1.65251
1.6573
1.64779
1.62799
1.58457
1.50418
1.39587
1.33309
1.3217
1.33211
1.34779
1.36626
1.37738
1.3778
1.36804
1.33866
1.29124
1.23971
1.21335
1.21072
1.2204
1.23759
1.26586
1.29953
1.33456
1.36745
1.39851
1.42722
1.45535
1.48241
1.50894
1.53379
1.55803
1.58082
1.60301
1.6233
1.64228
1.65874
1.67341
1.68564
1.69643
1.70375
1.70775
1.70849
1.70806
1.70464
1.69843
1.69016
1.68274
1.67686
1.67358
1.67234
1.67286
1.67408
1.67689
1.68113
1.68686
1.69241
1.69846
1.70386
1.70981
1.71511
1.721
1.72629
1.73205
1.73725
1.74267
1.74751
1.75214
1.75609
1.75964
1.76293
1.76567
1.76765
1.76849
1.76851
1.7676
1.76585
1.76213
1.75762
1.75208
1.74724
1.7413
1.73842
1.73354
1.73498
1.32892
1.33448
1.35176
1.37676
1.40226
1.42705
1.45223
1.47775
1.50378
1.53013
1.55611
1.58097
1.60411
1.62092
1.62525
1.61495
1.5949
1.5518
1.47151
1.36818
1.30548
1.29479
1.3061
1.32582
1.35143
1.37892
1.39775
1.40453
1.40554
1.3991
1.37772
1.33978
1.29413
1.26793
1.26182
1.26928
1.28248
1.30506
1.33702
1.37028
1.40241
1.43282
1.46202
1.49013
1.51669
1.54212
1.56648
1.59028
1.61294
1.63469
1.65477
1.67373
1.69048
1.70565
1.71839
1.72999
1.73855
1.74393
1.7457
1.74588
1.74416
1.73893
1.73138
1.72333
1.71651
1.71136
1.70911
1.70873
1.70937
1.71107
1.71477
1.7194
1.72496
1.73002
1.73549
1.74039
1.74551
1.75022
1.75498
1.75937
1.76352
1.76709
1.7701
1.77277
1.77501
1.77646
1.77691
1.77646
1.77535
1.77255
1.76827
1.76346
1.75735
1.75244
1.74664
1.7437
1.74067
1.7406
1.74022
1.74256
1.36389
1.35933
1.36809
1.38726
1.41349
1.43807
1.46178
1.48574
1.50961
1.53358
1.55707
1.57802
1.59365
1.59708
1.58567
1.56464
1.52029
1.43831
1.33775
1.2751
1.26516
1.27709
1.29822
1.3277
1.35969
1.38706
1.40968
1.42384
1.43151
1.43382
1.43118
1.41762
1.38818
1.35188
1.32434
1.31366
1.31836
1.32777
1.34545
1.37344
1.40447
1.43617
1.46663
1.49592
1.52306
1.5493
1.57419
1.59875
1.62195
1.6444
1.66553
1.68576
1.70446
1.72186
1.73709
1.75087
1.76278
1.7726
1.77914
1.7822
1.78262
1.78186
1.7785
1.77205
1.76388
1.75593
1.7496
1.74574
1.74427
1.7443
1.74509
1.74721
1.75104
1.75552
1.76034
1.76484
1.76915
1.77307
1.77666
1.77968
1.78203
1.78381
1.7854
1.78621
1.78609
1.78527
1.78353
1.77988
1.77469
1.76962
1.76277
1.75758
1.75178
1.74869
1.74642
1.74668
1.74815
1.75035
1.75368
1.75712
1.41282
1.38792
1.38804
1.40075
1.42184
1.44691