/*--------------------------------*- C++ -*----------------------------------*\
| =========                 |                                                 |
| \\      /  F ield         | OpenFOAM: The Open Source CFD Toolbox           |
|  \\    /   O peration     | Version:  2112                                  |
|   \\  /    A nd           | Website:  www.openfoam.com                      |
|    \\/     M anipulation  |                                                 |
\*---------------------------------------------------------------------------*/
FoamFile
{
    version     2.0;
    format      ascii;
    arch        "LSB;label=32;scalar=64";
    class       volScalarField;
    location    "4";
    object      p;
}
// * * * * * * * * * * * * * * * * * * * * * * * * * * * * * * * * * * * * * //

dimensions      [1 -1 -2 0 0 0 0];

internalField   nonuniform List<scalar> 
5250
(
1
1.00003
1.00008
1.00023
1.00049
1.00138
1.00274
1.00832
1.01494
1.05334
1.08812
1.34332
1.7052
3.32718
7.313
11.8658
11.3412
11.0514
11.1402
11.3772
11.5993
11.7306
11.8311
11.908
11.9661
1
1.00003
1.00008
1.00023
1.00048
1.00136
1.0027
1.00817
1.01474
1.05227
1.08657
1.33636
1.69005
3.27676
7.18212
11.887
11.3469
11.044
11.1329
11.37
11.5924
11.7244
11.8262
11.9044
11.964
1
1.00003
1.00008
1.00022
1.00046
1.00132
1.00262
1.00787
1.01435
1.05004
1.0835
1.32178
1.65806
3.16861
6.88872
11.9266
11.3544
11.0181
11.104
11.3375
11.5592
11.6902
11.7917
11.8696
11.9303
1
1.00003
1.00007
1.00021
1.00044
1.00126
1.00251
1.00743
1.0138
1.04683
1.07912
1.30083
1.61196
3.01267
6.45266
11.972
11.3673
10.9762
11.0538
11.2773
11.499
11.6277
11.7269
11.8037
11.8668
1
1.00003
1.00007
1.0002
1.00042
1.00118
1.00238
1.0069
1.01315
1.043
1.07394
1.27591
1.55734
2.82777
5.91512
11.9532
11.3639
10.9199
10.9859
11.1923
11.4127
11.5377
11.633
11.7073
11.7738
1
1.00003
1.00006
1.00019
1.00039
1.0011
1.00222
1.00638
1.01236
1.03931
1.06848
1.25274
1.49942
2.66049
5.45503
11.7821
11.3006
10.8389
10.8934
11.0769
11.2914
11.4104
11.4989
11.5686
11.6389
1
1.00002
1.00006
1.00018
1.00036
1.00102
1.00208
1.00593
1.01162
1.03603
1.06439
1.2311
1.45032
2.54036
5.03039
11.3547
11.1322
10.7516
10.7852
10.926
11.1266
11.2369
11.3112
11.3668
11.4353
1
1.00002
1.00006
1.00016
1.00034
1.00095
1.00193
1.00548
1.01089
1.03287
1.06061
1.21006
1.4049
2.42965
4.59456
10.7394
10.8875
10.6987
10.6677
10.746
10.9131
11.0055
11.0535
11.0777
11.1247
1
1.00002
1.00005
1.00015
1.0003
1.00086
1.00175
1.00497
1.00991
1.02966
1.05533
1.18946
1.36056
2.29415
4.18124
9.96502
10.7487
10.6103
10.5054
10.5482
10.6565
10.7116
10.7066
10.6606
10.6123
1
1.00002
1.00004
1.00013
1.00026
1.00075
1.00151
1.00434
1.00853
1.02642
1.04727
1.17158
1.31001
2.16646
3.79721
9.0636
10.6336
10.5076
10.316
10.3241
10.3615
10.3507
10.2702
10.0592
9.70545
1
1.00001
1.00004
1.00009
1.00025
1.00049
1.0015
1.00263
1.00942
1.01522
1.05907
1.09661
1.38475
1.79384
3.62811
7.96738
10.5298
10.3989
10.1242
10.0677
10.0422
9.95183
9.70047
9.10056
7.56212
1
1.00001
1.00003
1.0001
1.0002
1.00057
1.00115
1.0033
1.00641
1.02015
1.03544
1.12948
1.22689
1.86161
2.98558
6.84147
10.4483
10.2876
9.93973
9.8074
9.72325
9.53651
9.13065
8.3061
6.69815
1
1.00001
1.00003
1.00008
1.00018
1.0005
1.00101
1.00286
1.00577
1.0167
1.03282
1.10254
1.19747
1.67182
2.57247
5.59582
10.2734
10.1359
9.78456
9.56025
9.41225
9.14662
8.64058
7.78465
6.47426
1
1.00001
1.00002
1.00007
1.00015
1.00042
1.00085
1.00239
1.00483
1.01385
1.02742
1.08338
1.16369
1.53437
2.2443
4.64867
9.76822
9.85012
9.64414
9.33224
9.1138
8.8016
8.27941
7.48656
6.42675
1
1.00001
1.00002
1.00006
1.00012
1.00033
1.00068
1.00191
1.00383
1.01122
1.02092
1.07018
1.12176
1.44936
1.96918
4.02903
8.67847
9.55904
9.42791
9.13229
8.85192
8.51135
8.01462
7.30721
6.41653
1
1.00001
1.00002
1.00005
1.0001
1.00027
1.00054
1.00153
1.00304
1.00902
1.01646
1.05688
1.09505
1.36423
1.74124
3.42317
7.22385
9.3076
9.22799
8.98382
8.64198
8.27668
7.80605
7.17643
6.40991
1
1.00001
1.00001
1.00004
1.00008
1.00021
1.00044
1.00122
1.00246
1.00707
1.01361
1.04365
1.07566
1.27913
1.55976
2.82049
5.68023
9.09238
9.07594
8.88416
8.48898
8.09488
7.64353
7.07463
6.39996
1
1
1.00001
1.00003
1.00006
1.00017
1.00034
1.00095
1.00192
1.00541
1.01072
1.03223
1.05912
1.20114
1.39717
2.27889
4.18645
8.60051
8.94309
8.77412
8.38596
7.95155
7.50816
6.9892
6.38842
1
1
1.00001
1.00002
1.00004
1.00012
1.00025
1.00071
1.00144
1.00407
1.00798
1.02439
1.04366
1.15545
1.27783
2.02179
3.3515
7.40437
8.68131
8.57963
8.28948
7.836
7.39498
6.91521
6.37682
1
1
1.00001
1.00001
1.00004
1.00008
1.00022
1.00044
1.00123
1.00239
1.00738
1.01283
1.04645
1.07606
1.2904
1.58132
2.86351
5.72016
8.40972
8.38905
8.19619
7.77457
7.3083
6.84953
6.3608
1
1
1
1.00001
1.00003
1.00006
1.00017
1.00034
1.00094
1.00191
1.00537
1.01072
1.03153
1.05975
1.19333
1.39117
2.22689
3.94293
7.88831
8.26524
8.11484
7.74727
7.25245
6.80298
6.34789
1
1
1
1.00001
1.00002
1.00005
1.0001
1.00028
1.00057
1.0016
1.00318
1.00935
1.01736
1.05755
1.1017
1.35479
1.77065
3.25637
6.59536
8.00748
7.94179
7.69844
7.22081
6.77023
6.34164
1
1
1
1.00001
1.00002
1.00003
1.00009
1.00018
1.0005
1.00101
1.00282
1.00566
1.01639
1.0313
1.1005
1.18726
1.63523
2.44159
4.96099
7.63372
7.73203
7.59281
7.23174
6.77062
6.34313
1
1
1
1
1.00001
1.00003
1.00005
1.00014
1.00029
1.00082
1.00165
1.00462
1.00914
1.02721
1.04983
1.16797
1.31592
2.04085
3.40254
6.84613
7.57626
7.4859
7.22399
6.78448
6.35185
1
1
1
1
1.00001
1.00002
1.00004
1.0001
1.00021
1.00057
1.00116
1.00323
1.00644
1.01872
1.03484
1.11562
1.20666
1.72528
2.60096
5.27411
7.29326
7.30608
7.18083
6.84418
6.37985
1
1
1
1
1
1.00001
1.00003
1.00007
1.00014
1.00039
1.00079
1.00219
1.00442
1.0124
1.02469
1.07202
1.14592
1.43631
1.98479
3.58963
6.686
7.19671
7.11319
6.87168
6.43768
1
1
1
1
1
1.00001
1.00002
1.00004
1.00011
1.00022
1.0006
1.00122
1.00339
1.00663
1.01996
1.03555
1.12314
1.21542
1.77123
2.67481
5.41257
6.97002
6.96735
6.85368
6.55635
1
1
1
1
1
1
1.00001
1.00003
1.00007
1.00015
1.00041
1.00084
1.00229
1.00463
1.01293
1.02565
1.07485
1.14955
1.44931
2.00911
3.59232
6.44884
6.86967
6.80195
6.59965
1
1
1
1
1
1
1.00001
1.00002
1.00005
1.0001
1.00027
1.00054
1.00149
1.00301
1.00837
1.01662
1.04857
1.0931
1.29095
1.63012
2.76764
5.23971
6.64117
6.68071
6.58141
1
1
1
1
1
1
1
1.00001
1.00003
1.00007
1.00015
1.0004
1.00082
1.00224
1.00451
1.0126
1.02491
1.07277
1.14487
1.4318
1.96756
3.45701
6.11655
6.57013
6.52286
1
1
1
1
1
1
1
1.00001
1.00002
1.00005
1.0001
1.00026
1.00053
1.00144
1.00291
1.008
1.01593
1.04603
1.08784
1.27453
1.57552
2.63975
4.88972
6.30776
6.40258
1
1
1
1
1
1
1
1.00001
1.00001
1.00003
1.00006
1.00016
1.00032
1.00088
1.00178
1.00487
1.00975
1.02729
1.05462
1.15699
1.33162
1.92775
3.11108
5.7358
6.28536
1
1
1
1
1
1
1
1
1.00001
1.00002
1.00004
1.00009
1.00023
1.00047
1.00128
1.00259
1.00714
1.01418
1.04098
1.07841
1.2412
1.5109
2.42137
4.36236
5.96207
1
1
1
1
1
1
1
1
1
1.00001
1.00002
1.00006
1.00012
1.00033
1.00068
1.00184
1.0037
1.01021
1.02054
1.0574
1.11948
1.3332
1.74882
2.89298
5.20582
1
1
1
1
1
1
1
1
1
1.00001
1.00001
1.00004
1.00008
1.0002
1.00041
1.00112
1.00226
1.00614
1.01227
1.03472
1.0661
1.20367
1.40487
2.1737
3.6841
1
1
1
1
1
1
1
1
1
1
1.00001
1.00002
1.00004
1.00012
1.00024
1.00066
1.00133
1.00359
1.00723
1.02005
1.03866
1.11762
1.21921
1.68659
2.47229
1
1
1
1
1
1
1
1
1
1
1.00001
1.00001
1.00003
1.00006
1.00016
1.00033
1.00088
1.00177
1.00481
1.00949
1.02721
1.05008
1.15849
1.29965
1.87306
1
1
1
1
1
1
1
1
1
1
1
1.00001
1.00002
1.00004
1.00009
1.00019
1.00052
1.00104
1.00281
1.0056
1.01581
1.02932
1.09357
1.16474
1.5434
1
1
1
1
1
1
1
1
1
1
1
1
1.00001
1.00002
1.00005
1.00013
1.00026
1.00069
1.00139
1.00375
1.00748
1.02095
1.03979
1.1214
1.23053
1
1
1
1
1
1
1
1
1
1
1
1
1.00001
1.00001
1.00003
1.00007
1.00015
1.00039
1.0008
1.00213
1.0043
1.01162
1.02302
1.06493
1.12748
1
1
1
1
1
1
1
1
1
1
1
1
1
1.00001
1.00002
1.00004
1.00008
1.00022
1.00045
1.0012
1.00242
1.00652
1.01302
1.03594
1.07221
1
1
1
1
1
1
1
1
1
1
1
1
1
1
1.00001
1.00002
1.00005
1.00011
1.00029
1.00058
1.00155
1.00312
1.00843
1.01697
1.04623
1
1
1
1
1
1
1
1
1
1
1
1
1
1
1.00001
1.00001
1.00003
1.00006
1.00016
1.00033
1.00086
1.00174
1.00464
1.00929
1.02517
1
1
1
1
1
1
1
1
1
1
1
1
1
1
1
1.00001
1.00002
1.00004
1.00009
1.00019
1.0005
1.00102
1.00271
1.00546
1.01472
1
1
1
1
1
1
1
1
1
1
1
1
1
1
1
1
1.00001
1.00003
1.00005
1.00014
1.00029
1.00078
1.00159
1.0043
1.00865
1
1
1
1
1
1
1
1
1
1
1
1
1
1
1
1
1.00001
1.00002
1.00004
1.00011
1.00023
1.00063
1.00129
1.00357
1.00718
1
1
1
1
1
1
1
1
1
1
1
1
1
1
1
1
1.00001
1.00002
1.00004
1.0001
1.0002
1.00056
1.00114
1.00326
1.00635
1
1
1
1
1
1
1
1
1
1
1
1
1
1
1
1
1.00001
1.00001
1.00004
1.00007
1.00021
1.00041
1.00124
1.00221
1.00785
1
1
1
1
1
1
1
1
1
1
1
1
1
1
1
1
1.00001
1.00002
1.00003
1.00009
1.00019
1.00054
1.00108
1.00316
1.00612
1
1
1
1
1
1
1
1
1
1
1
1
1
1
1
1
1.00001
1.00002
1.00003
1.0001
1.00019
1.00055
1.00112
1.00322
1.00633
3.12388
1.59515
1.07825
0.969403
0.994787
1.07284
1.2375
1.37542
1.42865
1.44098
1.46907
1.53787
1.69894
2.05936
2.78182
3.24013
3.31722
3.35351
3.34046
3.29715
3.23856
3.19247
3.15803
3.12481
3.09088
3.05258
3.01249
2.98941
2.97999
2.97804
2.99582
3.05058
3.14903
3.28523
3.44254
3.60373
3.75707
3.89735
4.023
4.1326
4.22505
4.30251
4.36348
4.41865
4.46113
4.48978
4.50677
4.51517
4.515
4.51124
4.50024
4.48028
4.45578
4.42862
4.39816
4.36505
4.32908
4.29103
4.2507
4.20874
4.16498
4.12004
4.07379
4.02678
3.97891
3.93065
3.88188
3.83297
3.78381
3.73466
3.68541
3.63627
3.58717
3.53827
3.48953
3.44109
3.39295
3.34522
3.29791
3.25108
3.20476
3.15895
3.1137
3.06896
3.02479
2.98114
2.93808
2.89553
2.85359
2.81219
2.7715
2.73145
2.6922
2.65383
2.61664
2.58076
2.54689
2.51596
2.48978
2.47235
3.78444
2.36768
1.75883
1.50095
1.38081
1.306
1.2926
1.30186
1.32865
1.38544
1.46073
1.53227
1.67719
1.98838
2.64853
3.22759
3.3556
3.35074
3.33131
3.28515
3.23239
3.20349
3.17198
3.13508
3.09481
3.0495
3.00657
2.98344
2.97378
2.97255
2.99061
3.04176
3.13536
3.26774
3.42436
3.58448
3.73535
3.87165
3.99804
4.11114
4.2059
4.28459
4.34825
4.40357
4.44624
4.47649
4.49474
4.50413
4.50472
4.50221
4.49352
4.47468
4.44897
4.42167
4.39186
4.35931
4.32376
4.28594
4.24589
4.20414
4.16069
4.11598
4.07004
4.02324
3.97564
3.92754
3.87898
3.83019
3.78119
3.73214
3.68303
3.63398
3.58501
3.53618
3.48755
3.43918
3.39113
3.34344
3.29619
3.24939
3.20312
3.15733
3.11212
3.0674
3.02328
2.97965
2.93662
2.8941
2.8522
2.81087
2.7703
2.73036
2.69127
2.65291
2.61561
2.57958
2.54551
2.51424
2.4874
2.46954
4.60351
3.29166
2.46534
1.94296
1.60909
1.40308
1.28482
1.27372
1.28274
1.30948
1.3665
1.4587
1.58519
1.82674
2.32694
3.09216
3.32358
3.3314
3.31728
3.28111
3.22959
3.19257
3.15741
3.12075
3.08255
3.04287
3.00905
2.9919
2.9728
2.96698
2.97648
3.02131
3.11023
3.24055
3.39412
3.55623
3.70965
3.85082
3.9783
4.09095
4.18602
4.26565
4.33084
4.38541
4.42821
4.45933
4.47897
4.48924
4.49066
4.48884
4.48213
4.46641
4.44021
4.41234
4.38273
4.35065
4.31568
4.27825
4.23862
4.19721
4.15418
4.10984
4.06431
4.01786
3.97062
3.92281
3.87453
3.82597
3.77719
3.72831
3.67939
3.63049
3.58168
3.53299
3.4845
3.43624
3.38829
3.34069
3.29353
3.2468
3.20059
3.15488
3.10972
3.06511
3.02108
2.97754
2.93458
2.89219
2.85044
2.80927
2.76872
2.72881
2.68969
2.65135
2.61404
2.57793
2.54363
2.51196
2.48438
2.46552
5.05071
3.86887
2.99335
2.38287
1.97311
1.69752
1.5234
1.41969
1.35849
1.3593
1.37044
1.40386
1.48524
1.65162
2.00542
2.73566
3.22817
3.31646
3.31079
3.2853
3.23702
3.19582
3.15768
3.12065
3.08361
3.04592
3.01302
2.98971
2.97474
2.9737
2.98703
3.03334
3.12084
3.23765
3.37966
3.52873
3.67732
3.81616
3.94212
4.05413
4.1503
4.23149
4.29874
4.35435
4.39842
4.43122
4.45293
4.46495
4.46802
4.46688
4.4622
4.45046
4.42661
4.3982
4.36831
4.3366
4.30242
4.26576
4.22685
4.18606
4.14365
4.09987
4.05492
4.009
3.96227
3.9149
3.86704
3.81882
3.77037
3.72178
3.67314
3.62448
3.5759
3.52742
3.47913
3.43103
3.38326
3.33579
3.28876
3.24215
3.19607
3.15048
3.10542
3.06091
3.01702
2.97369
2.93096
2.88873
2.84713
2.80606
2.76566
2.72585
2.68683
2.64855
2.61127
2.57508
2.54055
2.50843
2.48006
2.46005
5.31814
4.28549
3.44652
2.8103
2.34432
2.00591
1.75971
1.58459
1.46581
1.38963
1.37811
1.38759
1.42261
1.51685
1.72273
2.16542
2.96967
3.25914
3.29702
3.28625
3.257
3.20879
3.1649
3.12669
3.0911
3.05873
3.03332
3.01845
3.01805
3.02634
3.05377
3.10991
3.18085
3.27078
3.38185
3.50434
3.62911
3.75937
3.88671
4.00222
4.10212
4.18648
4.2565
4.31406
4.35997
4.39492
4.41909
4.43351
4.43894
4.43835
4.43535
4.42706
4.409
4.38077
4.3505
4.31897
4.28552
4.24982
4.21188
4.17199
4.13041
4.08741
4.04319
3.99795
3.95185
3.90506
3.85772
3.80996
3.76194
3.71372
3.66542
3.61709
3.5688
3.52059
3.47254
3.42467
3.3771
3.32984
3.28299
3.23659
3.19066
3.14528
3.10055
3.05632
3.01263
2.96947
2.92689
2.88482
2.84336
2.80244
2.76218
2.72253
2.68363
2.64544
2.60819
2.57197
2.53725
2.50475
2.4757
2.45451
5.50312
4.60814
3.82787
3.19568
2.70157
2.32133
2.03205
1.81339
1.65147
1.5355
1.45773
1.43417
1.44279
1.48062
1.58361
1.83494
2.38143
3.05938
3.25703
3.27927
3.26825
3.23823
3.18639
3.14469
3.11107
3.08867
3.07773
3.07987
3.09222
3.12684
3.19751
3.26293
3.31264
3.3631
3.42421
3.49702
3.57144
3.67027
3.79602
3.92094
4.03261
4.12661
4.20309
4.26435
4.31292
4.35031
4.37726
4.39466
4.40325
4.40349
4.40202
4.39686
4.38448
4.35949
4.32956
4.29808
4.26511
4.23027
4.19338
4.15454
4.11396
4.07188
4.02853
3.98407
3.9387
3.89256
3.84582
3.79861
3.75108
3.7033
3.65541
3.60743
3.55947
3.51154
3.46375
3.41612
3.36879
3.32176
3.27515
3.22901
3.1835
3.13845
3.09397
3.04996
3.00649
2.9635
2.9211
2.87921
2.83794
2.79722
2.75716
2.71771
2.67899
2.64096
2.60382
2.56764
2.53284
2.50006
2.47048
2.44833
5.63112
4.85142
4.13909
3.52982
3.02883
2.62557
2.30465
2.05148
1.85219
1.69768
1.58181
1.49876
1.47334
1.48311
1.52681
1.646
1.9406
2.56148
3.10237
3.25189
3.26382
3.25366
3.22572
3.18014
3.1446
3.13609
3.13976
3.15671
3.20352
3.30699
3.43151
3.4955
3.51571
3.52039
3.52038
3.52457
3.54561
3.59347
3.67795
3.80137
3.92851
4.04142
4.13265
4.20311
4.25738
4.29812
4.32808
4.34857
4.36027
4.36347
4.36268
4.35948
4.35118
4.33335
4.30519
4.27418
4.24167
4.20758
4.17173
4.13405
4.09465
4.05368
4.01135
3.96784
3.92333
3.87797
3.83195
3.78539
3.73845
3.69121
3.64379
3.59624
3.54866
3.50107
3.45359
3.40626
3.35921
3.31256
3.26644
3.22078
3.17562
3.13089
3.08665
3.04288
2.99963
2.95687
2.91469
2.87305
2.83203
2.79157
2.75176
2.71256
2.67407
2.63625
2.59929
2.56323
2.52844
2.4955
2.46556
2.44265
5.72043
5.03624
4.3892
3.81316
3.31981
2.90737
2.56765
2.29008
2.06496
1.88304
1.73851
1.62756
1.54599
1.52503
1.53686
1.58726
1.7232
2.03848
2.69111
3.12821
3.2438
3.25185
3.2445
3.22351
3.1932
3.19536
3.21074
3.25819
3.36852
3.59028
3.74907
3.78542
3.77557
3.7405
3.66127
3.57867
3.55668
3.56837
3.60201
3.67188
3.78876
3.9166
4.02948
4.11903
4.18666
4.23543
4.27099
4.29542
4.31071
4.3178
4.31771
4.31624
4.31141
4.30005
4.27696
4.24763
4.21589
4.18248
4.14752
4.11094
4.07275
4.033
3.99183
3.94936
3.90582
3.86132
3.8161
3.77024
3.72396
3.67728
3.63037
3.58324
3.53603
3.48877
3.4416
3.39464
3.34813
3.30199
3.25631
3.21102
3.16616
3.1217
3.07771
3.03418
2.9912
2.94871
2.90681
2.86544
2.82472
2.78454
2.74504
2.70612
2.66793
2.6304
2.59369
2.55784
2.52318
2.49027
2.46015
2.43682
5.78672
5.17766
4.58978
4.05044
3.57376
3.16286
2.81401
2.52146
2.2772
2.07493
1.90779
1.77224
1.66553
1.58668
1.57194
1.58589
1.64248
1.78953
2.11727
2.78257
3.14266
3.23628
3.2521
3.25068
3.25086
3.2613
3.30161
3.40616
3.6351
3.9717
4.12552
4.12108
4.08702
3.99714
3.81963
3.6741
3.58965
3.57114
3.58059
3.60865
3.66797
3.76962
3.88976
3.99938
4.08813
4.15443
4.20197
4.23385
4.25461
4.26596
4.269
4.26834
4.26562
4.25858
4.24335
4.21743
4.18721
4.15472
4.12066
4.08513
4.04815
4.00965
3.96973
3.92843
3.88597
3.84245
3.79812
3.75306
3.70749
3.66143
3.61506
3.56838
3.52158
3.47469
3.42807
3.38173
3.3358
3.29017
3.24491
3.19997
3.15545
3.11131
3.06765
3.02444
2.98179
2.93964
2.89809
2.85707
2.8167
2.77689
2.73774
2.6992
2.66137
2.6242
2.58783
2.55231
2.51791
2.48518
2.45508
2.43159
5.83271
5.28708
4.75138
4.24885
3.79335
3.39059
3.04068
2.73963
2.48347
2.26571
2.08234
1.9282
1.80101
1.70024
1.62561
1.61856
1.63477
1.69679
1.85134
2.18581
2.84979
3.15179
3.23902
3.26666
3.28823
3.33308
3.43027
3.63682
4.05611
4.43143
4.51826
4.49452
4.41315
4.23229
3.99318
3.80349
3.67546
3.60448
3.58574
3.59228
3.61351
3.66007
3.74375
3.8512
3.95532
4.0433
4.11045
4.15762
4.18847
4.20651
4.21518
4.21563
4.21453
4.21071
4.20149
4.18239
4.15481
4.12397
4.09115
4.05675
4.02095
3.98369
3.94505
3.90499
3.86372
3.82129
3.77797
3.7338
3.68902
3.64363
3.59782
3.5516
3.50528
3.45905
3.41313
3.36743
3.32203
3.27686
3.23202
3.18746
3.14331
3.09952
3.05623
3.01339
2.97111
2.92934
2.88818
2.84757
2.80759
2.7682
2.72948
2.69137
2.65398
2.61726
2.58135
2.54629
2.51232
2.48
2.45013
2.42683
5.86777
5.37419
4.88383
4.41623
3.98379
3.59343
3.24708
2.94359
2.6797
2.45207
2.25588
2.08829
1.94543
1.82605
1.73118
1.66192
1.66275
1.68133
1.74636
1.90837
2.25453
2.89013
3.16484
3.25772
3.32546
3.41963
3.61058
4.0016
4.60299
4.91909
4.91486
4.86305
4.72106
4.43643
4.1676
3.95456
3.79721
3.68889
3.62368
3.59694
3.60005
3.61309
3.64563
3.71093
3.80352
3.9013
3.98786
4.05591
4.10452
4.13564
4.15294
4.15936
4.15905
4.15715
4.15183
4.14005
4.11729
4.08938
4.05847
4.0255
3.99096
3.95496
3.91758
3.8788
3.83878
3.79756
3.75534
3.71217
3.66825
3.62357
3.57833
3.53274
3.48721
3.44178
3.39658
3.35149
3.30664
3.26196
3.21758
3.17346
3.12974
3.08639
3.04352
3.00112
2.95928
2.91797
2.87727
2.83713
2.79765
2.75875
2.72055
2.68297
2.64613
2.60998
2.57467
2.54025
2.50693
2.47532
2.446
2.42336
5.89947
5.44398
4.99297
4.55775
4.1493
3.77382
3.43502
3.1327
2.86568
2.63112
2.42631
2.24779
2.09328
1.96009
1.84819
1.75767
1.69915
1.70147
1.7238
1.79426
1.96841
2.33488
2.92958
3.19926
3.34832
3.52533
3.87179
4.56847
5.20362
5.35891
5.32405
5.20638
4.94914
4.62218
4.34228
4.11864
3.94243
3.80653
3.70618
3.63892
3.60093
3.59965
3.60399
3.62347
3.66801
3.74819
3.83673
3.92171
3.99206
4.04335
4.07622
4.09355
4.09873
4.09807
4.09529
4.08831
4.07352
4.04969
4.02145
3.99043
3.95748
3.92288
3.88684
3.84941
3.81073
3.77082
3.72983
3.68776
3.64478
3.60085
3.55646
3.51182
3.46723
3.42263
3.37815
3.33371
3.28945
3.24533
3.20148
3.15788
3.11466
3.07182
3.02946
2.98756
2.94625
2.90546
2.86531
2.82572
2.78682
2.74851
2.71093
2.67399
2.63785
2.60244
2.56796
2.53443
2.50209
2.47161
2.44325
2.42199
5.92382
5.50476
5.08719
4.68021
4.29401
3.93462
3.60523
3.30722
3.03983
2.80177
2.59072
2.40447
2.24052
2.09713
1.97222
1.86751
1.78029
1.73381
1.73806
1.76503
1.84263
2.03277
2.42543
3.00485
3.33468
3.66182
4.30041
5.27684
5.75802
5.75212
5.68162
5.49002
5.1265
4.79493
4.51908
4.2912
4.10152
3.94453
3.81678
3.71761
3.64552
3.60125
3.58571
3.58593
3.59443
3.62177
3.68048
3.76243
3.84624
3.91813
3.97245
4.00811
4.02687
4.03225
4.03146
4.02818
4.02016
4.00349
3.97911
3.95074
3.91981
3.8869
3.85242
3.8165
3.77931
3.74083
3.70117
3.66028
3.61827
3.57541
3.53218
3.48867
3.44507
3.40134
3.35763
3.3139
3.27031
3.22683
3.18361
3.14063
3.09803
3.05578
3.01404
2.97275
2.93206
2.8919
2.85241
2.81348
2.77528
2.73769
2.70089
2.66477
2.62954
2.59513
2.56178
2.52956
2.49866
2.46999
2.44319
2.42364
5.94825
5.55745
5.16906
4.78923
4.42384
4.07993
3.76047
3.46799
3.20197
2.96246
2.74731
2.55546
2.3843
2.23286
2.09874
1.9821
1.88324
1.80261
1.76982
1.77741
1.81276
1.90439
2.1244
2.57184
3.23907
3.82266
4.99425
5.98585
6.19043
6.13999
5.98242
5.65399
5.28413
4.96471
4.69517
4.46445
4.26505
4.0923
3.94455
3.82078
3.72062
3.64426
3.59187
3.56831
3.55576
3.55878
3.57421
3.61128
3.68322
3.75955
3.83168
3.88948
3.92949
3.95153
3.95962
3.95894
3.95566
3.94745
3.93041
3.9061
3.87769
3.84671
3.81398
3.7798
3.74432
3.70744
3.66922
3.62954
3.5888
3.54731
3.50542
3.4631
3.42057
3.37778
3.33495
3.29204
3.24923
3.20651
3.16402
3.12176
3.07987
3.03833
2.9973
2.95673
2.91677
2.87735
2.83863
2.80051
2.76315
2.72647
2.69065
2.65562
2.62162
2.58862
2.55689
2.5266
2.49791
2.47148
2.44597
2.42936
5.98453
5.6118
5.24686
4.88915
4.54278
4.21297
3.90371
3.61696
3.35387
3.11385
2.89666
2.70035
2.52423
2.36601
2.225
2.09983
1.99001
1.89961
1.82585
1.81938
1.83349
1.88617
2.02184
2.32188
2.96081
3.92643
5.78457
6.55658
6.53773
6.42983
6.17279
5.78127
5.42863
5.12602
4.86358
4.63185
4.42594
4.24284
4.08097
3.9394
3.81776
3.71622
3.63534
3.57608
3.5421
3.5205
3.51545
3.52214
3.54457
3.59341
3.66346
3.7341
3.79526
3.84053
3.8686
3.88073
3.88045
3.87792
3.87078
3.85547
3.83124
3.80254
3.77167
3.7393
3.70564
3.67047
3.63379
3.59561
3.55648
3.51655
3.47607
3.43502
3.39364
3.35192
3.31009
3.26813
3.22623
3.18439
3.14276
3.10134
3.06028
3.01958
2.97939
2.93967
2.90058
2.86206
2.82428
2.78715
2.75087
2.71535
2.68085
2.64731
2.61503
2.58406
2.55475
2.52724
2.50054
2.47679
2.45386
2.44261
6.03723
5.67283
5.32336
4.98219
4.65203
4.33461
4.03504
3.75436
3.49504
3.2558
3.03791
2.83866
2.65905
2.4956
2.3493
2.21766
2.1002
2.00223
1.91508
1.88601
1.89462
1.92981
2.04172
2.2825
2.84912
3.99623
6.31235
6.91458
6.84882
6.65642
6.27932
5.90464
5.57024
5.27948
5.02306
4.79317
4.58469
4.39532
4.22346
4.0688
3.93071
3.80975
3.70608
3.62081
3.55489
3.51082
3.48326
3.46514
3.46707
3.47867
3.50748
3.56554
3.63088
3.69369
3.74398
3.7777
3.79522
3.79813
3.79653
3.79097
3.77833
3.75429
3.72622
3.69567
3.66358
3.62995
3.59489
3.55853
3.52124
3.483
3.44403
3.40435
3.36424
3.32373
3.28302
3.24216
3.2013
3.16048
3.11983
3.07939
3.03931
2.99958
2.96038
2.92166
2.88363
2.8462
2.8096
2.77373
2.73885
2.70492
2.67224
2.64085
2.6111
2.5832
2.55667
2.53151
2.50832
2.48894
2.47115
2.46821
6.11544
5.7377
5.39497
5.06711
4.75087
4.44589
4.1554
3.88136
3.62599
3.38888
3.17112
2.97048
2.78834
2.6213
2.47077
2.3346
2.21203
2.1101
2.0185
1.99098
2.00037
2.0393
2.1425
2.39043
2.9197
4.00255
6.16558
6.97071
6.93353
6.78838
6.47659
6.0852
5.73967
5.44368
5.18603
4.95567
4.7454
4.55103
4.37123
4.20542
4.05429
3.91763
3.79617
3.69036
3.60101
3.52913
3.47672
3.44196
3.41515
3.40712
3.41216
3.42933
3.46727
3.52648
3.58687
3.64017
3.67998
3.70401
3.71285
3.71196
3.70781
3.69751
3.6765
3.64932
3.61861
3.58609
3.55254
3.51813
3.48281
3.44642
3.40914
3.37104
3.33237
3.29324
3.25383
3.21422
3.17456
3.13491
3.09542
3.05612
3.01718
2.97861
2.94059
2.9031
2.86636
2.83031
2.79521
2.76103
2.72808
2.69639
2.66638
2.63818
2.61206
2.58671
2.56354
2.54274
2.52536
2.51288
2.50638
2.5081
6.19223
5.80926
5.46875
5.14966
4.84204
4.54792
4.26611
3.99897
3.74794
3.51358
3.29685
3.0959
2.91213
2.74297
2.5893
2.45056
2.32581
2.2247
2.14008
2.14107
2.15927
2.21791
2.37435
2.6977
3.36989
4.16493
5.32837
6.44838
6.76297
6.72302
6.58699
6.2972
5.94828
5.6312
5.35758
5.11746
4.90073
4.70058
4.51422
4.34051
4.17971
4.03163
3.8969
3.77556
3.66846
3.57589
3.49912
3.43897
3.39819
3.36437
3.34306
3.34451
3.35333
3.37576
3.42157
3.47752
3.53277
3.57783
3.60762
3.62375
3.62365
3.62134
3.61416
3.59837
3.57094
3.53996
3.50773
3.47477
3.44114
3.4066
3.3712
3.33494
3.29801
3.26049
3.22259
3.18438
3.1461
3.10777
3.06962
3.03164
2.99406
2.95687
2.92029
2.88432
2.84922
2.81498
2.78192
2.7501
2.71997
2.69159
2.66564
2.64083
2.61776
2.59698
2.57939
2.56622
2.55753
2.5575
2.55949
2.56683
6.3206
5.90317
5.54509
5.22716
4.92691
4.64101
4.36793
4.10806
3.86227
3.63094
3.4158
3.21538
3.03073
2.86065
2.70552
2.56622
2.44564
2.34919
2.31299
2.32419
2.37086
2.49159
2.76131
3.30202
3.85642
4.26352
4.76268
5.53319
6.24281
6.52122
6.49809
6.40041
6.18035
5.86674
5.56342
5.29796
5.0632
4.85047
4.65469
4.47307
4.30423
4.14743
4.00254
3.86974
3.7491
3.64105
3.54598
3.46514
3.39875
3.35084
3.31061
3.282
3.27371
3.27748
3.29056
3.31988
3.37046
3.42327
3.47072
3.50682
3.52844
3.53479
3.53352
3.52843
3.51627
3.49167
3.46171
3.42972
3.39702
3.36377
3.33009
3.29577
3.26082
3.22518
3.18907
3.15254
3.11589
3.07914
3.04258
3.00619
2.97026
2.93477
2.90003
2.86601
2.83311
2.80136
2.77126
2.74289
2.71704
2.69323
2.67047
2.65011
2.63272
2.6194
2.61092
2.60978
2.61148
2.61722
2.62964
2.65634
6.35336
5.99982
5.62815
5.30498
5.01093
4.73102
4.46343
4.2097
3.96926
3.74189
3.52868
3.32965
3.14509
2.97544
2.82119
2.68655
2.57569
2.51824
2.52584
2.56451
2.67499
2.92385
3.43383
3.93348
4.20698
4.35079
4.55215
4.87464
5.39098
5.97731
6.30129
6.29297
6.23461
6.08929
5.80295
5.50983
5.24452
5.00832
4.79633
4.60378
4.42633
4.26176
4.10874
3.96716
3.83637
3.71665
3.60797
3.51126
3.42698
3.35621
3.30113
3.256
3.22134
3.19978
3.20093
3.20787
3.22596
3.26338
3.31214
3.36144
3.40232
3.42931
3.44304
3.44259
3.43939
3.43055
3.41175
3.38343
3.35181
3.31934
3.28683
3.25408
3.22098
3.18732
3.15324
3.11873
3.08404
3.04922
3.01459
2.98015
2.94627
2.91294
2.88058
2.84924
2.81943
2.79137
2.7657
2.74278
2.72092
2.70124
2.68437
2.67167
2.6634
2.66285
2.66464
2.67043
2.68243
2.70653
2.72936
2.77528
6.32784
6.11845
5.73098
5.39044
5.09183
4.81729
4.55674
4.30766
4.07051
3.84626
3.63596
3.43895
3.25629
3.08915
2.94101
2.81856
2.74409
2.74963
2.78546
2.89179
3.13985
3.64782
4.15795
4.38812
4.44977
4.46306
4.49854
4.59284
4.79711
5.20016
5.73745
6.08545
6.13761
6.10127
5.98546
5.74492
5.46171
5.19339
4.95451
4.74278
4.55166
4.37655
4.21502
4.06536
3.92641
3.79743
3.67855
3.56984
3.4719
3.38515
3.31062
3.24967
3.20054
3.15907
3.13028
3.12339
3.12626
3.13663
3.16017
3.20425
3.25097
3.29388
3.32652
3.3467
3.35094
3.34939
3.34368
3.33041
3.30387
3.27403
3.24268
3.2109
3.1791
3.14722
3.11528
3.08306
3.05076
3.01831
2.98611
2.95415
2.92292
2.89249
2.8634
2.83596
2.81069
2.78848
2.76834
2.74964
2.73366
2.72199
2.71415
2.71485
2.7176
2.72428
2.73833
2.76238
2.78945
2.82322
2.84844
2.89611
6.25997
6.13389
5.85108
5.48997
5.17834
4.90156
4.64401
4.39941
4.1672
3.94728
3.73911
3.54537
3.36657
3.2068
3.07379
2.98632
2.99046
3.02478
3.13117
3.38073
3.89438
4.43901
4.67007
4.66737
4.6399
4.56949
4.48973
4.50151
4.56199
4.71584
5.0318
5.51709
5.86821
5.9703
5.94521
5.85617
5.66211
5.40178
5.13669
4.90006
4.68802
4.49682
4.32351
4.1645
4.01738
3.88036
3.75314
3.6352
3.52683
3.42803
3.33957
3.26203
3.19668
3.14361
3.097
3.06313
3.04477
3.04562
3.05102
3.06571
3.09645
3.1398
3.18412
3.22153
3.24667
3.25897
3.25837
3.2548
3.24533
3.22538
3.19768
3.1672
3.13647
3.10604
3.07606
3.04621
3.01658
2.98703
2.95788
2.92923
2.90157
2.87527
2.851
2.82962
2.81148
2.79431
2.77967
2.76934
2.76279
2.76407
2.76816
2.77732
2.79442
2.81976
2.84947
2.88216
2.91302
2.94292
2.96012
2.98762
6.16216
6.1026
5.93238
5.59071
5.26825
4.98584
4.72904
4.48799
4.25954
4.04324
3.84034
3.65145
3.48203
3.34002
3.24298
3.24646
3.28144
3.39281
3.65565
4.20029
4.76867
4.99208
4.9822
4.93091
4.81043
4.6373
4.50173
4.47019
4.48221
4.53204
4.65385
4.90528
5.30585
5.63642
5.78392
5.77099
5.71162
5.57176
5.33106
5.0838
4.84747
4.63331
4.44192
4.26937
4.1114
3.96548
3.83003
3.70417
3.58722
3.47916
3.38006
3.29045
3.21088
3.14197
3.08553
3.03521
2.99555
2.96991
2.96405
2.9663
2.97473
2.99414
3.03279
3.0748
3.11442
3.1453
3.16384
3.16765
3.16605
3.16018
3.14691
3.12178
3.09429
3.06566
3.03737
3.00967
2.98277
2.95661
2.9313
2.90711
2.88465
2.86449
2.84815
2.83375
2.82116
2.81236
2.80831
2.81
2.8155
2.82795
2.84919
2.8767
2.90866
2.94323
2.97556
3.00325
3.02186
3.03356
3.03388
3.03513
5.97615
6.00046
5.92108
5.71832
5.37689
5.07674
4.8145
4.5749
4.35052
4.139
3.94221
3.76474
3.61453
3.5118
3.51544
3.55329
3.67413
3.95957
4.55244
5.14968
5.36004
5.34351
5.27326
5.11463
4.89986
4.71621
4.5764
4.48448
4.45967
4.46643
4.49999
4.58834
4.77305
5.08074
5.38797
5.57762
5.57548
5.5438
5.45273
5.25976
5.02593
4.79054
4.57823
4.38712
4.21366
4.05572
3.91044
3.77608
3.6511
3.53503
3.42748
3.32854
3.2383
3.15733
3.08583
3.02592
2.97264
2.92846
2.89803
2.88236
2.88303
2.88759
2.90019
2.92677
2.96628
3.00714
3.0429
3.06626
3.07842
3.07803
3.07519
3.06715
3.05013
3.02625
3.00079
2.97554
2.95164
2.92935
2.90888
2.89094
2.87655
2.86603
2.85645
2.84934
2.84944
2.85192
2.8592
2.87496
2.901
2.93202
2.96678
3.00361
3.03737
3.0649
3.0837
3.08931
3.08729
3.0807
3.06558
3.04415
5.52274
5.8895
5.86435
5.74683
5.49102
5.17739
4.90436
4.6629
4.44189
4.23734
4.05232
3.89632
3.79163
3.79625
3.83899
3.97333
4.28779
4.93689
5.55436
5.75808
5.73574
5.64716
5.45215
5.20748
4.99651
4.82612
4.68713
4.57288
4.48931
4.4427
4.44
4.45266
4.50487
4.62601
4.86094
5.13296
5.33048
5.38815
5.37078
5.30791
5.16706
4.95211
4.73395
4.52312
4.33025
4.15559
3.99728
3.85221
3.71836
3.59425
3.47922
3.37246
3.2739
3.18337
3.10139
3.02818
2.96537
2.90952
2.86222
2.82677
2.80482
2.8001
2.80218
2.80985
2.8274
2.86261
2.90396
2.94101
2.96987
2.98782
2.99536
2.99462
2.99118
2.98263
2.96521
2.9457
2.92659
2.90948
2.89564
2.88783
2.88216
2.87963
2.88098
2.88596
2.89751
2.91948
2.94865
2.98357
3.02243
3.0619
3.09755
3.12494
3.14465
3.14623
3.14349
3.13543
3.11769
3.08731
3.05654
3.02513
4.54464
5.64388
5.77256
5.7231
5.58189
5.29267
5.0054
4.75753
4.53902
4.34518
4.18304
4.08069
4.08727
4.13768
4.29145
4.64608
5.3718
6.02193
6.18664
6.15659
6.04603
5.81063
5.5416
5.31089
5.12182
4.96108
4.81841
4.68811
4.57304
4.47747
4.41799
4.38527
4.38814
4.41255
4.48416
4.63537
4.86848
5.06728
5.18047
5.17416
5.1395
5.05172
4.87374
4.66861
4.46013
4.26794
4.094
3.93563
3.79087
3.65779
3.53496
3.42077
3.31466
3.21623
3.12568
3.04308
2.96886
2.90386
2.8463
2.79646
2.75686
2.73088
2.71851
2.71939
2.72418
2.73658
2.76246
2.80167
2.84189
2.87642
2.9017
2.91713
2.92524
2.92505
2.92333
2.91882
2.90959
2.90193
2.89976
2.90067
2.90429
2.91282
2.92989
2.95715
2.99081
3.03
3.07326
3.11619
3.15438
3.18213
3.20232
3.20189
3.19827
3.18906
3.16897
3.13567
3.1013
3.06555
3.03196
3.00059
2.91823
5.06688
5.63791
5.64772
5.58125
5.41588
5.12624
4.86734
4.65056
4.477
4.37799
4.38767
4.44887
4.62879
5.03586
5.8604
6.51929
6.64177
6.60268
6.46798
6.18885
5.89669
5.64921
5.44525
5.26952
5.10968
4.95866
4.81445
4.67841
4.55439
4.44831
4.3705
4.3233
4.29932
4.30762
4.34419
4.43231
4.60785
4.79678
4.93882
4.97
4.95503
4.9035
4.78811
4.59121
4.39375
4.20511
4.03002
3.87146
3.72768
3.59557
3.47323
3.35944
3.25397
3.15616
3.06599
2.98335
2.90854
2.84207
2.78343
2.73172
2.68942
2.65962
2.64102
2.64055
2.64321
2.65186
2.6711
2.70881
2.75061