/*--------------------------------*- C++ -*----------------------------------*\
| =========                 |                                                 |
| \\      /  F ield         | OpenFOAM: The Open Source CFD Toolbox           |
|  \\    /   O peration     | Version:  2112                                  |
|   \\  /    A nd           | Website:  www.openfoam.com                      |
|    \\/     M anipulation  |                                                 |
\*---------------------------------------------------------------------------*/
FoamFile
{
    version     2.0;
    format      ascii;
    arch        "LSB;label=32;scalar=64";
    class       surfaceScalarField;
    location    "4";
    object      phi;
}
// * * * * * * * * * * * * * * * * * * * * * * * * * * * * * * * * * * * * * //

dimensions      [1 0 -1 0 0 0 0];

oriented        oriented;

internalField   nonuniform List<scalar> 
10325
(
0.00840003
7.26467e-11
0.00840003
5.62042e-10
0.00840003
1.72651e-09
0.00840002
5.2228e-09
0.00840001
1.2272e-08
0.00839999
3.37802e-08
0.00839993
7.1379e-08
0.00839977
2.18275e-07
0.00839943
4.12856e-07
0.00839823
1.50155e-06
0.00839569
3.02924e-06
0.00838572
1.13276e-05
0.00835774
3.05912e-05
0.00823786
0.000125676
0.00767685
0.000591303
0.00693173
0.000726939
0.00627501
0.000651773
0.00561496
0.000658755
0.00493002
0.000682956
0.00420531
0.000721826
0.00343834
0.000763209
0.00263214
0.000802227
0.00178719
0.00083906
0.000906843
0.000874706
0.000902939
0.00840003
1.42089e-10
0.00840003
1.10088e-09
0.00840003
3.3763e-09
0.00840002
1.02236e-08
0.00840001
2.39612e-08
0.00839999
6.64569e-08
0.00839994
1.3817e-07
0.00839978
4.37137e-07
0.00839947
7.92412e-07
0.00839823
3.05491e-06
0.00839573
5.98843e-06
0.00838554
2.28923e-05
0.00835733
6.14088e-05
0.00824031
0.000248319
0.00771453
0.00114747
0.00695295
0.00147042
0.00630429
0.00129539
0.00565164
0.00131007
0.00496933
0.00136329
0.00423599
0.0014523
0.00345772
0.0015377
0.00264091
0.00161499
0.00178407
0.00168993
0.000895122
0.00175809
0.00179419
0.00840003
2.04172e-10
0.00840003
1.58115e-09
0.00840003
4.84309e-09
0.00840002
1.46718e-08
0.00840002
3.43959e-08
0.0084
9.53419e-08
0.00839995
1.98758e-07
0.00839982
6.26524e-07
0.00839954
1.13118e-06
0.00839854
4.36978e-06
0.00839645
8.52354e-06
0.00838816
3.25532e-05
0.00836502
8.71593e-05
0.00827069
0.00034793
0.00787095
0.00157775
0.00710119
0.00222239
0.0064326
0.00195864
0.0057726
0.00196862
0.00508583
0.00204778
0.00434255
0.00219263
0.00355273
0.00232373
0.00271592
0.00244775
0.00183712
0.00256272
0.000922958
0.00266666
0.00271313
0.00840003
2.49277e-10
0.00840003
1.92768e-09
0.00840003
5.90653e-09
0.00840003
1.78731e-08
0.00840002
4.19409e-08
0.00840001
1.15771e-07
0.00839998
2.42242e-07
0.0083999
7.56124e-07
0.00839974
1.3526e-06
0.00839919
5.22221e-06
0.00839807
1.00683e-05
0.00839359
3.83449e-05
0.00838147
0.000101876
0.00833162
0.00040197
0.00817578
0.00176368
0.00740962
0.00297205
0.0066875
0.0026743
0.00600093
0.00265276
0.00530092
0.0027464
0.00453938
0.00295128
0.00372822
0.00313063
0.00286823
0.00330344
0.00194683
0.00347824
0.00098319
0.00362441
0.00369226
0.00840003
2.71725e-10
0.00840003
2.0979e-09
0.00840003
6.42794e-09
0.00840003
1.93952e-08
0.00840003
4.57126e-08
0.00840003
1.23399e-07
0.00840001
2.69788e-07
0.00840004
7.70326e-07
0.00839994
1.50411e-06
0.00840023
5.19871e-06
0.00840029
1.03826e-05
0.00840326
3.65519e-05
0.00840358
0.000103906
0.00842753
0.000381882
0.00871137
0.00150743
0.00793634
0.00373521
0.00708247
0.0035228
0.00634569
0.00338761
0.00561487
0.0034757
0.00484612
0.00371753
0.00399708
0.00397689
0.00309323
0.00420355
0.00212695
0.00443866
0.00108552
0.00466014
0.00477375
0.00840003
2.63974e-10
0.00840003
2.03361e-09
0.00840003
6.28379e-09
0.00840003
1.88158e-08
0.00840003
4.44935e-08
0.00840005
1.17721e-07
0.00840006
2.60711e-07
0.00840015
7.11003e-07
0.00840029
1.42991e-06
0.0084009
4.75677e-06
0.00840284
8.80707e-06
0.00840654
3.35666e-05
0.00842186
9.08462e-05
0.00849579
0.000305728
0.00876494
0.00125476
0.00825539
0.00424412
0.00742314
0.00435301
0.00670173
0.00410709
0.00598976
0.00418419
0.00521243
0.00449142
0.00435442
0.00483203
0.00340748
0.00514765
0.00236698
0.00547272
0.00123226
0.00578914
0.00600205
0.00840003
2.67987e-10
0.00840003
2.06939e-09
0.00840003
6.41734e-09
0.00840003
1.91958e-08
0.00840003
4.5269e-08
0.00840003
1.19284e-07
0.00840004
2.6417e-07
0.00840006
7.08778e-07
0.0084001
1.43088e-06
0.00840032
4.65426e-06
0.00840096
8.37872e-06
0.00840263
3.23166e-05
0.0084112
8.40483e-05
0.0084418
0.000276569
0.00858114
0.00112975
0.00822662
0.00460936
0.00753345
0.00504691
0.00695162
0.00468539
0.00631018
0.00482152
0.00558258
0.00521497
0.00473623
0.00567212
0.00378337
0.00609551
0.00270388
0.00654774
0.00145326
0.00703459
0.0074516
0.00840003
3.17302e-10
0.00840003
2.45327e-09
0.00840003
7.59222e-09
0.00840002
2.27251e-08
0.00840002
5.37748e-08
0.0084
1.41357e-07
0.00839995
3.16252e-07
0.00839986
8.22531e-07
0.00839955
1.77024e-06
0.0083993
4.99673e-06
0.00839772
1.01779e-05
0.00839727
3.31017e-05
0.00839984
8.264e-05
0.00837789
0.000299871
0.00849916
0.00101703
0.00819158
0.0049288
0.00788383
0.00535465
0.00725043
0.00531764
0.00656241
0.00550674
0.00591443
0.00585985
0.00514572
0.0064386
0.00422249
0.00701613
0.00311592
0.00764909
0.00177994
0.00836505
0.00922826
0.00840003
3.36287e-10
0.00840003
3.15743e-09
0.00840003
9.53747e-09
0.00840002
2.90043e-08
0.00840001
6.82478e-08
0.00839997
1.82614e-07
0.00839989
4.01715e-07
0.00839966
1.06396e-06
0.00839922
2.23683e-06
0.00839827
6.02286e-06
0.00839669
1.19247e-05
0.00839252
3.75478e-05
0.00839533
8.07996e-05
0.00838093
0.000315451
0.00844342
0.000959767
0.00831309
0.00506958
0.0078952
0.00577113
0.00742173
0.00578993
0.00687337
0.00605513
0.00625816
0.00647339
0.00557386
0.00712081
0.00474365
0.00784446
0.00373861
0.00865074
0.00232781
0.00977238
0.0115531
0.00840003
1.47478e-10
0.00840003
4.58706e-09
0.00840003
6.98508e-09
0.00840002
3.96439e-08
0.00840004
5.02816e-08
0.00839997
2.54441e-07
0.00840011
2.69965e-07
0.0083996
1.58102e-06
0.00840065
1.21604e-06
0.00839706
9.67179e-06
0.00840402
5.10329e-06
0.00837838
6.34633e-05
0.00842242
3.73672e-05
0.0082963
0.000442866
0.00844597
0.000813927
0.00840662
0.00511909
0.00801455
0.0061608
0.00759696
0.00620615
0.00717786
0.00647441
0.00665886
0.00699364
0.00609668
0.0076814
0.00545518
0.00848393
0.00455045
0.00955224
0.00320443
0.011114
0.0147551
0.00840003
5.27315e-10
0.00840003
8.18926e-10
0.00840003
7.86663e-09
0.00840006
8.95869e-09
0.00840006
5.58897e-08
0.00840026
5.36659e-08
0.00840016
3.71373e-07
0.00840149
2.73392e-07
0.00840008
2.62787e-06
0.00840827
1.47244e-06
0.00839474
1.86078e-05
0.00844701
1.09737e-05
0.00834548
0.000138958
0.00862015
0.000169326
0.00832456
0.00111271
0.00858709
0.00486743
0.00821553
0.00652851
0.00781442
0.00660526
0.00746244
0.00682699
0.00709646
0.00735825
0.0067118
0.00806449
0.00626775
0.00892664
0.00586119
0.00995758
0.00586263
0.0111105
0.0117866
0.0088292
0.00840003
2.88218e-10
0.00840003
1.56421e-09
0.00840003
5.34944e-09
0.00840003
1.48779e-08
0.00840005
3.76676e-08
0.00840001
9.25013e-08
0.00840015
2.2988e-07
0.00839988
5.48848e-07
0.00840117
1.38311e-06
0.00839893
3.84663e-06
0.00840905
8.74289e-06
0.00839124
2.9566e-05
0.00846057
7.05324e-05
0.00833466
0.000295916
0.00864317
0.000806638
0.00911005
0.00441142
0.00863165
0.00700237
0.00811247
0.00712183
0.00777803
0.00716118
0.00751206
0.00762606
0.00725284
0.00832072
0.00702998
0.00914634
0.00696965
0.0100156
0.00740505
0.0106739
0.0106869
0.00850449
0.00840003
2.64772e-10
0.00840003
2.05803e-09
0.00840003
6.29988e-09
0.00840002
1.90919e-08
0.00840002
4.51947e-08
0.00839999
1.21303e-07
0.00839995
2.73331e-07
0.00839978
7.22842e-07
0.00839958
1.60426e-06
0.0083991
4.36614e-06
0.00839836
9.57268e-06
0.008399
2.91415e-05
0.00840539
6.46017e-05
0.00845834
0.000243853
0.00859741
0.000669238
0.00988882
0.00313115
0.00926939
0.00761666
0.00862412
0.00776337
0.00820269
0.00758159
0.00794655
0.00788306
0.00779453
0.0084741
0.00775486
0.00918346
0.00792865
0.00983852
0.00844327
0.0101569
0.00996747
0.00916184
0.00840003
2.71347e-10
0.00840003
2.11017e-09
0.00840003
6.44096e-09
0.00840003
1.95257e-08
0.00840003
4.61989e-08
0.00840003
1.23961e-07
0.00840002
2.79742e-07
0.00840002
7.31446e-07
0.00839997
1.66242e-06
0.0084002
4.16686e-06
0.00839959
1.02503e-05
0.0084054
2.34687e-05
0.00840424
6.61598e-05
0.00847309
0.000175651
0.00859551
0.000546617
0.0096006
0.00213176
0.00961802
0.0076005
0.00928039
0.00810011
0.008708
0.00815295
0.00841692
0.00817346
0.00832181
0.00856904
0.00840695
0.0090983
0.00864683
0.00959615
0.00906606
0.00973539
0.00941804
0.00961348
0.00840003
2.32996e-10
0.00840003
1.80413e-09
0.00840003
5.55662e-09
0.00840003
1.67119e-08
0.00840004
3.96657e-08
0.00840006
1.04943e-07
0.00840011
2.36821e-07
0.00840023
6.10161e-07
0.00840053
1.37091e-06
0.0084012
3.51791e-06
0.00840367
7.86783e-06
0.00840577
2.14034e-05
0.00842388
4.86e-05
0.0084465
0.000153286
0.00854884
0.000445527
0.00895962
0.00172308
0.00962351
0.00694386
0.00940995
0.00831479
0.0090893
0.00847439
0.00885042
0.00841189
0.00878393
0.00863531
0.00890496
0.00897735
0.00918783
0.00931297
0.00954069
0.00938035
0.0090187
0.00993905
0.00840003
1.89025e-10
0.00840003
1.46154e-09
0.00840003
4.52892e-09
0.00840003
1.35647e-08
0.00840004
3.21581e-08
0.00840006
8.45858e-08
0.00840011
1.8965e-07
0.00840023
4.93471e-07
0.00840056
1.05434e-06
0.00840109
2.99715e-06
0.00840322
5.77264e-06
0.00840528
1.94023e-05
0.00841595
3.81596e-05
0.00843169
0.000137736
0.0085173
0.000360741
0.00878425
0.00145739
0.00974024
0.00599375
0.00963669
0.00841764
0.00942571
0.00868552
0.00923163
0.00860625
0.00918572
0.0086802
0.0092762
0.00888642
0.00954102
0.00904773
0.00987744
0.00904423
0.00870489
0.0101891
0.00840003
1.65835e-10
0.00840003
1.28278e-09
0.00840003
3.95385e-09
0.00840003
1.18758e-08
0.00840004
2.81212e-08
0.00840005
7.43285e-08
0.00840007
1.66697e-07
0.00840013
4.32474e-07
0.00840024
9.50995e-07
0.00840069
2.55869e-06
0.0084012
5.30036e-06
0.00840401
1.6648e-05
0.00841002
3.23208e-05
0.00842899
0.000118963
0.00848944
0.000300926
0.00875238
0.00119594
0.0104331
0.00431834
0.010126
0.00872381
0.00993032
0.00888057
0.00967392
0.00886294
0.00961332
0.00874201
0.00967729
0.00882214
0.00984921
0.00887499
0.0101107
0.00878244
0.00844942
0.0103656
0.00840003
1.36888e-10
0.00840003
1.10882e-09
0.00840003
3.43671e-09
0.00840003
1.02387e-08
0.00840004
2.45037e-08
0.00840005
6.40924e-08
0.00840007
1.45956e-07
0.00840013
3.72097e-07
0.00840025
8.36242e-07
0.00840069
2.14054e-06
0.00840125
4.7486e-06
0.00840515
1.27589e-05
0.00841021
2.74848e-05
0.00844681
8.24042e-05
0.00853341
0.000216036
0.00901237
0.000716063
0.0109081
0.00242897
0.0109625
0.00866915
0.0106135
0.00922743
0.0102311
0.00924456
0.0100203
0.00895336
0.0100344
0.00880907
0.0101542
0.00875631
0.0103292
0.00860694
0.0082714
0.0105072
0.00840003
5.46007e-11
0.00840003
1.12759e-09
0.00840003
2.16683e-09
0.00840003
9.87532e-09
0.00840004
1.59302e-08
0.00840004
6.13261e-08
0.00840009
9.53686e-08
0.00840011
3.57302e-07
0.00840041
5.36383e-07
0.00840044
2.11956e-06
0.00840246
2.75098e-06
0.00840179
1.34574e-05
0.00841617
1.32078e-05
0.00840885
8.98032e-05
0.00852548
9.98869e-05
0.00857635
0.000665664
0.00940023
0.00160696
0.0109832
0.00709279
0.0109424
0.00926946
0.0107064
0.00948063
0.0104245
0.00923522
0.010357
0.00887646
0.0104261
0.0086877
0.010547
0.00848651
0.00815371
0.010665
0.00840003
9.59734e-11
0.00840003
5.62964e-10
0.00840003
2.04926e-09
0.00840004
5.36496e-09
0.00840004
1.44304e-08
0.00840007
3.34065e-08
0.00840008
8.46331e-08
0.00840024
1.90328e-07
0.00840029
4.91075e-07
0.00840137
1.0441e-06
0.00840106
3.0723e-06
0.00840874
5.82456e-06
0.00840188
2.00701e-05
0.00845333
3.85997e-05
0.00841142
0.000141873
0.00872584
0.000351841
0.0088911
0.00144335
0.0110188
0.00496826
0.0111949
0.00909399
0.0111296
0.00954619
0.0109008
0.00946411
0.0107087
0.00906835
0.0106698
0.00872652
0.0107243
0.00843259
0.00807769
0.0108011
0.00840003
1.18906e-10
0.00840003
3.53163e-10
0.00840003
2.03221e-09
0.00840003
3.59815e-09
0.00840003
1.40371e-08
0.00840004
2.28675e-08
0.00840005
8.28094e-08
0.0084001
1.32004e-07
0.00840012
4.75671e-07
0.00840043
7.37027e-07
0.00840072
2.7891e-06
0.0084026
3.96479e-06
0.0084052
1.751e-05
0.00842209
2.18288e-05
0.00844827
0.000115764
0.00861158
0.00018968
0.00920346
0.000850914
0.0114488
0.00272948
0.0118313
0.00871301
0.0117174
0.00965955
0.0114291
0.00975175
0.0111571
0.00933947
0.0110158
0.0088674
0.0109659
0.00848203
0.00808219
0.0109622
0.00840003
3.95003e-11
0.00840003
4.36873e-10
0.00840003
9.92809e-10
0.00840003
3.93605e-09
0.00840004
7.16047e-09
0.00840004
2.44749e-08
0.00840008
4.25962e-08
0.00840007
1.41247e-07
0.0084003
2.42723e-07
0.00840023
8.08697e-07
0.00840167
1.3615e-06
0.00840086
4.7865e-06
0.00841088
7.54945e-06
0.00840227
3.04679e-05
0.00847191
4.64752e-05
0.00844996
0.000211848
0.00885341
0.000448334
0.00975106
0.0018336
0.0116475
0.00682284
0.0118295
0.00947669
0.011755
0.00982546
0.0114474
0.00964577
0.0113226
0.00899098
0.0112423
0.00856228
0.00813931
0.0111844
0.00840003
6.05503e-11
0.00840003
2.11312e-10
0.00840003
1.10836e-09
0.00840003
2.11586e-09
0.00840003
7.73068e-09
0.00840004
1.34897e-08
0.00840004
4.58529e-08
0.0084001
7.86274e-08
0.00840008
2.63446e-07
0.00840044
4.50091e-07
0.0084003
1.51141e-06
0.00840252
2.57708e-06
0.00840113
8.96979e-06
0.0084171
1.45801e-05
0.00840441
5.92672e-05
0.00852301
9.36468e-05
0.00851819
0.000453733
0.00925592
0.00109673
0.0118131
0.00427354
0.0120795
0.00921148
0.0121001
0.00980327
0.0119542
0.00979
0.0115963
0.00934722
0.0114782
0.00867949
0.00821462
0.0114022
0.00840003
3.06993e-11
0.00840003
2.05081e-10
0.00840003
6.48281e-10
0.00840003
1.92727e-09
0.00840003
4.61468e-09
0.00840004
1.21065e-08
0.00840005
2.74346e-08
0.00840006
7.00872e-08
0.00840017
1.56851e-07
0.00840022
3.992e-07
0.00840085
8.91149e-07
0.00840115
2.28682e-06
0.00840506
5.08937e-06
0.00840613
1.3535e-05
0.00843542
3.01571e-05
0.00844206
8.71033e-05
0.00868133
0.000215273
0.00904511
0.00073359
0.0110581
0.0022636
0.0124289
0.00784521
0.012466
0.00976614
0.0122783
0.00997741
0.0118976
0.00972707
0.0117255
0.00885085
0.00835074
0.0115889
0.00840003
1.99025e-11
0.00840003
1.56513e-10
0.00840003
4.86938e-10
0.00840003
1.44565e-09
0.00840003
3.4599e-09
0.00840004
9.00317e-09
0.00840004
2.04691e-08
0.00840006
5.17687e-08
0.0084001
1.16276e-07
0.00840021
2.9249e-07
0.00840045
6.53579e-07
0.00840108
1.65888e-06
0.00840256
3.63166e-06
0.00840629
9.83522e-06
0.00841663
1.98673e-05
0.00843893
6.4987e-05
0.00852534
0.000129132
0.00874015
0.000519312
0.009602
0.00140282
0.0120462
0.0054076
0.0124824
0.00933127
0.0126153
0.00984429
0.0125426
0.00979921
0.0120948
0.00929864
0.00860074
0.0118445
0.00840003
8.92135e-12
0.00840003
1.35306e-10
0.00840003
2.95639e-10
0.00840003
1.19672e-09
0.00840003
2.15155e-09
0.00840003
7.38594e-09
0.00840004
1.28233e-08
0.00840005
4.24022e-08
0.00840009
7.31078e-08
0.00840015
2.40077e-07
0.00840039
4.11796e-07
0.00840069
1.36227e-06
0.00840204
2.28948e-06
0.00840395
7.955e-06
0.00841149
1.23618e-05
0.0084274
4.92249e-05
0.00848146
7.52446e-05
0.00866771
0.00033351
0.00933472
0.00073728
0.0120106
0.00273375
0.0128529
0.00849341
0.0128715
0.0098261
0.0127139
0.00995697
0.0123741
0.00963903
0.00883318
0.0121415
0.00840003
1.12516e-11
0.00840003
6.81342e-11
0.00840003
2.48439e-10
0.00840003
6.46936e-10
0.00840003
1.75327e-09
0.00840003
4.03976e-09
0.00840004
1.03028e-08
0.00840006
2.31268e-08
0.00840007
5.81235e-08
0.00840018
1.29637e-07
0.00840027
3.25073e-07
0.00840091
7.2309e-07
0.00840137
1.84326e-06
0.00840535
3.99385e-06
0.00840669
1.10522e-05
0.00843357
2.2475e-05
0.00843699
7.19714e-05
0.00862082
0.000150301
0.00877266
0.000586155
0.00991077
0.00159792
0.0126071
0.00580492
0.0129662
0.00946644
0.0131051
0.00981886
0.0129335
0.00981114
0.00924916
0.0125174
0.00840003
8.8634e-12
0.00840003
4.80139e-11
0.00840003
1.7635e-10
0.00840003
4.56439e-10
0.00840003
1.23582e-09
0.00840003
2.85104e-09
0.00840004
7.25549e-09
0.00840004
1.63192e-08
0.00840006
4.09519e-08
0.0084001
9.15104e-08
0.0084002
2.29088e-07
0.00840041
5.10323e-07
0.00840098
1.28266e-06
0.00840214
2.84466e-06
0.00840595
7.2927e-06
0.00841241
1.60982e-05
0.00844115
4.35092e-05
0.008489
0.000102841
0.00876509
0.000311337
0.00947719
0.000887198
0.0122361
0.00305791
0.0132498
0.0084541
0.0133176
0.00975051
0.0132237
0.00990481
0.00960915
0.0128631
0.00840003
7.90046e-12
0.00840003
2.68411e-11
0.00840003
1.37623e-10
0.00840003
2.71013e-10
0.00840003
9.50055e-10
0.00840003
1.71386e-09
0.00840003
5.55183e-09
0.00840004
9.84706e-09
0.00840005
3.12916e-08
0.00840009
5.52978e-08
0.00840014
1.75093e-07
0.00840035
3.08294e-07
0.00840065
9.8074e-07
0.00840179
1.71316e-06
0.00840354
5.57002e-06
0.00841024
9.46218e-06
0.00842059
3.33105e-05
0.00846857
5.51744e-05
0.00856304
0.000217654
0.00896325
0.000488084
0.010212
0.00181209
0.0128453
0.00582729
0.0133038
0.00929161
0.0135215
0.00968498
0.00975573
0.0133747
0.00840003
3.4057e-12
0.00840003
2.3241e-11
0.00840003
7.31305e-11
0.00840003
2.17276e-10
0.00840003
5.17659e-10
0.00840003
1.35147e-09
0.00840003
3.0431e-09
0.00840004
7.71538e-09
0.00840005
1.71483e-08
0.00840006
4.31848e-08
0.00840014
9.56392e-08
0.00840021
2.4069e-07
0.00840066
5.32252e-07
0.00840104
1.34475e-06
0.00840366
2.97085e-06
0.00840555
7.62186e-06
0.00842202
1.69443e-05
0.00843249
4.49557e-05
0.00854416
0.000106514
0.00872392
0.000309525
0.00963151
0.000906467
0.0124614
0.00300889
0.0135409
0.00821246
0.0136193
0.00960497
0.00971548
0.0136582
0.00840003
2.04454e-12
0.00840003
1.58696e-11
0.00840003
4.94401e-11
0.00840003
1.46541e-10
0.00840003
3.49952e-10
0.00840003
9.07172e-10
0.00840003
2.054e-09
0.00840003
5.16861e-09
0.00840004
1.15612e-08
0.00840005
2.88917e-08
0.00840009
6.44212e-08
0.00840017
1.60797e-07
0.00840034
3.57863e-07
0.0084008
8.95095e-07
0.00840179
1.98729e-06
0.00840442
5.0284e-06
0.00841036
1.10671e-05
0.00842576
2.96376e-05
0.00846991
6.32607e-05
0.00858353
0.000195825
0.00899203
0.000501388
0.0101002
0.00189892
0.0130156
0.00530528
0.0136067
0.00901441
0.00954377
0.0137764
0.00840003
9.70992e-13
0.00840003
1.18334e-11
0.00840003
2.81585e-11
0.00840003
1.05357e-10
0.00840003
2.02336e-10
0.00840003
6.44923e-10
0.00840003
1.18854e-09
0.00840003
3.64668e-09
0.00840004
6.66437e-09
0.00840005
2.02389e-08
0.00840007
3.69123e-08
0.00840012
1.1181e-07
0.00840028
2.03415e-07
0.00840056
6.17557e-07
0.00840143
1.11767e-06
0.00840304
3.43391e-06
0.00840803
6.11866e-06
0.00841813
1.95963e-05
0.00844711
3.4545e-05
0.0085239
0.000119331
0.00877989
0.000246617
0.00978617
0.000893642
0.0124545
0.00264258
0.0138732
0.00759863
0.00948608
0.0139301
0.00840003
1.23089e-12
0.00840003
5.11187e-12
0.00840003
2.35653e-11
0.00840003
5.01502e-11
0.00840003
1.6339e-10
0.00840003
3.1388e-10
0.00840003
9.50448e-10
0.00840003
1.78717e-09
0.00840003
5.31421e-09
0.00840004
9.94565e-09
0.00840005
2.9438e-08
0.00840011
5.50013e-08
0.00840015
1.6277e-07
0.00840047
3.03362e-07
0.00840069
9.01106e-07
0.00840246
1.67234e-06
0.00840357
5.0372e-06
0.00841398
9.24999e-06
0.00841926
2.92639e-05
0.00848607
5.36742e-05
0.00854656
0.00018536
0.00901661
0.000428346
0.0101512
0.0015039
0.0131139
0.00464938
0.00861121
0.0139919
0.00840003
5.73565e-13
0.00840003
3.92394e-12
0.00840003
1.23287e-11
0.00840003
3.66051e-11
0.00840003
8.70762e-11
0.00840003
2.26676e-10
0.00840003
5.09158e-10
0.00840003
1.28546e-09
0.00840003
2.84872e-09
0.00840004
7.13873e-09
0.00840005
1.57632e-08
0.00840007
3.94505e-08
0.00840014
8.69564e-08
0.00840023
2.17944e-07
0.00840065
4.79706e-07
0.00840112
1.20876e-06
0.00840352
2.65752e-06
0.00840603
6.76985e-06
0.00842021
1.51489e-05
0.00843528
3.87866e-05
0.0085268
9.40825e-05
0.00870254
0.000253406
0.00946583
0.000741391
0.0117394
0.0023801
0.00653964
0.0138166
0.00840003
3.26275e-13
0.00840003
2.52516e-12
0.00840003
7.86673e-12
0.00840003
2.33282e-11
0.00840003
5.5595e-11
0.00840003
1.43809e-10
0.00840003
3.24489e-10
0.00840003
8.13613e-10
0.00840003
1.81236e-09
0.00840003
4.50946e-09
0.00840004
1.00126e-08
0.00840006
2.48631e-08
0.00840009
5.51363e-08
0.00840017
1.36894e-07
0.00840035
3.03131e-07
0.00840081
7.54248e-07
0.00840181
1.66661e-06
0.00840442
4.18486e-06
0.00841042
9.18569e-06
0.00842532
2.3997e-05
0.0084676
5.21714e-05
0.00857204
0.000149564
0.00893814
0.000376646
0.0100279
0.00129353
0.00355709
0.0130205
0.00840003
1.48202e-13
0.00840003
1.78528e-12
0.00840003
4.36055e-12
0.00840003
1.59196e-11
0.00840003
3.13171e-11
0.00840003
9.723e-11
0.00840003
1.83475e-10
0.00840003
5.47676e-10
0.00840003
1.02527e-09
0.00840003
3.02627e-09
0.00840004
5.663e-09
0.00840005
1.66417e-08
0.00840007
3.11772e-08
0.00840012
9.14089e-08
0.00840025
1.71322e-07
0.0084005
5.0236e-07
0.00840124
9.39404e-07
0.00840266
2.77318e-06
0.00840675
5.12215e-06
0.00841502
1.58006e-05
0.00843983
2.75252e-05
0.00849187
9.78365e-05
0.0086943
0.0001752
0.00928977
0.000699174
0.00184897
0.0110038
0.00840003
1.46083e-13
0.00840003
8.4475e-13
0.00840003
3.10588e-12
0.00840003
8.0286e-12
0.00840003
2.17316e-11
0.00840003
4.96636e-11
0.00840003
1.25996e-10
0.00840003
2.80095e-10
0.00840003
6.98932e-10
0.00840003
1.54389e-09
0.00840003
3.83278e-09
0.00840004
8.45545e-09
0.00840005
2.09397e-08
0.0084001
4.61841e-08
0.00840016
1.14195e-07
0.00840041
2.51746e-07
0.00840073
6.22385e-07
0.00840214
1.37143e-06
0.00840386
3.41498e-06
0.00841221
7.49333e-06
0.00842053
1.9309e-05
0.00847628
4.23263e-05
0.00853594
0.000115925
0.00895116
0.00028573
0.000918652
0.00987825
0.00840003
1.14612e-13
0.00840003
4.38288e-13
0.00840003
2.05554e-12
0.00840003
4.35906e-12
0.00840003
1.41275e-11
0.00840003
2.72097e-11
0.00840003
8.13922e-11
0.00840003
1.53606e-10
0.00840003
4.49886e-10
0.00840003
8.45553e-10
0.00840003
2.46033e-09
0.00840004
4.62236e-09
0.00840004
1.34121e-08
0.00840007
2.52004e-08
0.00840011
7.30233e-08
0.00840022
1.37039e-07
0.00840045
3.9754e-07
0.00840108
7.42936e-07
0.00840232
2.17928e-06
0.00840585
3.98034e-06
0.00841284
1.23995e-05
0.0084341
2.10031e-05
0.00847413
7.63781e-05
0.00862946
0.000130187
0.000526236
0.00902289
0.00840003
4.6715e-14
0.00840003
3.19476e-13
0.00840003
1.0097e-12
0.00840003
2.97892e-12
0.00840003
7.10367e-12
0.00840003
1.83311e-11
0.00840003
4.11961e-11
0.00840003
1.02955e-10
0.00840003
2.28053e-10
0.00840003
5.65275e-10
0.00840003
1.2474e-09
0.00840003
3.08528e-09
0.00840004
6.79986e-09
0.00840005
1.68114e-08
0.00840008
3.7019e-08
0.00840013
9.15699e-08
0.00840033
2.01375e-07
0.00840057
4.99113e-07
0.00840166
1.09708e-06
0.00840292
2.73666e-06
0.00840933
6.0162e-06
0.00841498
1.54277e-05
0.00845773
3.37949e-05
0.0084943
9.3929e-05
0.000217616
0.00880399
0.00840003
2.4714e-14
0.00840003
1.91345e-13
0.00840003
5.96524e-13
0.00840003
1.76643e-12
0.00840003
4.2014e-12
0.00840003
1.08185e-11
0.00840003
2.43191e-11
0.00840003
6.0582e-11
0.00840003
1.34307e-10
0.00840003
3.31701e-10
0.00840003
7.32697e-10
0.00840003
1.80501e-09
0.00840004
3.9829e-09
0.00840004
9.80221e-09
0.00840006
2.16189e-08
0.0084001
5.31772e-08
0.00840018
1.17201e-07
0.00840039
2.88327e-07
0.00840086
6.34548e-07
0.00840204
1.56582e-06
0.00840464
3.43538e-06
0.00841151
8.61151e-06
0.00842664
1.87522e-05
0.00847139
4.94887e-05
0.000110465
0.00857912
0.00840003
1.08429e-14
0.00840003
1.25237e-13
0.00840003
3.14958e-13
0.00840003
1.11743e-12
0.00840003
2.25156e-12
0.00840003
6.7843e-12
0.00840003
1.30764e-11
0.00840003
3.78382e-11
0.00840003
7.22275e-11
0.00840003
2.06617e-10
0.00840003
3.93739e-10
0.00840003
1.1218e-09
0.00840003
2.13829e-09
0.00840004
6.07975e-09
0.00840005
1.15945e-08
0.00840007
3.29295e-08
0.00840012
6.27789e-08
0.00840023
1.7837e-07
0.00840053
3.39248e-07
0.00840113
9.6738e-07
0.00840275
1.83017e-06
0.00840611
5.28914e-06
0.00841503
9.88381e-06
0.00843536
2.94489e-05
5.68076e-05
0.00848869
0.00840003
9.71697e-15
0.00840003
5.7214e-14
0.00840003
2.08697e-13
0.00840003
5.42111e-13
0.00840003
1.45691e-12
0.00840003
3.33487e-12
0.00840003
8.39387e-12
0.00840003
1.86567e-11
0.00840003
4.6187e-11
0.00840003
1.01883e-10
0.00840003
2.5112e-10
0.00840003
5.52742e-10
0.00840003
1.36084e-09
0.00840004
2.99271e-09
0.00840004
7.36744e-09
0.00840006
1.61887e-08
0.00840008
3.98805e-08
0.00840017
8.7518e-08
0.00840029
2.16013e-07
0.00840079
4.73294e-07
0.00840145
1.17394e-06
0.00840419
2.5675e-06
0.00840766
6.43161e-06
0.00842299
1.4208e-05
3.6107e-05
0.00844381
0.00840003
5.85721e-15
0.00840003
3.18172e-14
0.00840003
1.17543e-13
0.00840003
3.03566e-13
0.00840003
8.15209e-13
0.00840003
1.86509e-12
0.00840003
4.67624e-12
0.00840003
1.03918e-11
0.00840003
2.55944e-11
0.00840003
5.64472e-11
0.00840003
1.38312e-10
0.00840003
3.04368e-10
0.00840003
7.44381e-10
0.00840003
1.6367e-09
0.00840004
3.99855e-09
0.00840004
8.78633e-09
0.00840006
2.14491e-08
0.0084001
4.70872e-08
0.0084002
1.14929e-07
0.00840043
2.51874e-07
0.00840099
6.15783e-07
0.00840221
1.34646e-06
0.00840534
3.3143e-06
0.00841235
7.22291e-06
1.81557e-05
0.00843032
0.00840003
4.13246e-15
0.00840003
1.4666e-14
0.00840003
7.02362e-14
0.00840003
1.47072e-13
0.00840003
4.78587e-13
0.00840003
9.07762e-13
0.00840003
2.7192e-12
0.00840003
5.03409e-12
0.00840003
1.47652e-11
0.00840003
2.71046e-11
0.00840003
7.91283e-11
0.00840003
1.44537e-10
0.00840003
4.21961e-10
0.00840003
7.67327e-10
0.00840003
2.24349e-09
0.00840004
4.05989e-09
0.00840005
1.18965e-08
0.00840007
2.14003e-08
0.00840013
6.29106e-08
0.00840027
1.12244e-07
0.00840055
3.31856e-07
0.00840131
5.84885e-07
0.00840287
1.75013e-06
0.00840707
3.02174e-06
9.37322e-06
0.0084158
0.00840003
1.22642e-15
0.00840003
9.56258e-15
0.00840003
2.98583e-14
0.00840003
8.66057e-14
0.00840003
2.08895e-13
0.00840003
5.25398e-13
0.00840003
1.18892e-12
0.00840003
2.87718e-12
0.00840003
6.40262e-12
0.00840003
1.52854e-11
0.00840003
3.38792e-11
0.00840003
8.02972e-11
0.00840003
1.77897e-10
0.00840003
4.19024e-10
0.00840003
9.29058e-10
0.00840003
2.17348e-09
0.00840004
4.82581e-09
0.00840005
1.11984e-08
0.00840009
2.49144e-08
0.00840014
5.72436e-08
0.00840034
1.27729e-07
0.00840063
2.89975e-07
0.00840171
6.50174e-07
0.00840319
1.45717e-06
3.30834e-06
0.00840917
0.00840003
6.1832e-16
0.00840003
4.87826e-15
0.00840003
1.51949e-14
0.00840003
4.48916e-14
0.00840003
1.06114e-13
0.00840003
2.69193e-13
0.00840003
5.98937e-13
0.00840003
1.46038e-12
0.00840003
3.19186e-12
0.00840003
7.69173e-12
0.00840003
1.66843e-11
0.00840003
4.00513e-11
0.00840003
8.64226e-11
0.00840003
2.07275e-10
0.00840003
4.44879e-10
0.00840003
1.06807e-09
0.00840003
2.27915e-09
0.00840004
5.48639e-09
0.00840005
1.16456e-08
0.00840008
2.81105e-08
0.00840014
5.94641e-08
0.00840027
1.43686e-07
0.00840061
3.00769e-07
0.00840121
7.2026e-07
1.487e-06
0.0084029
0.00840003
1.2284e-16
0.00840003
3.40426e-15
0.00840003
5.32257e-15
0.00840003
2.91685e-14
0.00840003
3.76495e-14
0.00840003
1.73676e-13
0.00840003
2.10602e-13
0.00840003
9.50223e-13
0.00840003
1.10058e-12
0.00840003
5.08527e-12
0.00840003
5.62165e-12
0.00840003
2.70677e-11
0.00840003
2.84842e-11
0.00840003
1.44071e-10
0.00840003
1.43958e-10
0.00840003
7.68872e-10
0.00840003
7.26925e-10
0.00840003
4.12574e-09
0.00840004
3.655e-09
0.00840005
2.23241e-08
0.00840009
1.75793e-08
0.00840009
1.24512e-07
0.0084003
6.79274e-08
0.00840017
7.35139e-07
8.6512e-08
0.00840138
0.00840003
3.35561e-16
0.00840003
-1.35878e-16
0.00840003
4.33188e-15
0.00840003
2.39099e-15
0.00840003
2.82331e-14
0.00840003
1.31512e-14
0.00840003
1.54381e-13
0.00840003
5.90301e-14
0.00840003
7.97504e-13
0.00840003
1.38644e-13
0.00840003
4.01369e-12
0.00840003
-3.83657e-13
0.00840003
1.97974e-11
0.00840003
-8.82189e-12
0.00840003
9.54437e-11
0.00840003
-9.1414e-11
0.00840003
4.45678e-10
0.00840004
-8.61103e-10
0.00840004
1.98465e-09
0.00840007
-6.79508e-09
0.00840007
8.91139e-09
0.00840023
-5.24089e-08
0.00840018
5.89582e-08
0.00840134
-4.18982e-07
6.1845e-07
0.0084003
0.00840003
9.35938e-17
0.00840003
1.81523e-16
0.00840003
9.13657e-16
0.00840003
5.11581e-16
0.00840003
6.39771e-15
0.00840003
-3.89201e-16
0.00840003
3.23157e-14
0.00840003
-1.99741e-14
0.00840003
1.47676e-13
0.00840003
-1.96303e-13
0.00840003
6.07162e-13
0.00840003
-1.73368e-12
0.00840003
2.09397e-12
0.00840003
-1.36462e-11
0.00840003
3.21183e-12
0.00840003
-1.01068e-10
0.00840003
-4.48965e-11
0.00840003
-7.1432e-10
0.00840003
-7.59416e-10
0.00840003
-4.84386e-09
0.00840004
-6.27824e-09
0.00839999
-3.19589e-08
0.00840005
-3.46384e-08
0.00839967
-2.04264e-07
-6.20801e-08
0.00840012
0.00840003
0.00840003
0.00840003
0.00840003
0.00840003
0.00840003
0.00840003
0.00840003
0.00840003
0.00840003
0.00840003
0.00840003
0.00840003
0.00840003
0.00840003
0.00840003
0.00840003
0.00840003
0.00840003
0.00840002
0.00840001
0.00839996
0.00839991
0.00839959
0.00839928
0.00471134
0.00411847
0.00308365
0.00162863
0.00239408
0.000690544
0.00211927
0.000275806
0.00209483
2.54824e-05
0.0022485
-0.000152624
0.00244312
-0.000193829
0.00255221
-0.000109149
0.00258072
-2.94361e-05
0.00253973
3.77444e-05
0.00246609
6.56104e-05
0.00236162
8.59947e-05
0.00219702
0.000126615
0.00182975
0.000269488
0.000988961
0.000674255
0.000249774
0.000713338
-0.000345674
0.000596527
-0.000890292
0.000534166
-0.00139099
0.000487599
-0.00179227
0.000408381
-0.00209371
0.000311639
-0.0023066
0.00021381
-0.00244415
0.000142193
-0.00254605
0.000109739
-0.00263686
9.67218e-05
-0.00271712
8.6665e-05
-0.00278262
7.07884e-05
-0.00283991
5.9764e-05
-0.0028895
5.26163e-05
-0.00292126
3.37675e-05
-0.00292819
7.78482e-06
-0.00290358
-2.82395e-05
-0.00282711
-8.34586e-05
-0.00268427
-0.00015232
-0.00247942
-0.000215368
-0.0022301
-0.000259594
-0.00195167
-0.000288234
-0.00165452
-0.000305466
-0.00134315
-0.000318346
-0.00102642
-0.000322442
-0.000711409
-0.000319708
-0.000397253
-0.000318099
-7.44992e-05
-0.000326174
0.000236662
-0.00031442
0.000524533
-0.000290934
0.000797218
-0.000275666
0.00105659
-0.000262382
0.00130169
-0.000248138
0.0015322
-0.000233861
0.00174892
-0.000219871
0.00195768
-0.000211317
0.00216081
-0.000205455
0.00235427
-0.000194741
0.00253558
-0.000182348
0.00270605