/*--------------------------------*- C++ -*----------------------------------*\
| =========                 |                                                 |
| \\      /  F ield         | OpenFOAM: The Open Source CFD Toolbox           |
|  \\    /   O peration     | Version:  2112                                  |
|   \\  /    A nd           | Website:  www.openfoam.com                      |
|    \\/     M anipulation  |                                                 |
\*---------------------------------------------------------------------------*/
FoamFile
{
    version     2.0;
    format      ascii;
    arch        "LSB;label=32;scalar=64";
    class       volScalarField;
    location    "4";
    object      T;
}
// * * * * * * * * * * * * * * * * * * * * * * * * * * * * * * * * * * * * * //

dimensions      [0 0 0 1 0 0 0];

internalField   nonuniform List<scalar> 
5250
(
1.00001
1.00002
1.00006
1.0001
1.00033
1.00061
1.00182
1.00373
1.00976
1.02496
1.0569
1.1725
1.39517
2.11526
2.62885
2.74707
2.74172
2.73587
2.75055
2.76261
2.77512
2.78327
2.79007
2.80039
2.80251
1.00001
1.00002
1.00006
1.0001
1.00033
1.0006
1.0018
1.00366
1.00962
1.02443
1.05588
1.16891
1.38698
2.09713
2.62336
2.74663
2.74123
2.73476
2.74935
2.76136
2.77352
2.78163
2.78853
2.79797
2.79956
1.00001
1.00002
1.00005
1.0001
1.00032
1.00058
1.00176
1.00352
1.00935
1.02331
1.05381
1.16131
1.36935
2.05623
2.60839
2.74397
2.73879
2.73112
2.74595
2.75804
2.77113
2.77801
2.78577
2.79547
2.79637
1.00001
1.00001
1.00005
1.00009
1.0003
1.00055
1.00169
1.00332
1.00897
1.0217
1.05085
1.15035
1.34384
1.99295
2.58431
2.73837
2.73375
2.72466
2.74134
2.75029
2.76545
2.77407
2.77928
2.79073
2.79239
1.00001
1.00001
1.00005
1.00009
1.00029
1.00052
1.00161
1.00308
1.00851
1.01978
1.04734
1.13726
1.31329
1.91545
2.54855
2.72664
2.72199
2.71278
2.73176
2.74443
2.75464
2.76623
2.77338
2.78162
2.78313
1.00001
1.00001
1.00005
1.00008
1.00027
1.00048
1.00151
1.00284
1.00803
1.01792
1.04413
1.12476
1.28593
1.77968
2.5591
2.71226
2.70397
2.69524
2.7117
2.72927
2.74425
2.75106
2.75876
2.7721
2.77406
1.00001
1.00001
1.00004
1.00008
1.00025
1.00045
1.00141
1.00262
1.00764
1.01632
1.04154
1.11288
1.26234
1.71523
2.55487
2.69904
2.6883
2.68473
2.70297
2.71159
2.72851
2.73913
2.74568
2.75235
2.75402
1.00001
1.00001
1.00004
1.00007
1.00023
1.00042
1.00132
1.00242
1.00726
1.01482
1.03918
1.10126
1.24079
1.66739
2.5337
2.67921
2.66498
2.66813
2.67913
2.6986
2.71002
2.71703
2.72188
2.73256
2.73047
1
1.00001
1.00004
1.00006
1.00021
1.00038
1.0012
1.00219
1.00666
1.01334
1.03588
1.09089
1.2163
1.6106
2.46927
2.65919
2.6638
2.65986
2.66092
2.67193
2.68997
2.69559
2.69445
2.69354
2.67728
1
1.00001
1.00003
1.00006
1.00018
1.00033
1.00102
1.00193
1.00557
1.012
1.03063
1.08365
1.18706
1.56389
2.39554
2.62165
2.65945
2.6484
2.64394
2.64908
2.65534
2.66456
2.65884
2.64298
2.59548
1
1.00001
1.00002
1.00006
1.00011
1.00031
1.00068
1.00168
1.0044
1.00988
1.02867
1.06003
1.19552
1.44243
2.18938
2.58755
2.66072
2.64718
2.62734
2.62638
2.62913
2.62683
2.61036
2.56239
2.37439
1
1.00001
1.00002
1.00004
1.00014
1.00025
1.00076
1.00148
1.00412
1.0092
1.02272
1.06289
1.13759
1.42474
2.10206
2.49884
2.64635
2.63777
2.61995
2.60487
2.5941
2.58556
2.56014
2.50129
2.30797
1
1.00001
1.00002
1.00004
1.00012
1.00022
1.00069
1.00126
1.00391
1.00745
1.02127
1.0479
1.11974
1.32212
1.93396
2.41899
2.61335
2.61078
2.60576
2.59277
2.57445
2.54206
2.5081
2.45169
2.30325
1
1
1.00002
1.00003
1.0001
1.00018
1.00058
1.00105
1.00327
1.00616
1.01788
1.03851
1.09982
1.25345
1.74771
2.35642
2.57839
2.57268
2.57353
2.56832
2.55387
2.52169
2.46553
2.41735
2.30737
1
1
1.00001
1.00003
1.00008
1.00015
1.00046
1.00084
1.00255
1.00501
1.01348
1.03277
1.07594
1.22246
1.5409
2.27186
2.54404
2.55477
2.54676
2.53899
2.52691
2.50114
2.43987
2.38143
2.30298
1
1
1.00001
1.00002
1.00007
1.00012
1.00037
1.00067
1.00201
1.00403
1.01064
1.02644
1.06075
1.18189
1.41563
2.0893
2.47233
2.54301
2.52666
2.51751
2.4969
2.4803
2.43522
2.36615
2.29169
1
1
1.00001
1.00002
1.00005
1.00009
1.0003
1.00053
1.00166
1.00315
1.00877
1.01998
1.04815
1.13837
1.31496
1.89847
2.35504
2.51607
2.51187
2.4987
2.47229
2.4388
2.41387
2.35962
2.28976
1
1
1.00001
1.00001
1.00004
1.00007
1.00023
1.00041
1.0013
1.00238
1.00707
1.01453
1.03768
1.09725
1.22828
1.59886
2.25012
2.45294
2.47798
2.47638
2.46121
2.42607
2.38879
2.34544
2.28608
1
1
1.00001
1.00001
1.00003
1.00005
1.00017
1.00031
1.00096
1.0018
1.00517
1.01104
1.02794
1.07539
1.16579
1.49819
2.18197
2.39076
2.43585
2.43027
2.42523
2.40797
2.3726
2.32891
2.2765
1
1
1
1.00001
1.00002
1.00005
1.00009
1.00029
1.00055
1.00152
1.00334
1.00819
1.02193
1.04851
1.14564
1.32639
1.91862
2.32103
2.41991
2.41547
2.39913
2.38185
2.35679
2.31981
2.27213
1
1
1
1.00001
1.00001
1.00004
1.00007
1.00023
1.00041
1.00128
1.00237
1.00706
1.01428
1.03744
1.09251
1.2279
1.56801
2.19948
2.37998
2.38359
2.37472
2.35217
2.32317
2.29635
2.26284
1
1
1
1
1.00001
1.00002
1.00007
1.00012
1.00038
1.00071
1.00206
1.00422
1.01099
1.0271
1.0626
1.1743
1.43591
1.98519
2.31551
2.36676
2.36027
2.3421
2.30941
2.27464
2.24126
1
1
1
1
1.00001
1.00002
1.00004
1.00012
1.00022
1.00066
1.00125
1.00369
1.0074
1.01979
1.04769
1.11282
1.30699
1.84228
2.17116
2.31467
2.32651
2.31925
2.3015
2.26811
2.23081
1
1
1
1
1.00001
1.00001
1.00003
1.00006
1.0002
1.00036
1.00109
1.00205
1.00587
1.01232
1.03143
1.08111
1.18474
1.50282
2.08351
2.26041
2.2878
2.28444
2.27577
2.257
2.2253
1
1
1
1
1
1.00001
1.00002
1.00004
1.00014
1.00025
1.00078
1.00142
1.00424
1.00835
1.02215
1.05471
1.12362
1.35583
1.88905
2.17729
2.26635
2.26282
2.24998
2.23203
2.20557
1
1
1
1
1
1.00001
1.00002
1.00003
1.00009
1.00017
1.00053
1.00096
1.00291
1.00552
1.0157
1.03309
1.08699
1.20416
1.6142
1.99972
2.21524
2.24216
2.23736
2.22155
2.19634
1
1
1
1
1
1
1.00001
1.00003
1.00005
1.00014
1.00027
1.00079
1.00151
1.00419
1.00904
1.02224
1.05922
1.12746
1.38298
1.89898
2.12672
2.19581
2.20478
2.19883
2.18601
1
1
1
1
1
1
1.00001
1.00002
1.00003
1.0001
1.00018
1.00056
1.00101
1.00306
1.00573
1.01634
1.0344
1.08826
1.21255
1.60473
2.01085
2.17042
2.17813
2.17423
2.16132
1
1
1
1
1
1
1
1.00001
1.00002
1.00006
1.00012
1.00036
1.00065
1.00198
1.00371
1.01061
1.02227
1.05583
1.13962
1.35452
1.80221
2.10061
2.16102
2.15954
2.14815
1
1
1
1
1
1
1
1.00001
1.00002
1.00003
1.0001
1.00018
1.00053
1.00099
1.0029
1.00565
1.01542
1.03377
1.08473
1.20478
1.57024
1.94431
2.12204
2.13473
2.13149
1
1
1
1
1
1
1
1
1.00001
1.00002
1.00006
1.00011
1.00035
1.00063
1.00191
1.00353
1.01021
1.02096
1.05294
1.1315
1.32375
1.76381
2.0414
2.11204
2.1152
1
1
1
1
1
1
1
1
1.00001
1.00001
1.00004
1.00007
1.00021
1.00039
1.00116
1.00215
1.0062
1.01232
1.03265
1.07339
1.18719
1.43377
1.89869
2.06259
2.08065
1
1
1
1
1
1
1
1
1
1.00001
1.00002
1.00006
1.0001
1.0003
1.00057
1.00166
1.00318
1.00888
1.01882
1.04667
1.11544
1.28736
1.66347
1.97455
2.05898
1
1
1
1
1
1
1
1
1
1
1.00001
1.00003
1.00008
1.00015
1.00043
1.00081
1.00234
1.00458
1.01251
1.02635
1.06905
1.1548
1.4554
1.79582
2.00486
1
1
1
1
1
1
1
1
1
1
1.00001
1.00002
1.00005
1.00009
1.00027
1.00049
1.00148
1.0027
1.00786
1.01564
1.04027
1.09696
1.22844
1.56976
1.87429
1
1
1
1
1
1
1
1
1
1
1.00001
1.00001
1.00003
1.00005
1.00016
1.00029
1.00087
1.00158
1.00466
1.00893
1.02383
1.05546
1.12559
1.33767
1.74308
1
1
1
1
1
1
1
1
1
1
1
1.00001
1.00001
1.00004
1.00007
1.00021
1.00039
1.00113
1.00213
1.00588
1.0123
1.03034
1.07644
1.16698
1.45163
1
1
1
1
1
1
1
1
1
1
1
1
1.00001
1.00002
1.00004
1.00012
1.00023
1.00068
1.00123
1.00356
1.00702
1.01812
1.04388
1.09677
1.26982
1
1
1
1
1
1
1
1
1
1
1
1
1.00001
1.00001
1.00003
1.00006
1.00016
1.0003
1.00088
1.00166
1.00468
1.00945
1.02412
1.05769
1.13128
1
1
1
1
1
1
1
1
1
1
1
1
1
1.00001
1.00002
1.00003
1.0001
1.00017
1.00051
1.00093
1.00275
1.00514
1.01416
1.02986
1.0724
1
1
1
1
1
1
1
1
1
1
1
1
1
1
1.00001
1.00002
1.00005
1.0001
1.00029
1.00053
1.00154
1.00288
1.00808
1.01631
1.04177
1
1
1
1
1
1
1
1
1
1
1
1
1
1
1
1.00001
1.00002
1.00007
1.00013
1.00037
1.00069
1.00194
1.00377
1.01018
1.02112
1
1
1
1
1
1
1
1
1
1
1
1
1
1
1
1.00001
1.00001
1.00004
1.00007
1.00021
1.00038
1.00111
1.00204
1.00576
1.01129
1
1
1
1
1
1
1
1
1
1
1
1
1
1
1
1
1.00001
1.00002
1.00004
1.00012
1.00022
1.00065
1.00119
1.00344
1.00652
1
1
1
1
1
1
1
1
1
1
1
1
1
1
1
1
1.00001
1.00001
1.00003
1.00006
1.00019
1.00034
1.00102
1.00189
1.00547
1
1
1
1
1
1
1
1
1
1
1
1
1
1
1
1
1
1.00001
1.00003
1.00005
1.00015
1.00028
1.00086
1.00155
1.00475
1
1
1
1
1
1
1
1
1
1
1
1
1
1
1
1
1
1.00001
1.00002
1.00004
1.00013
1.00025
1.00075
1.00145
1.00407
1
1
1
1
1
1
1
1
1
1
1
1
1
1
1
1
1
1.00001
1.00002
1.00005
1.00009
1.00026
1.00056
1.0014
1.00363
1
1
1
1
1
1
1
1
1
1
1
1
1
1
1
1
1
1.00001
1.00002
1.00004
1.00013
1.00023
1.00072
1.0014
1.00392
1
1
1
1
1
1
1
1
1
1
1
1
1
1
1
1
1
1.00001
1.00002
1.00004
1.00013
1.00024
1.00076
1.00141
1.00421
2.34471
2.24905
2.24962
2.29158
2.37668
2.43763
2.48925
2.51829
2.52714
2.53414
2.55432
2.60389
2.71033
2.90071
3.09104
3.18413
3.20855
3.18785
3.08995
3.04436
3.03504
3.01945
2.99601
2.98695
2.97535
2.96072
2.95217
2.94049
2.93407
2.92992
2.93117
2.93834
2.95255
2.97343
2.99366
3.01305
3.02619
3.03535
3.03987
3.04191
3.03979
3.03926
3.03084
3.02858
3.01545
3.00966
2.99656
2.99005
2.97654
2.96993
2.95645
2.94869
2.93478
2.92545
2.91305
2.90405
2.89064
2.8807
2.86705
2.8572
2.8435
2.83367
2.82029
2.81066
2.79743
2.78813
2.77507
2.76608
2.75333
2.74444
2.73207
2.7234
2.71119
2.70296
2.69077
2.68304
2.67091
2.66354
2.65165
2.6445
2.63292
2.62597
2.61462
2.60784
2.59677
2.59004
2.57925
2.57259
2.56202
2.55546
2.54515
2.53878
2.52877
2.52278
2.51319
2.50779
2.49911
2.49534
2.48944
2.49019
2.20611
2.13104
2.08858
2.0671
2.03722
2.0107
1.99861
2.00176
2.01523
2.04429
2.07802
2.1285
2.22086
2.4069
2.70446
2.8808
2.9916
3.08275
3.12254
3.14387
3.15613
3.173
3.18654
3.191
3.18874
3.18568
3.18446
3.17937
3.17688
3.18163
3.18945
3.19245
3.19525
3.19295
3.17704
3.16143
3.14238
3.12144
3.09302
3.07449
3.03582
3.01559
2.97969
2.95837
2.92664
2.90628
2.88021
2.86037
2.83708
2.81976
2.79864
2.78116
2.7606
2.74445
2.72567
2.71023
2.69269
2.67864
2.66217
2.64907
2.6332
2.62076
2.60542
2.59347
2.57868
2.56721
2.55294
2.54194
2.52817
2.51763
2.50426
2.49416
2.48104
2.47137
2.45846
2.44916
2.43652
2.42754
2.41521
2.40657
2.3945
2.38619
2.37438
2.36628
2.3548
2.34679
2.33563
2.32769
2.31683
2.30899
2.29834
2.29063
2.28015
2.27272
2.26251
2.25578
2.24642
2.24127
2.2346
2.23328
2.19805
2.11845
2.04589
1.97298
1.90633
1.85644
1.83119
1.83059
1.83567
1.85105
1.87252
1.91758
1.97803
2.13215
2.32258
2.5195
2.66511
2.752
2.83496
2.90629
2.98713
3.05219
3.10411
3.15328
3.19437
3.22474
3.24982
3.27364
3.29103
3.31442
3.3239
3.32449
3.31136
3.27494
3.2176
3.16656
3.11433
3.05584
3.00858
2.96059
2.92164
2.88597
2.85311
2.82477
2.79799
2.77582
2.7533
2.73496
2.71618
2.70072
2.68464
2.66962
2.65351
2.63922
2.62442
2.61103
2.59705
2.58412
2.57088
2.55852
2.54559
2.53354
2.52077
2.50882
2.49634
2.48448
2.47234
2.46069
2.44887
2.43767
2.42611
2.41545
2.40408
2.39385
2.38263
2.37268
2.36168
2.35193
2.34121
2.33165
2.32131
2.31185
2.30195
2.29253
2.283
2.27364
2.26422
2.25503
2.24552
2.23661
2.22701
2.21847
2.20892
2.20078
2.1915
2.18393
2.1754
2.16908
2.16292
2.16011
2.19836
2.10912
2.0301
1.95865
1.8944
1.8425
1.80128
1.7736
1.76197
1.76271
1.76914
1.78768
1.82847
1.9428
2.07426
2.3041
2.46022
2.49307
2.53392
2.63293
2.70412
2.74781
2.82501
2.90811
2.97743
3.04603
3.11603
3.17132
3.21359
3.24568
3.2613
3.24498
3.20034
3.13301
3.05303
2.98102
2.91008
2.85606
2.80571
2.76733
2.73405
2.70847
2.6847
2.66519
2.64601
2.62941
2.61313
2.59908
2.5848
2.57267
2.56079
2.54988
2.53726
2.52568
2.51371
2.50319
2.49184
2.48155
2.47051
2.46034
2.4496
2.43973
2.42922
2.41963
2.40913
2.39942
2.38856
2.37862
2.36751
2.35782
2.34679
2.33769
2.32683
2.3181
2.30736
2.29871
2.28807
2.27943
2.26898
2.2604
2.25019
2.24169
2.23169
2.22331
2.21343
2.20524
2.1955
2.18754
2.17798
2.17013
2.1607
2.15289
2.14356
2.13593
2.12679
2.11969
2.11119
2.10534
2.09906
2.09674
2.20572
2.11419
2.0352
1.96531
1.90224
1.84615
1.79921
1.75773
1.72974
1.71251
1.71304
1.72049
1.74175
1.78991
1.9302
2.0765
2.26747
2.36376
2.40422
2.43702
2.47116
2.52713
2.5897
2.62927
2.68434
2.75496
2.82014
2.87866
2.94251
2.98856
3.00054
2.98543
2.94025
2.86794
2.79882
2.73467
2.68517
2.64962
2.62457
2.60675
2.59233
2.5806
2.56874
2.55927
2.5485
2.5402
2.53067
2.52303
2.51391
2.50629
2.49762
2.48939
2.4793
2.46918
2.45878
2.44941
2.43947
2.43015
2.42003
2.41043
2.4004
2.39071
2.38104
2.37169
2.36243
2.35319
2.34339
2.33358
2.32315
2.31319
2.30301
2.29351
2.28402
2.27495
2.26574
2.25666
2.24726
2.23804
2.22854
2.21946
2.21016
2.20134
2.1922
2.18339
2.17423
2.16529
2.15608
2.14719
2.13811
2.12963
2.12086
2.11292
2.10442
2.09691
2.0886
2.08155
2.07367
2.06768
2.06162
2.05908
2.21091
2.12868
2.0527
1.98209
1.91942
1.86329
1.81233
1.7709
1.73353
1.70799
1.68857
1.68799
1.6949
1.71782
1.77427
1.9132
2.12019
2.22479
2.27909
2.33254
2.35796
2.37521
2.40772
2.45296
2.49815
2.53289
2.58367
2.63041
2.68439
2.72756
2.74452
2.73544
2.69601
2.64181
2.59183
2.54952
2.51773
2.50153
2.49489
2.49174
2.48908
2.48425
2.47898
2.47392
2.46846
2.46332
2.45724
2.45106
2.44353
2.43631
2.42829
2.42082
2.41197
2.40287
2.39273
2.38387
2.3746
2.36633
2.35725
2.34856
2.33874
2.32926
2.31925
2.30987
2.3002
2.29118
2.2819
2.27316
2.26383
2.255
2.24543
2.23655
2.22701
2.21836
2.20905
2.20071
2.1914
2.18312
2.17357
2.16509
2.1554
2.14691
2.13755
2.12941
2.12041
2.11262
2.10369
2.09592
2.0869
2.07892
2.06997
2.06201
2.05334
2.0458
2.03746
2.03055
2.02266
2.01669
2.01049
2.00772
2.2132
2.13959
2.06645
2.00083
1.93928
1.88321
1.8341
1.78719
1.7498
1.71395
1.68944
1.66956
1.66972
1.67742
1.7037
1.7699
1.91282
2.12442
2.19828
2.22255
2.26234
2.293
2.31425
2.32858
2.36075
2.39536
2.4389
2.47074
2.51991
2.56955
2.58983
2.58353
2.55019
2.50982
2.46585
2.43227
2.40639
2.39368
2.38943
2.3926
2.39848
2.39988
2.40206
2.401
2.39874
2.3966
2.39259
2.38913
2.38362
2.37929
2.37326
2.36822
2.36157
2.35522
2.3472
2.34018
2.33289
2.32649
2.31893
2.31149
2.30278
2.29435
2.28521
2.27664
2.26793
2.25992
2.25192
2.24432
2.2364
2.2286
2.22003
2.21175
2.20252
2.19398
2.18468
2.17618
2.16726
2.15876
2.15007
2.14151
2.1328
2.12422
2.11545
2.10702
2.09849
2.09031
2.08218
2.07419
2.06622
2.05829
2.05013
2.04222
2.0338
2.02608
2.0177
2.01044
2.00259
1.99634
1.99016
1.98724
2.21894
2.14888
2.08337
2.0188
1.95991
1.90555
1.85463
1.81067
1.76781
1.73368
1.70059
1.67771
1.65981
1.6608
1.67036
1.69934
1.778
1.90953
2.10128
2.17523
2.18506
2.20586
2.24109
2.26022
2.27816
2.29753
2.33517
2.38226
2.43264
2.48727
2.50618
2.49641
2.46708
2.42734
2.38597
2.34965
2.32899
2.3143
2.30927
2.3109
2.3199
2.33192
2.33962
2.34365
2.34689
2.34644
2.34578
2.3447
2.34243
2.34056
2.33673
2.33331
2.32749
2.32221
2.31469
2.30774
2.29997
2.29343
2.28588
2.2787
2.27004
2.2616
2.25215
2.24356
2.2344
2.22669
2.2182
2.2111
2.20256
2.19489
2.18563
2.1769
2.16712
2.15798
2.14835
2.13956
2.13033
2.1221
2.1133
2.10525
2.09652
2.08822
2.07933
2.07081
2.06175
2.05342
2.04436
2.03654
2.02765
2.02027
2.01167
2.00445
1.99616
1.98895
1.98099
1.97396
1.96645
1.96022
1.95408
1.95111
2.21827
2.15687
2.0945
2.03643
1.97984
1.9267
1.87909
1.83207
1.79302
1.75321
1.72209
1.69126
1.66975
1.65463
1.65616
1.66744
1.69841
1.79164
1.90645
2.0758
2.14712
2.15659
2.17118
2.19608
2.22507
2.24451
2.27124
2.32634
2.39978
2.45748
2.4678
2.45315
2.42138
2.38371
2.33576
2.29986
2.27423
2.26322
2.2554
2.25403
2.25792
2.26852
2.28038
2.28949
2.29611
2.2988
2.30112
2.30062
2.29907
2.29723
2.29363
2.29012
2.28472
2.2794
2.27279
2.2663
2.25936
2.25335
2.24676
2.24056
2.23283
2.22536
2.21628
2.20823
2.19908
2.19142
2.1829
2.17575
2.16765
2.16051
2.1522
2.14457
2.13579
2.12772
2.11869
2.1105
2.10164
2.09363
2.08501
2.07717
2.06864
2.06087
2.05223
2.04441
2.03568
2.02781
2.0192
2.01134
2.00306
1.99527
1.98726
1.97956
1.97155
1.96402
1.95585
1.94864
1.94057
1.93414
1.92751
1.92421
2.21777
2.16104
2.10384
2.04783
1.9952
1.94533
1.89716
1.85553
1.81222
1.77766
1.74085
1.71251
1.68405
1.66385
1.65211
1.65419
1.66699
1.69926
1.80108
1.90302
2.05467
2.11918
2.13419
2.14611
2.17075
2.20863
2.2471
2.31704
2.40106
2.44999
2.45125
2.434
2.39946
2.35724
2.30912
2.27142
2.24516
2.22808
2.21846
2.2137
2.21135
2.21491
2.22407
2.23519
2.24503
2.25236
2.25651
2.25864
2.25963
2.25843
2.25596
2.2531
2.24859
2.24435
2.23847
2.23336
2.22702
2.22176
2.2153
2.20935
2.20193
2.1948
2.18636
2.17858
2.16993
2.16238
2.15413
2.14702
2.13903
2.13195
2.12376
2.11627
2.10759
2.09952
2.0905
2.0822
2.07314
2.06487
2.05597
2.04792
2.03932
2.03153
2.02323
2.01555
2.00742
1.99968
1.99154
1.98378
1.9756
1.96801
1.95987
1.95259
1.94458
1.93755
1.92975
1.9228
1.91537
1.90871
1.90255
1.89856
2.21579
2.16474
2.11334
2.06013
2.00962
1.9608
1.91564
1.87155
1.83353
1.79399
1.76233
1.72848
1.70221
1.67632
1.65697
1.64861
1.65162
1.66557
1.69892
1.80153
1.90296
2.03252
2.09275
2.11952
2.13799
2.17526
2.24562
2.33987
2.42782
2.4539
2.44799
2.42328
2.38953
2.34024
2.29477
2.2583
2.22974
2.20619
2.19219
2.18133
2.178
2.17324
2.17507
2.18202
2.19125
2.20204
2.21078
2.2171
2.22047
2.22151
2.21961
2.21708
2.21305
2.20943
2.20438
2.19959
2.19343
2.18771
2.18109
2.17494
2.16764
2.16076
2.15275
2.14542
2.13719
2.12982
2.12162
2.11425
2.106
2.09868
2.09042
2.08314
2.07477
2.0674
2.05889
2.05125
2.04258
2.03467
2.02595
2.01792
2.00939
2.00146
1.99327
1.9856
1.97766
1.97022
1.96234
1.95501
1.94706
1.93977
1.93186
1.92462
1.91695
1.90987
1.90256
1.89578
1.88891
1.88283
1.8771
1.87391
2.20658
2.16364
2.11659
2.07103
2.02304
1.97823
1.93332
1.89231
1.85167
1.81596
1.77981
1.74936
1.71844
1.69277
1.66936
1.65053
1.64565
1.64917
1.66348
1.69861
1.79858
1.90809
2.01239
2.07395
2.11888
2.16724
2.26239
2.38441
2.45607
2.4599
2.44811
2.41833
2.37624
2.3281
2.28523
2.24845
2.21867
2.19343
2.1755
2.16131
2.15268
2.14663
2.14284
2.1395
2.14482
2.15335
2.16383
2.17257
2.17919
2.18094
2.1804
2.17767
2.17372
2.17022
2.16593
2.16161
2.15552
2.14907
2.1415
2.13465
2.12704
2.12016
2.11252
2.10558
2.09801
2.09115
2.08358
2.07659
2.06865
2.06137
2.05314
2.04583
2.03778
2.03069
2.02283
2.01573
2.00791
2.00066
1.99282
1.98545
1.97761
1.97023
1.9625
1.95528
1.94774
1.94077
1.93336
1.92654
1.91914
1.91237
1.90491
1.89821
1.89073
1.88426
1.87689
1.87089
1.86387
1.85873
1.85301
1.85071
2.19293
2.1546
2.11498
2.07289
2.03106
1.9891
1.94885
1.90936
1.87196
1.83584
1.80215
1.76995
1.74032
1.71301
1.68712
1.66702
1.64824
1.6459
1.65055
1.66688
1.70485
1.80119
1.92099
2.01205
2.09111
2.17657
2.31028
2.42793
2.46703
2.46516
2.4487
2.41337
2.36481
2.3187
2.28004
2.24586
2.21686
2.19111
2.17025
2.15129
2.13753
2.12422
2.11588
2.10784
2.10344
2.10399
2.10916
2.11781
2.12477
2.12957
2.13001
2.12963
2.12679
2.12424
2.12066
2.11753
2.11267
2.10729
2.10014
2.09374
2.08686
2.08102
2.07444
2.06842
2.06142
2.05498
2.04767
2.04108
2.03356
2.0267
2.01885
2.01191
2.00414
1.99735
1.98982
1.98312
1.97573
1.969
1.96171
1.955
1.94782
1.94117
1.93404
1.9275
1.92042
1.91405
1.90702
1.90083
1.89382
1.88771
1.88068
1.87461
1.86759
1.86165
1.85477
1.84921
1.84275
1.838
1.83287
1.83061
2.19004
2.15185
2.11362
2.07397
2.03494
1.99488
1.95758
1.91949
1.88504
1.84977
1.8183
1.78606
1.75813
1.72898
1.70542
1.68021
1.66196
1.64674
1.6467
1.65294
1.67217
1.71603
1.81353
1.94912
2.06248
2.20643
2.38133
2.47895
2.48231
2.47238
2.4443
2.40438
2.36165
2.32179
2.28498
2.25111
2.22035
2.19365
2.16793
2.14552
2.12259
2.10474
2.08646
2.07568
2.06429
2.06021
2.05645
2.05872
2.06493
2.07078
2.07665
2.07885
2.08022
2.07915
2.07667
2.0743
2.07093
2.0677
2.06243
2.05712
2.0509
2.04566
2.03974
2.0346
2.02833
2.02257
2.01558
2.00943
2.00229
1.99621
1.98921
1.98311
1.97598
1.96972
1.96256
1.95627
1.94919
1.94284
1.93579
1.92932
1.92226
1.91571
1.90863
1.9021
1.89499
1.88859
1.88158
1.87544
1.86865
1.86283
1.85627
1.85077
1.8444
1.83922
1.83306
1.82827
1.82259
1.81845
1.81384
1.81194
2.18006
2.14892
2.11265
2.07725
2.04009
2.00301
1.96605
1.93063
1.89569
1.86307
1.83077
1.8012
1.7717
1.74495
1.71911
1.69516
1.67432
1.65547
1.64729
1.64906
1.65946
1.68588
1.74672
1.85996
2.03812
2.2478
2.45061
2.49887
2.49527
2.47934
2.44579
2.40489
2.36342
2.32642
2.2883
2.25496
2.22144
2.19023
2.15902
2.12967
2.10238
2.07771
2.0574
2.04067
2.02811
2.01888
2.01145
2.0092
2.00984
2.0147
2.02325
2.02946
2.03584
2.03768
2.03832
2.03689
2.0342
2.0325
2.02958
2.02651
2.02148
2.01679
2.01098
2.00604
2.00011
1.99508
1.9888
1.98332
1.97658
1.97083
1.96403
1.95818
1.95136
1.9453
1.93844
1.93221
1.92542
1.91917
1.9125
1.9063
1.89967
1.89352
1.88684
1.88075
1.87398
1.86799
1.86121
1.8554
1.8487
1.84315
1.83662
1.83138
1.82514
1.82032
1.81452
1.81032
1.80495
1.80143
1.79755
1.79615
2.16756
2.14006
2.10902
2.07553
2.04197
2.00837
1.97256
1.93991
1.90502
1.8745
1.84177
1.81407
1.78373
1.75911
1.73129
1.70987
1.68542
1.66883
1.65372
1.65424
1.66214
1.68063
1.72769
1.82019
2.02615
2.26877
2.49403
2.52322
2.51288
2.48986
2.4457
2.39467
2.35067
2.30952
2.27471
2.23929
2.20526
2.1689
2.13533
2.10373
2.07702
2.05227
2.03197
2.01303
1.99981
1.98693
1.98015
1.97344
1.97204
1.97167
1.97538
1.98222
1.98991
1.99562
2.0007
2.00226
2.00277
2.00163
1.99988
1.9982
1.9948
1.99097
1.98564
1.98104
1.97532
1.97037
1.9643
1.95896
1.9526
1.947
1.94044
1.93456
1.92789
1.92182
1.91519
1.90906
1.90257
1.89647
1.89008
1.88407
1.87772
1.87188
1.86549
1.85983
1.85331
1.84775
1.84114
1.83567
1.82917
1.82395
1.81782
1.81308
1.80749
1.80345
1.7984
1.79495
1.79056
1.78826
1.78579
1.78546
2.15981
2.13388
2.10603
2.0752
2.04222
2.01173
1.97836
1.94687
1.91447
1.88397
1.85302
1.82542
1.7956
1.77157
1.74379
1.72272
1.69851
1.68169
1.66769
1.66837
1.6763
1.69509
1.74051
1.82319
2.00469
2.20858
2.42413
2.46428
2.45139
2.42959
2.38844
2.34493
2.30641
2.27072
2.23643
2.20384
2.17198
2.14211
2.11351
2.08712
2.06135
2.03871
2.01737
1.99949
1.98217
1.96862
1.957
1.94954
1.9427
1.94002
1.93833
1.93989
1.9442
1.95238
1.95863
1.96502
1.96816
1.96989
1.96923
1.96796
1.96566
1.96341
1.95908
1.95488
1.94975
1.94518
1.93975
1.93479
1.92906
1.92378
1.91791
1.91254
1.9067
1.90127
1.8954
1.88984
1.88388
1.87825
1.87221
1.8666
1.86043
1.85484
1.84855
1.84304
1.83672
1.83134
1.82512
1.81998
1.81401
1.80933
1.80384
1.79989
1.79504
1.79171
1.78734
1.78488
1.78193
1.78072
1.78071
1.78024
2.14188
2.11854
2.09513
2.07091
2.04169
2.01111
1.98292
1.95126
1.92212
1.89241
1.86255
1.83598
1.80708
1.78276
1.7567
1.73479
1.71301
1.6964
1.6888
1.69315
1.70477
1.731
1.78478
1.89462
2.01826
2.14277
2.28605
2.37175
2.38718
2.376
2.36129
2.33011
2.2893
2.25193
2.21905
2.18971
2.16088
2.13403
2.10676
2.0807
2.05467
2.03151
2.00945
1.98979
1.97034
1.95393
1.93917
1.92833
1.91966
1.91331
1.90874
1.90821
1.90801
1.9117
1.91731
1.92527
1.93112
1.93644
1.93826
1.93968
1.93844
1.93743
1.93528
1.93233
1.92757
1.92296
1.91785
1.91318
1.90797
1.90311
1.89765
1.89253
1.88685
1.88151
1.87568
1.87023
1.8643
1.85887
1.85288
1.84753
1.84153
1.83624
1.83028
1.82507
1.81925
1.81427
1.8087
1.80416
1.79896
1.79519
1.79059
1.78747
1.78353
1.78099
1.77847
1.77721
1.77692
1.77785
1.78024
1.77907
2.13198
2.109
2.08488
2.0627
2.03923
2.01033
1.98288
1.9555
1.92597
1.89977
1.87017
1.84448
1.81728
1.79239
1.76851
1.74622
1.72785
1.71601
1.71635
1.72551
1.74632
1.7878
1.87831
1.97058
2.0434
2.09558
2.16613
2.2626
2.31689
2.33159
2.32334
2.31076
2.28288
2.2481
2.21428
2.18376
2.15536
2.12861
2.10201
2.07574
2.05051
2.02737
2.00577
1.9846
1.96473
1.94548
1.92935
1.91497
1.9038
1.89362
1.88631
1.87997
1.87775
1.8771
1.8786
1.88323
1.89015
1.8963
1.9022
1.90521
1.90698
1.90661
1.90548
1.9041
1.90126
1.89741
1.89259
1.88807
1.88302
1.87837
1.87319
1.8685
1.86319
1.85844
1.853
1.84817
1.84264
1.83777
1.83225
1.82747
1.822
1.81735
1.81184
1.80745
1.80188
1.79793
1.79263
1.78922
1.7848
1.7819
1.77837
1.77584
1.77366
1.77239
1.7723
1.77321
1.77522
1.77661
1.78289
1.78243
2.11555
2.0938
2.07216
2.04745
2.02911
2.0065
1.9817
1.95583
1.93004
1.9035
1.87832
1.85169
1.82728
1.80233
1.78054
1.7599
1.74668
1.74409
1.75234
1.7702
1.80774
1.88381
1.97265
2.03171
2.05334
2.07182
2.09797
2.14739
2.21295
2.26308
2.28584
2.28117
2.26858
2.24691
2.21588
2.18413
2.1548
2.12675
2.09992
2.0725
2.04782
2.0239
2.00263
1.9801
1.95944
1.93874
1.92163
1.90437
1.89051
1.87672
1.86671
1.85711
1.85095
1.84642
1.84575
1.84544
1.84828
1.85318
1.86043
1.86632
1.87136
1.87368
1.87503
1.8743
1.87313
1.87136
1.86776
1.86361
1.85857
1.85414
1.849
1.84458
1.83942
1.83497
1.8298
1.82525
1.82002
1.81548
1.81013
1.80593
1.80053
1.79684
1.79157
1.78825
1.7835
1.7804
1.7766
1.77392
1.7709
1.76855
1.76659
1.76547
1.76552
1.76652
1.76846
1.77014
1.77481
1.77874
1.78769
1.78953
2.10746
2.08899
2.06519
2.03943
2.01698
1.99513
1.97445
1.95244
1.92915
1.90562
1.88088
1.8586
1.83431
1.81322
1.79289
1.7793
1.77494
1.78289
1.79935
1.83693
1.9022
1.99247
2.04626
2.0633
2.06081
2.05818
2.06069
2.07566
2.11411
2.1649
2.21534
2.24219
2.24223
2.23094
2.21561
2.18724
2.15691
2.12649
2.09752
2.06909
2.04364
2.02065
1.99814
1.97558
1.95323
1.93293
1.91339
1.89585
1.87827
1.86338
1.84922
1.83852
1.82847
1.82094
1.81539
1.81324
1.81274
1.81403
1.81838
1.82465
1.83134
1.83694
1.8409
1.84308
1.84308
1.84255
1.84104
1.83875
1.83435
1.83021
1.82541
1.82109
1.81635
1.81219
1.80742
1.8035
1.79851
1.79484
1.78969
1.78618
1.78125
1.77789
1.7736
1.77054
1.7672
1.76478
1.76238
1.76037
1.75874
1.75787
1.75812
1.75916
1.7614
1.76325
1.76793
1.77261
1.77977
1.78513
1.79357
1.79558
2.08588
2.0754
2.05964
2.03506
2.01275
1.99023
1.96796
1.94629
1.924
1.90307
1.88122
1.85913
1.83959
1.81986
1.80689
1.80269
1.81135
1.82752
1.86394
1.92648
2.01578
2.07082
2.08283
2.0729
2.05903
2.04543
2.03934
2.04091
2.05021
2.07961
2.11687
2.16833
2.19666
2.20053
2.19114
2.17862
2.15427
2.12651
2.09446
2.06547
2.03887
2.01599
1.992
1.96898
1.94579
1.92552
1.90524
1.88686
1.86813
1.85175
1.83596
1.82298
1.81081
1.80146
1.79261
1.78715
1.78381
1.78382
1.78417
1.78714
1.7919
1.79897
1.80502
1.81024
1.81302
1.81454
1.81421
1.81342
1.81136
1.80858
1.80398
1.80013
1.79521
1.79158
1.7868
1.78336
1.77875
1.77539
1.77103
1.76774
1.76383
1.7608
1.75774
1.75547
1.7536
1.75192
1.75071
1.75023
1.75081
1.75194
1.75423
1.75686
1.76172
1.76699
1.77381
1.77922
1.78707
1.79028
1.79718
1.79701
2.06217
2.05727
2.04521
2.02495
2.00423
1.9843
1.96354
1.94291
1.92194
1.90078
1.88046
1.86156
1.84303
1.83115
1.82729
1.83715
1.85368
1.88985
1.95334
2.03898
2.09355
2.10379
2.09289
2.0757
2.05789
2.03593
2.01998
2.01659
2.01726
2.02336
2.04389
2.07459
2.12206
2.14583
2.15454
2.14879
2.13825
2.1214
2.09238
2.06288
2.03631
2.01135
1.98627
1.96168
1.93938
1.91846
1.89875
1.87901
1.86059
1.84272
1.82684
1.81144
1.7985
1.78616
1.77666
1.76736
1.76106
1.75664
1.75571
1.75584
1.75729
1.76169
1.7677
1.77451
1.78008
1.78453
1.78648
1.78702
1.78658
1.78541
1.78258
1.77961
1.77514
1.7718
1.76754
1.76432
1.76054
1.75748
1.75415
1.75136
1.74867
1.74655
1.74495
1.74371
1.74283
1.74274
1.74355
1.74511
1.74706
1.75096
1.75628
1.76154
1.76893
1.7741
1.78181
1.78512
1.7901
1.79084
1.79279
1.7916
2.04093
2.04053
2.03261
2.01817
1.9954
1.97501
1.95566
1.93579
1.91681
1.89775
1.87887
1.8628
1.85141
1.84796
1.85912
1.87649
1.91398
1.97906
2.06304
2.11809
2.12713
2.11533
2.09855
2.07627
2.04987
2.02792
2.00847
1.9978
1.9918
1.99206
1.9949
2.00752
2.03549
2.06886
2.09499
2.11144
2.10753
2.09944
2.08617
2.06147
2.03662
2.00984
1.9835
1.95787
1.93574
1.91399
1.89392
1.8733
1.8546
1.83634
1.81965
1.8034
1.78876
1.77492
1.76323
1.75243
1.74355
1.73595
1.73112
1.72894
1.72908
1.72979
1.73258
1.73777
1.74433
1.75081
1.75591
1.7591
1.76047
1.76059
1.76012
1.75879
1.75599
1.75297
1.74943
1.7464
1.74344
1.74093
1.73868
1.73695
1.73584
1.73535
1.73492
1.73519
1.73643
1.73823
1.74057
1.74502
1.75119
1.75638
1.76464
1.76987
1.77737
1.781
1.78489
1.78564
1.78532
1.78446
1.7823
1.77971
2.00097
2.01791
2.01853
2.00898
1.99228
1.97047
1.95103
1.93206
1.91289
1.89595
1.87956
1.8687
1.86646
1.87892
1.89748
1.93696
2.00372
2.08828
2.14155
2.15046
2.13835
2.12072
2.09639
2.06832
2.04323
2.02219
2.00253
1.98789
1.9755
1.96781
1.9672
1.96819
1.97502
1.99476
2.02059
2.05184
2.06583
2.06844
2.06233
2.05143
2.0353
2.01037
1.98312
1.95706
1.93358
1.91124
1.88905
1.86847
1.84892
1.83098
1.81313
1.79671
1.78042
1.76614
1.75225
1.74052
1.72928
1.72021
1.71175
1.70659
1.70292
1.70273
1.70291
1.70458
1.70871
1.71512
1.72193
1.728
1.73228
1.73496
1.73608
1.73645
1.73602
1.73476
1.73257
1.7303
1.72827
1.72675
1.72584
1.72603
1.72642
1.72751
1.729
1.73104
1.73484
1.73992
1.74667
1.75207
1.76074
1.76672
1.77351
1.77786
1.78124
1.7811
1.78073
1.77955
1.7768
1.77197
1.76751
1.76417
1.92589
1.98484
1.99288
1.99035
1.98159
1.96554
1.94583
1.92927
1.91169
1.89668
1.88627
1.88435
1.89697
1.91719
1.95902
2.02984
2.11477
2.16386
2.17111
2.15987
2.14157
2.11568
2.08665
2.0616
2.03959
2.01982
2.00064
1.98359
1.9674
1.95333
1.94717
1.94035
1.94106
1.94366
1.95543
1.97684
2.00244
2.01876
2.0285
2.02448
2.01757
2.00461
1.98127
1.95831
1.93399
1.9097
1.88555
1.86471
1.84457
1.82623
1.80736
1.79022
1.77327
1.75817
1.74321
1.72994
1.71721
1.70635
1.6964
1.68789
1.68163
1.67729
1.676
1.67614
1.67726
1.68041
1.6857
1.69308
1.69977
1.70568
1.70934
1.71227
1.71331
1.7145
1.71464
1.71439
1.714
1.71439
1.71543
1.71718
1.71907
1.72217
1.72728
1.73274
1.74064
1.74706
1.75561
1.76288
1.76921
1.77379
1.77724
1.77668
1.77611
1.77476
1.77178
1.76638
1.76132
1.75621
1.75137
1.7482
1.78113
1.94306
1.96843
1.97096
1.96629
1.95695
1.94049
1.92396
1.91182
1.9012
1.90305
1.91663
1.93817
1.9828
2.05787
2.14347
2.18803
2.19308
2.18196
2.16311
2.13492
2.10633
2.08131
2.05918
2.03914
2.01925
2.00051
1.98124
1.9635
1.94597
1.93295
1.92103
1.9149
1.91226
1.91321
1.91771
1.93151
1.95301
1.97369
1.98346
1.98426
1.97995
1.97082
1.95711
1.93291
1.90661
1.88278
1.86155
1.84141
1.82046
1.80111
1.78234
1.76619
1.74952
1.73453
1.71917
1.70585
1.69305
1.68221
1.67183
1.66343
1.65602
1.65159
1.64908
1.64925
1.65004
1.65229
1.65753
1.66461
1.67254
1.67915
1.68504
1.68932
1.6929
1.6955
1.69839
1.70076
1.70324
1.70693
1.71095
1.71676
1.72282
1.73099
1.73913
1.74802
1.75621
1.76308
1.76772
1.7712