/*--------------------------------*- C++ -*----------------------------------*\
| =========                 |                                                 |
| \\      /  F ield         | OpenFOAM: The Open Source CFD Toolbox           |
|  \\    /   O peration     | Version:  2112                                  |
|   \\  /    A nd           | Website:  www.openfoam.com                      |
|    \\/     M anipulation  |                                                 |
\*---------------------------------------------------------------------------*/
FoamFile
{
    version     2.0;
    format      ascii;
    arch        "LSB;label=32;scalar=64";
    class       volVectorField;
    location    "4";
    object      U;
}
// * * * * * * * * * * * * * * * * * * * * * * * * * * * * * * * * * * * * * //

dimensions      [0 1 -1 0 0 0 0];

internalField   nonuniform List<vector> 
5250
(
(3 1.08151e-08 0)
(2.99999 8.37771e-08 0)
(2.99996 2.57788e-07 0)
(2.99991 7.7995e-07 0)
(2.99978 1.834e-06 0)
(2.99951 5.04376e-06 0)
(2.99867 1.06558e-05 0)
(2.99724 3.24846e-05 0)
(2.9918 6.10989e-05 0)
(2.9832 0.000218818 0)
(2.94832 0.000429535 0)
(2.87244 0.00148595 0)
(2.64475 0.00352744 0)
(1.91433 0.0114321 0)
(0.922942 0.0296293 0)
(0.402521 0.0263047 0)
(0.521286 0.0253611 0)
(0.553175 0.0268196 0)
(0.495296 0.0284015 0)
(0.40267 0.0301384 0)
(0.319139 0.0320698 0)
(0.2523 0.0342444 0)
(0.185628 0.0365998 0)
(0.110453 0.0393246 0)
(0.0455056 0.0421064 0)
(3 3.19713e-08 0)
(2.99999 2.47943e-07 0)
(2.99996 7.62372e-07 0)
(2.99992 2.30786e-06 0)
(2.99978 5.41815e-06 0)
(2.99952 1.49714e-05 0)
(2.9987 3.1318e-05 0)
(2.99728 9.75327e-05 0)
(2.99195 0.000179169 0)
(2.98351 0.000665852 0)
(2.94933 0.00129364 0)
(2.87518 0.0045624 0)
(2.65227 0.0108919 0)
(1.93684 0.035363 0)
(0.936443 0.0901538 0)
(0.400825 0.0759122 0)
(0.523012 0.069514 0)
(0.556286 0.0712474 0)
(0.498168 0.0734815 0)
(0.405516 0.0762508 0)
(0.321641 0.0790279 0)
(0.25395 0.0819556 0)
(0.186087 0.0847378 0)
(0.109522 0.0874656 0)
(0.0439788 0.0888032 0)
(3 5.15825e-08 0)
(2.99999 4.00371e-07 0)
(2.99996 1.23064e-06 0)
(2.99992 3.72781e-06 0)
(2.99979 8.75046e-06 0)
(2.99953 2.42272e-05 0)
(2.99874 5.05334e-05 0)
(2.99736 0.000158692 0)
(2.99227 0.000287621 0)
(2.98414 0.00108954 0)
(2.95144 0.00210327 0)
(2.88097 0.00749194 0)
(2.66837 0.0179911 0)
(1.98702 0.0586149 0)
(0.969726 0.151604 0)
(0.404836 0.128695 0)
(0.531797 0.116735 0)
(0.56764 0.119712 0)
(0.509127 0.124289 0)
(0.416255 0.130546 0)
(0.331365 0.135982 0)
(0.262083 0.141479 0)
(0.192238 0.146842 0)
(0.113187 0.151713 0)
(0.0449721 0.153337 0)
(3 6.75873e-08 0)
(2.99999 5.2433e-07 0)
(2.99997 1.61222e-06 0)
(2.99992 4.88195e-06 0)
(2.9998 1.1471e-05 0)
(2.99955 3.1679e-05 0)
(2.99881 6.63323e-05 0)
(2.99748 0.000206806 0)
(2.99272 0.000373469 0)
(2.98504 0.00141201 0)
(2.95446 0.00271538 0)
(2.88931 0.00966337 0)
(2.69168 0.0232655 0)
(2.0615 0.0758099 0)
(1.02351 0.201128 0)
(0.420034 0.18245 0)
(0.549673 0.167329 0)
(0.588897 0.170047 0)
(0.530129 0.175931 0)
(0.436529 0.185683 0)
(0.349186 0.194195 0)
(0.277273 0.202722 0)
(0.204451 0.211381 0)
(0.121145 0.219253 0)
(0.0479746 0.221824 0)
(3 7.7705e-08 0)
(2.99999 6.02241e-07 0)
(2.99997 1.85338e-06 0)
(2.99993 5.60192e-06 0)
(2.99981 1.32061e-05 0)
(2.99958 3.59856e-05 0)
(2.99889 7.72638e-05 0)
(2.99762 0.00022913 0)
(2.99327 0.000430723 0)
(2.98611 0.00153945 0)
(2.95807 0.00300193 0)
(2.89919 0.0102923 0)
(2.7195 0.0256605 0)
(2.15323 0.0804862 0)
(1.10257 0.215304 0)
(0.461683 0.227008 0)
(0.580157 0.219604 0)
(0.619668 0.2229 0)
(0.561001 0.229645 0)
(0.466842 0.242192 0)
(0.376168 0.254102 0)
(0.300337 0.266097 0)
(0.223189 0.278492 0)
(0.134008 0.29014 0)
(0.0533967 0.294548 0)
(3 7.98137e-08 0)
(2.99999 6.16248e-07 0)
(2.99997 1.89899e-06 0)
(2.99993 5.70948e-06 0)
(2.99982 1.34897e-05 0)
(2.9996 3.60376e-05 0)
(2.99897 7.93269e-05 0)
(2.99777 0.000220879 0)
(2.99381 0.000436545 0)
(2.9872 0.00146216 0)
(2.96152 0.00278415 0)
(2.90931 0.00958639 0)
(2.74587 0.0243035 0)
(2.23382 0.0699359 0)
(1.1992 0.194656 0)
(0.501482 0.262957 0)
(0.605881 0.27347 0)
(0.647614 0.276071 0)
(0.594053 0.2836 0)
(0.503489 0.300229 0)
(0.411156 0.316984 0)
(0.331638 0.333495 0)
(0.249503 0.351067 0)
(0.152551 0.368505 0)
(0.0618122 0.37709 0)
(3 7.89027e-08 0)
(2.99999 6.06646e-07 0)
(2.99997 1.86936e-06 0)
(2.99994 5.59091e-06 0)
(2.99983 1.31671e-05 0)
(2.99963 3.47696e-05 0)
(2.99904 7.67693e-05 0)
(2.99791 0.000207608 0)
(2.9943 0.000415214 0)
(2.98808 0.00135924 0)
(2.96463 0.00243982 0)
(2.91807 0.00889509 0)
(2.76575 0.0218342 0)
(2.30183 0.058489 0)
(1.31143 0.176845 0)
(0.551927 0.305006 0)
(0.620011 0.333609 0)
(0.660427 0.327871 0)
(0.620265 0.335567 0)
(0.540073 0.357442 0)
(0.450066 0.381777 0)
(0.369264 0.405138 0)
(0.284013 0.430289 0)
(0.179453 0.457049 0)
(0.0753585 0.475008 0)
(3 8.67385e-08 0)
(2.99999 6.67813e-07 0)
(2.99997 2.05793e-06 0)
(2.99994 6.15431e-06 0)
(2.99985 1.45006e-05 0)
(2.99966 3.81646e-05 0)
(2.99911 8.47604e-05 0)
(2.99805 0.000223536 0)
(2.99476 0.000464737 0)
(2.98889 0.00139172 0)
(2.96762 0.00264541 0)
(2.92622 0.00887886 0)
(2.78384 0.0211625 0)
(2.36929 0.0596813 0)
(1.4467 0.172004 0)
(0.628623 0.350911 0)
(0.630042 0.379816 0)
(0.659807 0.374551 0)
(0.640876 0.387168 0)
(0.575868 0.412608 0)
(0.492033 0.445989 0)
(0.41293 0.479432 0)
(0.327711 0.516345 0)
(0.217777 0.558236 0)
(0.0976155 0.597548 0)
(3 1.06808e-07 0)
(2.99999 8.19474e-07 0)
(2.99998 2.52895e-06 0)
(2.99995 7.55489e-06 0)
(2.99986 1.79366e-05 0)
(2.99969 4.70462e-05 0)
(2.9992 0.000106074 0)
(2.99823 0.00027016 0)
(2.99527 0.000606293 0)
(2.9899 0.00153707 0)
(2.97071 0.00342541 0)
(2.93412 0.0090824 0)
(2.80465 0.0222357 0)
(2.43789 0.0631522 0)
(1.59317 0.167084 0)
(0.719857 0.392206 0)
(0.63899 0.410331 0)
(0.666633 0.413941 0)
(0.661278 0.435657 0)
(0.61077 0.465052 0)
(0.538115 0.507469 0)
(0.464613 0.553962 0)
(0.384346 0.606134 0)
(0.277029 0.673559 0)
(0.137894 0.759785 0)
(3 4.93559e-08 0)
(2.99999 1.29655e-06 0)
(2.99998 2.63046e-06 0)
(2.99995 1.15085e-05 0)
(2.99988 1.91145e-05 0)
(2.99973 7.3839e-05 0)
(2.9993 0.000106084 0)
(2.99847 0.000451008 0)
(2.99582 0.000493185 0)
(2.99125 0.00264479 0)
(2.97378 0.00189012 0)
(2.94241 0.0160184 0)
(2.82517 0.0111505 0)
(2.50094 0.0916688 0)
(1.73294 0.159716 0)
(0.816318 0.436437 0)
(0.643766 0.444479 0)
(0.677112 0.450614 0)
(0.684274 0.477942 0)
(0.646785 0.514335 0)
(0.589274 0.56435 0)
(0.526093 0.623756 0)
(0.460098 0.698223 0)
(0.374768 0.811725 0)
(0.213345 1.01873 0)
(3 9.16686e-08 0)
(2.99999 7.14412e-07 0)
(2.99999 2.1991e-06 0)
(2.99996 6.63855e-06 0)
(2.99991 1.57363e-05 0)
(2.99976 4.18275e-05 0)
(2.99951 9.4302e-05 0)
(2.99855 0.000244992 0)
(2.99709 0.000545848 0)
(2.99108 0.00144845 0)
(2.98152 0.00313633 0)
(2.94243 0.00919712 0)
(2.85665 0.0213628 0)
(2.59587 0.064274 0)
(1.80327 0.185318 0)
(0.942096 0.470442 0)
(0.652971 0.475014 0)
(0.692305 0.48328 0)
(0.712423 0.512867 0)
(0.686966 0.556744 0)
(0.644622 0.612663 0)
(0.601411 0.683109 0)
(0.570234 0.778468 0)
(0.568441 0.923886 0)
(0.604283 1.16656 0)
(3 1.3627e-07 0)
(2.99999 1.41899e-07 0)
(2.99998 1.79976e-06 0)
(2.99996 1.83038e-06 0)
(2.99991 1.24927e-05 0)
(2.9998 1.00265e-05 0)
(2.99947 8.24939e-05 0)
(2.99885 4.12485e-05 0)
(2.99682 0.000586878 0)
(2.99341 0.00031 0)
(2.98023 0.00422772 0)
(2.9575 0.00293931 0)
(2.87058 0.0302874 0)
(2.64581 0.0468959 0)
(2.06457 0.189903 0)
(1.07042 0.510699 0)
(0.677018 0.516072 0)
(0.71737 0.522835 0)
(0.747626 0.545853 0)
(0.732912 0.591621 0)
(0.705117 0.651201 0)
(0.684993 0.728555 0)
(0.690503 0.83257 0)
(0.750264 0.97581 0)
(0.896337 1.16074 0)
(3 7.37468e-08 0)
(3 5.75668e-07 0)
(2.99999 1.76859e-06 0)
(2.99997 5.36573e-06 0)
(2.99992 1.26576e-05 0)
(2.99982 3.40588e-05 0)
(2.99954 7.5906e-05 0)
(2.99897 0.000206555 0)
(2.99731 0.000428986 0)
(2.99411 0.00134423 0)
(2.98381 0.00244813 0)
(2.96422 0.00924708 0)
(2.89652 0.0178627 0)
(2.72226 0.0675208 0)
(2.27021 0.165949 0)
(1.24127 0.49621 0)
(0.739009 0.553172 0)
(0.759504 0.57208 0)
(0.790744 0.582798 0)
(0.786685 0.623224 0)
(0.770778 0.682615 0)
(0.770412 0.759525 0)
(0.802349 0.858125 0)
(0.88915 0.978376 0)
(1.05959 1.09708 0)
(3 8.00993e-08 0)
(3 6.25219e-07 0)
(2.99999 1.92179e-06 0)
(2.99997 5.82748e-06 0)
(2.99993 1.3832e-05 0)
(2.99985 3.70881e-05 0)
(2.99961 8.38579e-05 0)
(2.99914 0.00022 0)
(2.99777 0.000495403 0)
(2.99509 0.00128501 0)
(2.98675 0.00297183 0)
(2.97054 0.00766367 0)
(2.91687 0.0183102 0)
(2.78196 0.0520024 0)
(2.42373 0.134769 0)
(1.43491 0.400692 0)
(0.832204 0.577913 0)
(0.807003 0.615025 0)
(0.830689 0.625932 0)
(0.842002 0.655654 0)
(0.837995 0.709049 0)
(0.850534 0.779109 0)
(0.896925 0.86286 0)
(0.991486 0.95563 0)
(1.15528 1.03319 0)
(3 7.52838e-08 0)
(3 5.86081e-07 0)
(2.99999 1.80375e-06 0)
(2.99998 5.45099e-06 0)
(2.99995 1.29422e-05 0)
(2.99988 3.44835e-05 0)
(2.99969 7.79378e-05 0)
(2.99932 0.000202097 0)
(2.9982 0.00045739 0)
(2.99618 0.00115244 0)
(2.98909 0.00271212 0)
(2.97719 0.00653768 0)
(2.93179 0.0162721 0)
(2.82631 0.0418746 0)
(2.52966 0.111115 0)
(1.63495 0.317573 0)
(0.945902 0.616243 0)
(0.840314 0.652294 0)
(0.860567 0.668501 0)
(0.885449 0.686669 0)
(0.898047 0.730214 0)
(0.920986 0.790329 0)
(0.973859 0.858633 0)
(1.06759 0.928134 0)
(1.21623 0.981278 0)
(3 6.27258e-08 0)
(3 4.84739e-07 0)
(2.99999 1.49409e-06 0)
(2.99998 4.48395e-06 0)
(2.99996 1.0621e-05 0)
(2.9999 2.80226e-05 0)
(2.99975 6.2929e-05 0)
(2.99946 0.000162819 0)
(2.99856 0.000356322 0)
(2.99698 0.0009556 0)
(2.99121 0.0019878 0)
(2.98198 0.00585719 0)
(2.94507 0.0122829 0)
(2.86518 0.0380402 0)
(2.62598 0.0939687 0)
(1.87333 0.28683 0)
(1.11075 0.650885 0)
(0.875297 0.682478 0)
(0.88672 0.699281 0)
(0.919262 0.710065 0)
(0.948859 0.744214 0)
(0.981367 0.794539 0)
(1.03703 0.850596 0)
(1.12618 0.903741 0)
(1.25787 0.941732 0)
(3 5.27271e-08 0)
(3 4.0691e-07 0)
(2.99999 1.25436e-06 0)
(2.99999 3.76028e-06 0)
(2.99997 8.89616e-06 0)
(2.99992 2.34525e-05 0)
(2.9998 5.251e-05 0)
(2.99956 0.000136469 0)
(2.99886 0.000294642 0)
(2.99754 0.000816041 0)
(2.99315 0.00161978 0)
(2.98584 0.00522124 0)
(2.95752 0.0101639 0)
(2.89829 0.0347243 0)
(2.71717 0.0816609 0)
(2.14351 0.262395 0)
(1.32242 0.655366 0)
(0.942575 0.712284 0)
(0.92816 0.724579 0)
(0.955909 0.731436 0)
(0.995794 0.754234 0)
(1.03478 0.794694 0)
(1.09056 0.840787 0)
(1.17362 0.882784 0)
(1.28948 0.911366 0)
(3 4.62057e-08 0)
(3 3.56866e-07 0)
(3 1.10012e-06 0)
(2.99999 3.30209e-06 0)
(2.99997 7.83105e-06 0)
(2.99994 2.06756e-05 0)
(2.99985 4.65397e-05 0)
(2.99966 0.000120134 0)
(2.99912 0.000266059 0)
(2.99808 0.000699071 0)
(2.99486 0.00149517 0)
(2.98915 0.00428804 0)
(2.96884 0.00875482 0)
(2.92787 0.0271851 0)
(2.79987 0.0662994 0)
(2.41173 0.196428 0)
(1.61562 0.541554 0)
(1.06621 0.722574 0)
(0.996035 0.747517 0)
(1.00647 0.758929 0)
(1.04508 0.76935 0)
(1.08703 0.797684 0)
(1.13975 0.833664 0)
(1.21475 0.866515 0)
(1.31608 0.888125 0)
(3 2.55403e-08 0)
(3 3.38374e-07 0)
(3 8.34782e-07 0)
(2.99999 3.03951e-06 0)
(2.99998 6.05569e-06 0)
(2.99995 1.89693e-05 0)
(2.99988 3.62317e-05 0)
(2.99974 0.00011053 0)
(2.99934 0.000205858 0)
(2.99857 0.000647044 0)
(2.99613 0.00110358 0)
(2.99192 0.00394731 0)
(2.97614 0.00557168 0)
(2.94811 0.0243434 0)
(2.84508 0.0385562 0)
(2.56804 0.152167 0)
(1.91081 0.365507 0)
(1.19029 0.740008 0)
(1.04393 0.77479 0)
(1.04621 0.790306 0)
(1.08369 0.792273 0)
(1.1319 0.805755 0)
(1.18383 0.831065 0)
(1.25145 0.855873 0)
(1.33995 0.871769 0)
(3 1.85221e-08 0)
(3 2.50691e-07 0)
(3 6.13012e-07 0)
(2.99999 2.24682e-06 0)
(2.99999 4.42935e-06 0)
(2.99996 1.39323e-05 0)
(2.99992 2.62594e-05 0)
(2.9998 8.03939e-05 0)
(2.99957 0.00014901 0)
(2.99883 0.000463506 0)
(2.99761 0.00082278 0)
(2.99289 0.00281869 0)
(2.98547 0.00444681 0)
(2.95607 0.0184395 0)
(2.89412 0.0300681 0)
(2.7035 0.12085 0)
(2.14073 0.299376 0)
(1.39476 0.743926 0)
(1.1025 0.804064 0)
(1.08721 0.816078 0)
(1.11594 0.815511 0)
(1.16815 0.816472 0)
(1.223 0.831802 0)
(1.28518 0.849472 0)
(1.36281 0.860909 0)
(3 3.50059e-08 0)
(3 1.29429e-07 0)
(3 6.07357e-07 0)
(3 1.28749e-06 0)
(2.99999 4.20735e-06 0)
(2.99997 8.08791e-06 0)
(2.99994 2.47088e-05 0)
(2.99985 4.61049e-05 0)
(2.99966 0.000142328 0)
(2.99913 0.000250353 0)
(2.99809 0.000863576 0)
(2.99495 0.00132353 0)
(2.98915 0.00561027 0)
(2.9697 0.00796024 0)
(2.9294 0.0362276 0)
(2.80518 0.0677754 0)
(2.43871 0.24365 0)
(1.70377 0.609358 0)
(1.21787 0.806004 0)
(1.14928 0.831785 0)
(1.15883 0.838853 0)
(1.20517 0.833358 0)
(1.26061 0.837916 0)
(1.31788 0.847792 0)
(1.38613 0.85454 0)
(3 2.16869e-08 0)
(3 1.1826e-07 0)
(3 4.3943e-07 0)
(3 1.12791e-06 0)
(2.99999 3.09611e-06 0)
(2.99998 7.09649e-06 0)
(2.99995 1.8361e-05 0)
(2.9999 4.10621e-05 0)
(2.99974 0.000105079 0)
(2.99943 0.000233248 0)
(2.9985 0.000599901 0)
(2.99683 0.00131776 0)
(2.99102 0.00349985 0)
(2.98107 0.00754356 0)
(2.94529 0.020999 0)
(2.86253 0.0512795 0)
(2.62886 0.141094 0)
(1.96512 0.419652 0)
(1.36469 0.786277 0)
(1.20366 0.84229 0)
(1.19792 0.861936 0)
(1.23544 0.85801 0)
(1.29223 0.850416 0)
(1.3477 0.851216 0)
(1.40891 0.852872 0)
(3 1.23204e-08 0)
(3 9.56828e-08 0)
(3 2.94864e-07 0)
(3 8.87163e-07 0)
(2.99999 2.10317e-06 0)
(2.99999 5.55348e-06 0)
(2.99997 1.24921e-05 0)
(2.99992 3.21404e-05 0)
(2.99982 7.13177e-05 0)
(2.99954 0.000184144 0)
(2.99899 0.000401443 0)
(2.99736 0.00108352 0)
(2.99433 0.00224501 0)
(2.98422 0.00663661 0)
(2.96563 0.0140011 0)
(2.90128 0.0409121 0)
(2.7403 0.10988 0)
(2.30531 0.295344 0)
(1.56191 0.755048 0)
(1.27253 0.858957 0)
(1.24085 0.880405 0)
(1.26153 0.882142 0)
(1.31404 0.868286 0)
(1.37249 0.860141 0)
(1.43083 0.856457 0)
(3 1.49853e-08 0)
(3 5.85259e-08 0)
(3 2.65291e-07 0)
(3 5.83159e-07 0)
(3 1.85687e-06 0)
(2.99999 3.71712e-06 0)
(2.99998 1.10342e-05 0)
(2.99995 2.16731e-05 0)
(2.99987 6.34412e-05 0)
(2.99971 0.000123928 0)
(2.99925 0.000364242 0)
(2.99836 0.000703565 0)
(2.99565 0.00214935 0)
(2.99084 0.00389113 0)
(2.97388 0.0134397 0)
(2.94171 0.0234857 0)
(2.8349 0.0856778 0)
(2.54361 0.202593 0)
(1.89797 0.577352 0)
(1.39649 0.849966 0)
(1.29942 0.887207 0)
(1.29853 0.900369 0)
(1.33774 0.889247 0)
(1.39484 0.872613 0)
(1.45165 0.863689 0)
(3 6.89574e-09 0)
(3 5.34013e-08 0)
(3 1.64677e-07 0)
(3 4.94361e-07 0)
(3 1.17224e-06 0)
(2.99999 3.08541e-06 0)
(2.99998 6.9449e-06 0)
(2.99996 1.77771e-05 0)
(2.99991 3.94998e-05 0)
(2.99979 0.000100691 0)
(2.99948 0.000222517 0)
(2.99885 0.000573008 0)
(2.99699 0.00124201 0)
(2.99364 0.00338205 0)
(2.98197 0.00692961 0)
(2.96143 0.0210384 0)
(2.88809 0.0453058 0)
(2.70075 0.142893 0)
(2.23339 0.37507 0)
(1.5699 0.825546 0)
(1.35577 0.902188 0)
(1.33525 0.916691 0)
(1.35704 0.910592 0)
(1.41017 0.889891 0)
(1.4692 0.87407 0)
(3 3.98908e-09 0)
(3 4.358e-08 0)
(3 1.15549e-07 0)
(3 3.93435e-07 0)
(3 8.30029e-07 0)
(3 2.43787e-06 0)
(2.99999 4.92654e-06 0)
(2.99997 1.4006e-05 0)
(2.99994 2.80347e-05 0)
(2.99986 7.92184e-05 0)
(2.99964 0.000157706 0)
(2.99921 0.000449092 0)
(2.99799 0.000874084 0)
(2.99559 0.00263323 0)
(2.98843 0.00468263 0)
(2.97394 0.0164677 0)
(2.93014 0.0278477 0)
(2.82141 0.106177 0)
(2.53435 0.235429 0)
(1.84651 0.675966 0)
(1.46437 0.878628 0)
(1.38943 0.912964 0)
(1.38983 0.923123 0)
(1.42915 0.908441 0)
(1.48539 0.884153 0)
(3 2.73781e-09 0)
(3 2.97352e-08 0)
(3 7.89776e-08 0)
(3 2.68837e-07 0)
(3 5.67383e-07 0)
(3 1.66471e-06 0)
(2.99999 3.36192e-06 0)
(2.99998 9.54508e-06 0)
(2.99996 1.90868e-05 0)
(2.9999 5.38438e-05 0)
(2.99978 0.000107208 0)
(2.99945 0.000303463 0)
(2.99881 0.000600656 0)
(2.99682 0.00172823 0)
(2.99341 0.00337296 0)
(2.98095 0.0101151 0)
(2.95941 0.0202016 0)
(2.88068 0.0623819 0)
(2.68561 0.149757 0)
(2.19272 0.427218 0)
(1.60525 0.848962 0)
(1.4417 0.917114 0)
(1.42409 0.932331 0)
(1.44433 0.925743 0)
(1.49496 0.899819 0)
(3 3.08567e-09 0)
(3 1.66382e-08 0)
(3 6.1839e-08 0)
(3 1.58567e-07 0)
(3 4.33073e-07 0)
(3 9.8999e-07 0)
(3 2.53939e-06 0)
(2.99999 5.65731e-06 0)
(2.99997 1.43047e-05 0)
(2.99993 3.16211e-05 0)
(2.99985 7.98398e-05 0)
(2.99963 0.000175558 0)
(2.99918 0.000449527 0)
(2.9979 0.000961334 0)
(2.99541 0.00263731 0)
(2.98796 0.00529964 0)
(2.97313 0.0162257 0)
(2.92794 0.0335512 0)
(2.81495 0.107713 0)
(2.51983 0.27151 0)
(1.8695 0.707771 0)
(1.53159 0.894993 0)
(1.47034 0.927645 0)
(1.47095 0.935717 0)
(1.50801 0.919513 0)
(3 2.52809e-09 0)
(3 1.0935e-08 0)
(3 4.64787e-08 0)
(3 1.06752e-07 0)
(3 3.22928e-07 0)
(3 6.70398e-07 0)
(3 1.89155e-06 0)
(2.99999 3.84491e-06 0)
(2.99998 1.06735e-05 0)
(2.99996 2.15882e-05 0)
(2.9999 5.97541e-05 0)
(2.99976 0.000120456 0)
(2.99946 0.000334575 0)
(2.99864 0.000670253 0)
(2.99703 0.00189262 0)
(2.99219 0.00371862 0)
(2.98309 0.0110246 0)
(2.95386 0.0217877 0)
(2.88652 0.0682498 0)
(2.7005 0.157086 0)
(2.17138 0.471309 0)
(1.68136 0.849059 0)
(1.52633 0.922953 0)
(1.50534 0.940371 0)
(1.52204 0.935652 0)
(3 1.66585e-09 0)
(3 7.21438e-09 0)
(3 3.06124e-08 0)
(3 7.04919e-08 0)
(3 2.12741e-07 0)
(3 4.42633e-07 0)
(3 1.24523e-06 0)
(3 2.53616e-06 0)
(2.99999 7.01616e-06 0)
(2.99997 1.42199e-05 0)
(2.99993 3.92006e-05 0)
(2.99985 7.92278e-05 0)
(2.99963 0.00021893 0)
(2.9992 0.000440623 0)
(2.99795 0.00123318 0)
(2.99553 0.00244337 0)
(2.98829 0.00718526 0)
(2.97393 0.0138241 0)
(2.93027 0.0435705 0)
(2.82377 0.0977963 0)
(2.52901 0.292522 0)
(1.92823 0.711605 0)
(1.61345 0.899476 0)
(1.55073 0.93572 0)
(1.54799 0.944859 0)
(3 7.42456e-10 0)
(3 5.73334e-09 0)
(3 1.76877e-08 0)
(3 5.28973e-08 0)
(3 1.25291e-07 0)
(3 3.27707e-07 0)
(3 7.36055e-07 0)
(3 1.86837e-06 0)
(2.99999 4.14489e-06 0)
(2.99998 1.045e-05 0)
(2.99996 2.30971e-05 0)
(2.99991 5.81992e-05 0)
(2.99977 0.000128333 0)
(2.99948 0.000324558 0)
(2.9987 0.000712736 0)
(2.99715 0.00182921 0)
(2.99258 0.00398276 0)
(2.98401 0.0105891 0)
(2.95644 0.0234925 0)
(2.89516 0.0651207 0)
(2.72018 0.164081 0)
(2.22635 0.467125 0)
(1.76021 0.850858 0)
(1.60412 0.930815 0)
(1.57997 0.949081 0)
(3 4.13157e-10 0)
(3 4.09708e-09 0)
(3 1.12982e-08 0)
(3 3.70269e-08 0)
(3 8.04295e-08 0)
(3 2.27657e-07 0)
(3 4.71911e-07 0)
(3 1.29184e-06 0)
(3 2.65073e-06 0)
(2.99999 7.19595e-06 0)
(2.99997 1.47263e-05 0)
(2.99994 3.99072e-05 0)
(2.99986 8.14716e-05 0)
(2.99968 0.000221237 0)
(2.9992 0.000449636 0)
(2.99826 0.00123436 0)
(2.99557 0.00247012 0)
(2.99023 0.00710587 0)
(2.97461 0.0136959 0)
(2.94054 0.04291 0)
(2.84397 0.092444 0)
(2.56009 0.293336 0)
(2.0395 0.674211 0)
(1.70389 0.894684 0)
(1.63119 0.939361 0)
(3 3.14316e-10 0)
(3 2.41671e-09 0)
(3 7.46315e-09 0)
(3 2.22346e-08 0)
(3 5.26593e-08 0)
(3 1.37067e-07 0)
(3 3.07629e-07 0)
(3 7.76404e-07 0)
(3 1.72077e-06 0)
(2.99999 4.30953e-06 0)
(2.99998 9.51824e-06 0)
(2.99996 2.3791e-05 0)
(2.99992 5.24386e-05 0)
(2.99979 0.000131138 0)
(2.99954 0.000288372 0)
(2.99884 0.000724722 0)
(2.99746 0.00158531 0)
(2.9934 0.00404871 0)
(2.98575 0.00891791 0)
(2.96156 0.0233967 0)
(2.90781 0.0551088 0)
(2.75355 0.150736 0)
(2.33129 0.419886 0)
(1.87124 0.808661 0)
(1.69061 0.920715 0)
(3 2.82172e-10 0)
(3 1.24873e-09 0)
(3 5.20589e-09 0)
(3 1.21772e-08 0)
(3 3.61239e-08 0)
(3 7.616e-08 0)
(3 2.10375e-07 0)
(3 4.33622e-07 0)
(3 1.17685e-06 0)
(3 2.41381e-06 0)
(2.99999 6.52084e-06 0)
(2.99998 1.33587e-05 0)
(2.99995 3.60635e-05 0)
(2.99988 7.37842e-05 0)
(2.9997 0.000199687 0)
(2.99934 0.000407401 0)
(2.99834 0.00111467 0)
(2.99634 0.0022478 0)
(2.99067 0.00640704 0)
(2.97882 0.0126085 0)
(2.94534 0.0381225 0)
(2.86445 0.0849023 0)
(2.63915 0.250529 0)
(2.1306 0.626889 0)
(1.79621 0.883807 0)
(3 1.22365e-10 0)
(3 9.42561e-10 0)
(3 2.91067e-09 0)
(3 8.68104e-09 0)
(3 2.05545e-08 0)
(3 5.35203e-08 0)
(3 1.20037e-07 0)
(3 3.02956e-07 0)
(3 6.70792e-07 0)
(3 1.68022e-06 0)
(2.99999 3.70696e-06 0)
(2.99999 9.27207e-06 0)
(2.99997 2.04159e-05 0)
(2.99993 5.11261e-05 0)
(2.99982 0.000112341 0)
(2.9996 0.00028262 0)
(2.999 0.000618951 0)
(2.99781 0.00157326 0)
(2.99437 0.00346457 0)
(2.98796 0.00887504 0)
(2.96752 0.0204562 0)
(2.92524 0.052783 0)
(2.8 0.134793 0)
(2.4424 0.376973 0)
(1.99592 0.765911 0)
(3 6.67255e-11 0)
(3 6.33478e-10 0)
(3 1.77827e-09 0)
(3 5.73005e-09 0)
(3 1.26174e-08 0)
(3 3.51165e-08 0)
(3 7.3695e-08 0)
(3 1.98198e-07 0)
(3 4.11628e-07 0)
(3 1.09699e-06 0)
(3 2.27409e-06 0)
(2.99999 6.0419e-06 0)
(2.99998 1.25236e-05 0)
(2.99996 3.32336e-05 0)
(2.99989 6.88406e-05 0)
(2.99976 0.00018283 0)
(2.99941 0.000377762 0)
(2.99871 0.00101027 0)
(2.99674 0.00206379 0)
(2.993 0.00573077 0)
(2.98123 0.0112152 0)
(2.95923 0.0340248 0)
(2.88851 0.070394 0)
(2.69778 0.223467 0)
(2.2907 0.53319 0)
(3 4.03267e-11 0)
(3 3.80443e-10 0)
(3 1.07095e-09 0)
(3 3.44448e-09 0)
(3 7.5979e-09 0)
(3 2.10894e-08 0)
(3 4.43034e-08 0)
(3 1.18764e-07 0)
(3 2.46785e-07 0)
(3 6.55398e-07 0)
(3 1.35894e-06 0)
(3 3.59746e-06 0)
(2.99999 7.45759e-06 0)
(2.99997 1.97122e-05 0)
(2.99994 4.08478e-05 0)
(2.99986 0.000107957 0)
(2.99968 0.000223275 0)
(2.99921 0.000592421 0)
(2.9983 0.00121592 0)
(2.9956 0.00331065 0)
(2.99078 0.00653927 0)
(2.97486 0.0194422 0)
(2.94402 0.037805 0)
(2.84917 0.11918 0)
(2.59077 0.300996 0)
(3 3.97228e-11 0)
(3 1.82797e-10 0)
(3 7.43289e-10 0)
(3 1.76756e-09 0)
(3 5.13384e-09 0)
(3 1.09676e-08 0)
(3 2.96479e-08 0)
(3 6.18326e-08 0)
(3 1.64094e-07 0)
(3 3.40308e-07 0)
(3 8.98133e-07 0)
(3 1.86011e-06 0)
(2.99999 4.8979e-06 0)
(2.99998 1.01362e-05 0)
(2.99997 2.6663e-05 0)
(2.99992 5.50783e-05 0)
(2.99981 0.000145026 0)
(2.99954 0.000298471 0)
(2.999 0.000793523 0)
(2.99744 0.00160268 0)
(2.99463 0.00446967 0)
(2.98523 0.00857782 0)
(2.96892 0.026153 0)
(2.91353 0.0526092 0)
(2.77674 0.163918 0)
(3 2.3408e-11 0)
(3 1.08701e-10 0)
(3 4.40339e-10 0)
(3 1.04992e-09 0)
(3 3.04049e-09 0)
(3 6.50897e-09 0)
(3 1.7542e-08 0)
(3 3.6655e-08 0)
(3 9.69846e-08 0)
(3 2.0153e-07 0)
(3 5.30366e-07 0)
(3 1.10096e-06 0)
(3 2.89126e-06 0)
(2.99999 6.00166e-06 0)
(2.99998 1.57437e-05 0)
(2.99995 3.26638e-05 0)
(2.99989 8.57036e-05 0)
(2.99975 0.000177432 0)
(2.99939 0.000468693 0)
(2.99866 0.000956789 0)
(2.9966 0.00262458 0)
(2.99276 0.00510967 0)
(2.98061 0.0154124 0)
(2.9573 0.0297266 0)
(2.88485 0.0928696 0)
(3 9.65354e-12 0)
(3 7.39449e-11 0)
(3 2.28541e-10 0)
(3 6.79104e-10 0)
(3 1.60638e-09 0)
(3 4.15855e-09 0)
(3 9.30491e-09 0)
(3 2.33116e-08 0)
(3 5.14568e-08 0)
(3 1.27821e-07 0)
(3 2.81158e-07 0)
(3 6.96731e-07 0)
(3 1.53098e-06 0)
(3 3.79111e-06 0)
(2.99999 8.32529e-06 0)
(2.99997 2.06169e-05 0)
(2.99994 4.52276e-05 0)
(2.99986 0.000112146 0)
(2.99965 0.000245616 0)
(2.99923 0.000612609 0)
(2.99809 0.00133186 0)
(2.99587 0.00341574 0)
(2.98945 0.00722653 0)
(2.97685 0.019737 0)
(2.93998 0.0429801 0)
(3 5.02051e-12 0)
(3 4.62571e-11 0)
(3 1.31677e-10 0)
(3 4.17807e-10 0)
(3 9.29063e-10 0)
(3 2.54314e-09 0)
(3 5.37691e-09 0)
(3 1.42037e-08 0)
(3 2.96763e-08 0)
(3 7.76391e-08 0)
(3 1.61769e-07 0)
(3 4.21886e-07 0)
(3 8.78608e-07 0)
(3 2.28795e-06 0)
(2.99999 4.7644e-06 0)
(2.99999 1.23957e-05 0)
(2.99996 2.57971e-05 0)
(2.99992 6.71178e-05 0)
(2.9998 0.000139392 0)
(2.99957 0.000363561 0)
(2.99893 0.000751478 0)
(2.99767 0.00198316 0)
(2.99413 0.00404568 0)
(2.98706 0.0110527 0)
(2.96697 0.0226695 0)
(3 2.84323e-12 0)
(3 2.61651e-11 0)
(3 7.44299e-11 0)
(3 2.36462e-10 0)
(3 5.25727e-10 0)
(3 1.43927e-09 0)
(3 3.04182e-09 0)
(3 8.03216e-09 0)
(3 1.67741e-08 0)
(3 4.38578e-08 0)
(3 9.13462e-08 0)
(3 2.38069e-07 0)
(3 4.95688e-07 0)
(3 1.28997e-06 0)
(3 2.68644e-06 0)
(2.99999 6.98506e-06 0)
(2.99998 1.45465e-05 0)
(2.99995 3.78201e-05 0)
(2.9999 7.8685e-05 0)
(2.99974 0.000204963 0)
(2.99944 0.000425546 0)
(2.99862 0.00111696 0)
(2.99697 0.00230311 0)
(2.99243 0.006174 0)
(2.98296 0.012879 0)
(3 2.34354e-12 0)
(3 1.26328e-11 0)
(3 4.67117e-11 0)
(3 1.19774e-10 0)
(3 3.2325e-10 0)
(3 7.36029e-10 0)
(3 1.85674e-09 0)
(3 4.1107e-09 0)
(3 1.01919e-08 0)
(3 2.24015e-08 0)
(3 5.52752e-08 0)
(3 1.2125e-07 0)
(3 2.98722e-07 0)
(3 6.54804e-07 0)
(3 1.61233e-06 0)
(3 3.53207e-06 0)
(2.99999 8.6975e-06 0)
(2.99997 1.90329e-05 0)
(2.99994 4.69194e-05 0)
(2.99986 0.000102515 0)
(2.99969 0.000253643 0)
(2.99924 0.000552663 0)
(2.99834 0.00137884 0)
(2.99588 0.00301921 0)
(2.99102 0.00758812 0)
(3 1.47406e-12 0)
(3 6.67195e-12 0)
(3 2.71039e-11 0)
(3 6.43034e-11 0)
(3 1.85651e-10 0)
(3 3.94619e-10 0)
(3 1.0588e-09 0)
(3 2.19187e-09 0)
(3 5.77052e-09 0)
(3 1.18553e-08 0)
(3 3.10523e-08 0)
(3 6.3601e-08 0)
(3 1.66352e-07 0)
(3 3.40034e-07 0)
(3 8.88999e-07 0)
(3 1.81352e-06 0)
(2.99999 4.74102e-06 0)
(2.99998 9.64624e-06 0)
(2.99997 2.52315e-05 0)
(2.99992 5.1131e-05 0)
(2.99982 0.00013404 0)
(2.99955 0.000269968 0)
(2.99903 0.000712894 0)
(2.99759 0.00141849 0)
(2.9948 0.00382997 0)
(3 7.58995e-13 0)
(3 3.37964e-12 0)
(3 1.40866e-11 0)
(3 3.2475e-11 0)
(3 9.62099e-11 0)
(3 1.98728e-10 0)
(3 5.45839e-10 0)
(3 1.095e-09 0)
(3 2.95123e-09 0)
(3 5.85363e-09 0)
(3 1.5723e-08 0)
(3 3.09595e-08 0)
(3 8.32575e-08 0)
(3 1.62819e-07 0)
(3 4.39091e-07 0)
(3 8.52194e-07 0)
(3 2.30671e-06 0)
(2.99999 4.43643e-06 0)
(2.99998 1.2066e-05 0)
(2.99995 2.29348e-05 0)
(2.99987 6.28199e-05 0)
(2.99972 0.000117436 0)
(2.9993 0.000325831 0)
(2.99847 0.000592981 0)
(2.99612 0.00170102 0)
(3 2.252e-13 0)
(3 2.03891e-12 0)
(3 6.19791e-12 0)
(3 1.83144e-11 0)
(3 4.32278e-11 0)
(3 1.10009e-10 0)
(3 2.44603e-10 0)
(3 5.98122e-10 0)
(3 1.3074e-09 0)
(3 3.15434e-09 0)
(3 6.85473e-09 0)
(3 1.64319e-08 0)
(3 3.5606e-08 0)
(3 8.49398e-08 0)
(3 1.83643e-07 0)
(3 4.35994e-07 0)
(3 9.40553e-07 0)
(2.99999 2.22119e-06 0)
(2.99998 4.78154e-06 0)
(2.99996 1.12174e-05 0)
(2.9999 2.41078e-05 0)
(2.99977 5.59729e-05 0)
(2.99943 0.000120279 0)
(2.99874 0.000271388 0)
(2.99673 0.000599712 0)
(3 9.7527e-14 0)
(3 1.23747e-12 0)
(3 2.82171e-12 0)
(3 1.08791e-11 0)
(3 1.97505e-11 0)
(3 6.48019e-11 0)
(3 1.10896e-10 0)
(3 3.53358e-10 0)
(3 5.86707e-10 0)
(3 1.88203e-09 0)
(3 3.04483e-09 0)
(3 9.95605e-09 0)
(3 1.56885e-08 0)
(3 5.25986e-08 0)
(3 8.06092e-08 0)
(3 2.78306e-07 0)
(3 4.13968e-07 0)
(2.99999 1.4794e-06 0)
(2.99998 2.12635e-06 0)
(2.99996 7.92735e-06 0)
(2.99991 1.07095e-05 0)
(2.9998 4.34652e-05 0)
(2.99948 4.74526e-05 0)
(2.99887 0.000246388 0)
(2.99689 0.000138837 0)
(3 5.91338e-14 0)
(3 3.71358e-13 0)
(3 1.24382e-12 0)
(3 3.54466e-12 0)
(3 8.44672e-12 0)
(3 2.11339e-11 0)
(3 4.66952e-11 0)
(3 1.11896e-10 0)
(3 2.41751e-10 0)
(3 5.70163e-10 0)
(3 1.22184e-09 0)
(3 2.86249e-09 0)
(3 6.11107e-09 0)
(3 1.42602e-08 0)
(3 3.03985e-08 0)
(3 7.05732e-08 0)
(3 1.50441e-07 0)
(2.99999 3.45603e-07 0)
(2.99999 7.36117e-07 0)
(2.99997 1.65729e-06 0)
(2.99993 3.51264e-06 0)
(2.9998 7.64064e-06 0)
(2.99959 1.61235e-05 0)
(2.99881 3.21701e-05 0)
(2.99761 7.10751e-05 0)
(3 7.07053e-14 0)
(3 -1.09259e-13 0)
(3 7.02335e-13 0)
(3 -6.29211e-13 0)
(3 4.43532e-12 0)
(3 -4.18949e-12 0)
(3 2.32131e-11 0)
(3 -3.10845e-11 0)
(3 1.13327e-10 0)
(3 -2.27301e-10 0)
(3 5.22833e-10 0)
(3 -1.60481e-09 0)
(3 2.23564e-09 0)
(3 -1.1e-08 0)
(3 8.30072e-09 0)
(3 -7.38371e-08 0)
(3 2.10109e-08 0)
(2.99999 -4.89339e-07 0)
(2.99999 -3.08402e-08 0)
(2.99997 -3.2172e-06 0)
(2.99991 -7.79011e-07 0)
(2.99981 -2.15522e-05 0)
(2.9995 -1.23413e-06 0)
(2.99892 -0.000149807 0)
(2.99696 7.8133e-05 0)
(3 1.15747e-14 0)
(3 5.49473e-14 0)
(3 1.23197e-13 0)
(3 3.75132e-13 0)
(3 8.25572e-13 0)
(3 1.80061e-12 0)
(3 3.7756e-12 0)
(3 7.30137e-12 0)
(3 1.49824e-11 0)
(3 2.29294e-11 0)
(3 4.28364e-11 0)
(3 1.17847e-11 0)
(3 -2.77927e-11 0)
(3 -6.75677e-10 0)
(3 -1.88495e-09 0)
(3 -8.33722e-09 0)
(3 -2.13969e-08 0)
(2.99999 -7.27715e-08 0)
(2.99998 -1.82516e-07 0)
(2.99997 -5.39063e-07 0)
(2.99991 -1.3305e-06 0)
(2.9998 -3.49768e-06 0)
(2.99949 -8.62207e-06 0)
(2.99888 -1.79998e-05 0)
(2.99692 -5.34204e-05 0)
(1.28011 1.07654 0)
(1.71426 0.879513 0)
(1.9171 0.614406 0)
(1.95186 0.347721 0)
(1.903 0.128956 0)
(1.80387 -0.0141036 0)
(1.69909 -0.0521212 0)
(1.63969 -0.020316 0)
(1.62085 0.0252856 0)
(1.60954 0.050298 0)
(1.58064 0.0525378 0)
(1.50852 0.0524262 0)
(1.33908 0.0580535 0)
(0.970292 0.0847825 0)
(0.498218 0.153453 0)
(0.146463 0.170283 0)
(-0.0169752 0.133913 0)
(-0.226185 0.0913005 0)
(-0.399571 0.0553307 0)
(-0.536364 0.0239538 0)
(-0.655172 0.00338618 0)
(-0.746629 -0.00753141 0)
(-0.807406 -0.00373167 0)
(-0.851159 0.00544492 0)
(-0.889966 0.0122568 0)
(-0.928484 0.0152814 0)
(-0.967248 0.0139533 0)
(-0.998509 0.0101385 0)
(-1.01701 0.00582528 0)
(-1.02671 0.00172596 0)
(-1.02624 -0.00161866 0)
(-1.00507 -0.00451121 0)
(-0.956762 -0.00891831 0)
(-0.882878 -0.0149531 0)
(-0.791158 -0.021147 0)
(-0.69127 -0.0253383 0)
(-0.589741 -0.0278016 0)
(-0.490501 -0.0299238 0)
(-0.394007 -0.0337922 0)
(-0.301906 -0.0377193 0)
(-0.215641 -0.0399437 0)
(-0.133258 -0.0415059 0)
(-0.0579276 -0.0450029 0)
(0.0256662 -0.0430653 0)
(0.0960903 -0.0373808 0)
(0.162122 -0.0348942 0)
(0.223604 -0.0329398 0)
(0.281189 -0.031051 0)
(0.33397 -0.0291338 0)
(0.38287 -0.027409 0)
(0.432892 -0.0266479 0)
(0.483486 -0.0264625 0)
(0.531392 -0.0252541 0)
(0.576591 -0.0237253 0)
(0.619863 -0.022393 0)
(0.661515 -0.0212485 0)
(0.701709 -0.0202449 0)
(0.740493 -0.0192834 0)
(0.777988 -0.0183824 0)
(0.814238 -0.0175043 0)
(0.849336 -0.0166768 0)
(0.883322 -0.0158655 0)
(0.91629 -0.0150936 0)
(0.948284 -0.014336 0)
(0.979382 -0.0136137 0)
(1.00963 -0.012906 0)
(1.03908 -0.0122347 0)
(1.06779 -0.0115801 0)
(1.0958 -0.0109616 0)
(1.12313 -0.0103608 0)
(1.14984 -0.00979203 0)
(1.17594 -0.00923891 0)
(1.20147 -0.00871217 0)
(1.22646 -0.0081967 0)
(1.25093 -0.00770279 0)
(1.2749 -0.00721682 0)
(1.29839 -0.00674999 0)
(1.32142 -0.00629119 0)
(1.344 -0.00585189 0)
(1.36613 -0.00542303 0)
(1.38782 -0.00501475 0)
(1.40908 -0.00461833 0)
(1.42991 -0.00424138 0)
(1.45033 -0.00387564 0)
(1.47033 -0.00352648 0)
(1.48993 -0.00318469 0)
(1.50914 -0.00285263 0)
(1.52797 -0.00252422 0)
(1.54645 -0.00220418 0)
(1.56457 -0.00189462 0)
(1.58233 -0.001611 0)
(1.59973 -0.00135187 0)
(1.61675 -0.00112742 0)
(1.63334 -0.000901443 0)
(1.64944 -0.000645022 0)
(1.66487 -0.000345798 0)
(1.67932 7.41028e-06 0)
(1.69221 0.000447743 0)
(1.70233 0.00106091 0)
(1.70946 0.00178261 0)
(1.36463 0.99239 0)
(1.68497 0.718159 0)
(1.86631 0.411317 0)
(1.95587 0.146547 0)
(2.00525 -0.0418943 0)
(2.03124 -0.143049 0)
(2.03782 -0.152802 0)