/*--------------------------------*- C++ -*----------------------------------*\
| =========                 |                                                 |
| \\      /  F ield         | OpenFOAM: The Open Source CFD Toolbox           |
|  \\    /   O peration     | Version:  2112                                  |
|   \\  /    A nd           | Website:  www.openfoam.com                      |
|    \\/     M anipulation  |                                                 |
\*---------------------------------------------------------------------------*/
FoamFile
{
    version     2.0;
    format      ascii;
    arch        "LSB;label=32;scalar=64";
    class       surfaceScalarField;
    location    "7.5";
    object      phi;
}
// * * * * * * * * * * * * * * * * * * * * * * * * * * * * * * * * * * * * * //

dimensions      [0 3 -1 0 0 0 0];

oriented        oriented;

internalField   nonuniform List<scalar> 
17370
(
-0.091541
0.0960051
0.284547
-0.0775827
0.0593392
0.365019
-0.0427883
0.0311461
0.42781
-0.0216637
0.0155345
0.505381
-0.0109569
0.00815979
0.602199
-0.00607244
0.00469195
0.720438
-0.00353958
0.00272516
0.863721
-0.00201999
0.00149626
1.03597
-0.00102274
0.000659114
1.24287
-0.000302928
-3.98254e-05
1.49153
0.000376071
-0.000739218
1.49155
0.0011075
-0.00158539
1.24317
0.00210938
-0.00281139
1.03634
0.00362124
-0.00476709
0.864052
0.00613907
-0.00821389
0.721132
0.0109996
-0.0155664
0.603781
0.0216884
-0.0311658
0.508917
0.042805
-0.0593526
0.432716
0.077593
-0.096011
0.365194
0.0915481
0.197463
-0.127347
0.0884714
0.0388751
-0.364652
0.354393
-0.0709981
0.0812566
-0.446665
0.454247
-0.0788436
0.0712621
-0.521212
0.529119
-0.0636147
0.0557072
-0.613038
0.620923
-0.0483856
0.0405001
-0.726883
0.733763
-0.0336015
0.0267212
-0.867304
0.872211
-0.0213095
0.0164018
-1.03838
1.04165
-0.0127195
0.00945662
-1.24463
1.24689
-0.00698911
0.00473705
-1.49281
1.49451
-0.0029712
0.0012736
-1.49264
1.49413
0.000209318
-0.0017036
-1.24407
1.24581
0.0033899
-0.00512667
-1.0375
1.03993
0.00733903
-0.00976895
-0.865996
0.869652
0.012998
-0.0166539
-0.724327
0.729723
0.0215417
-0.026938
-0.608964
0.61585
0.0338068
-0.0406931
-0.515301
0.522604
0.0485608
-0.0558635
-0.439966
0.447593
0.0637484
-0.0713758
-0.374893
0.377286
0.0789373
-0.0813298
-0.257243
0.22509
0.0710469
-0.0388938
-0.0697151
0.0607052
0.00900986
-0.0488503
0.0547991
-0.375296
0.369347
-0.0532555
0.0489446
-0.453748
0.458059
-0.0434469
0.0390527
-0.527509
0.531903
-0.0347406
0.0310824
-0.62072
0.624378
-0.0273526
0.0239252
-0.734573
0.738001
-0.0202064
0.0168928
-0.873655
0.876968
-0.0134887
0.0106163
-1.04292
1.04579
-0.00770986
0.00516034
-1.24809
1.25064
-0.00233902
-0.000418357
-1.49623
1.49899
0.00315206
-0.00592194
-1.49674
1.49951
0.0084376
-0.0113108
-1.24954
1.25242
0.0141494
-0.0175039
-1.04527
1.04863
0.0207679
-0.0244251
-0.876988
0.880646
0.0277983
-0.0314686
-0.738991
0.742662
0.0350839
-0.0393501
-0.625985
0.630251
0.0437106
-0.0491816
-0.534855
0.540326
0.053465
-0.0549735
-0.458334
0.459842
0.0489803
-0.0300693
-0.33805
0.319139
0.00903207
-0.0696571
0.060625
-0.055565
0.0524121
0.00315286
-0.0265504
0.0354079
-0.361048
0.35219
-0.0387177
0.0383376
-0.460266
0.460646
-0.0357937
0.0330609
-0.535862
0.538595
-0.0300506
0.0274069
-0.627705
0.630349
-0.0244576
0.0218759
-0.740777
0.743359
-0.0190856
0.0165566
-0.879659
0.882188
-0.0137168
0.011075
-1.04849
1.05113
-0.00811604
0.00538752
-1.25329
1.25602
-0.002339
-0.000555972
-1.50191
1.5048
0.00343919
-0.00645645
-1.50245
1.50547
0.00913942
-0.0120359
-1.25529
1.25819
0.0146139
-0.0173781
-1.05152
1.05429
0.0198397
-0.0225613
-0.88353
0.886252
0.0250891
-0.0279745
-0.745908
0.748793
0.0305432
-0.03349
-0.634274
0.637221
0.0361694
-0.0386536
-0.544753
0.547237
0.0389767
-0.0355994
-0.458681
0.455304
0.0266786
-0.0126043
-0.301768
0.287693
0.00317362
-0.0554628
0.0522891
-0.0508072
0.0502296
0.000577606
-0.00956575
0.0160302
-0.344251
0.337787
-0.0211824
0.0238379
-0.459339
0.456684
-0.0252724
0.0256526
-0.539636
0.539256
-0.0256045
0.0249814
-0.631909
0.632532
-0.0238015
0.0222893
-0.745483
0.746995
-0.0202223
0.0180071
-0.88462
0.886835
-0.0153122
0.0126215
-1.05378
1.05648
-0.00945158
0.00634406
-1.2589
1.26201
-0.00273645
-0.000774708
-1.50793
1.51144
0.00427248
-0.00782999
-1.50871
1.51227
0.0108596
-0.01392
-1.26114
1.2642
0.0165105
-0.0190974
-1.057
1.05958
0.0212208
-0.0231859
-0.888689
0.890654
0.0246265
-0.0257664
-0.750741
0.751881
0.0262818
-0.0262201
-0.638566
0.638505
0.0257681
-0.0242577
-0.547551
0.546041
0.021536
-0.016303
-0.450626
0.445393
0.00975522
-0.00334296
-0.277754
0.271342
0.000611595
-0.0506573
0.0500457
-0.0500214
0.0498852
0.000136173
-0.00398422
0.00826428
-0.332552
0.328272
-0.0134799
0.017631
-0.453116
0.448965
-0.0211132
0.0230185
-0.538053
0.536148
-0.0238425
0.0239188
-0.632588
0.632511
-0.0233823
0.0223913
-0.748174
0.749165
-0.0207186
0.018751
-0.88886
0.890828
-0.0161432
0.0134125
-1.05919
1.06192
-0.0100504
0.00669171
-1.26529
1.26865
-0.0027058
-0.00120177
-1.51518
1.51909
0.00508495
-0.00898133
-1.51605
1.51994
0.0122115
-0.0154113
-1.26737
1.27057
0.0179908
-0.0204274
-1.06206
1.0645
0.0222301
-0.0237311
-0.892297
0.893798
0.0245735
-0.0249586
-0.752424
0.75281
0.0247351
-0.0238013
-0.637891
0.636957
0.0217891
-0.0181951
-0.543313
0.539719
0.0139399
-0.00860353
-0.439977
0.434641
0.00421156
-0.0011946
-0.267088
0.264071
0.000172819
-0.0498029
0.0496301
-0.0498248
0.0498312
-6.42986e-06
-0.00162775
0.00414375
-0.324892
0.322376
-0.00810431
0.011992
-0.444683
0.440795
-0.0157672
0.0184079
-0.533636
0.530995
-0.020312
0.0211635
-0.632164
0.631312
-0.0212141
0.0205877
-0.750066
0.750692
-0.0192626
0.0175733
-0.892739
0.894428
-0.015238
0.0127101
-1.06462
1.06715
-0.00954814
0.00631834
-1.272
1.27523
-0.00235302
-0.00163458
-1.52311
1.5271
0.00557438
-0.00942462
-1.52389
1.52774
0.0125472
-0.0155521
-1.27373
1.27673
0.0178723
-0.0199824
-1.06686
1.06897
0.0214843
-0.0225947
-0.895137
0.896248
0.0230309
-0.0227863
-0.752992
0.752748
0.0217302
-0.0195983
-0.635337
0.633205
0.0167625
-0.0127914
-0.535668
0.531697
0.00873506
-0.0045984
-0.429733
0.425596
0.00192906
-0.000463648
-0.26194
0.260475
4.20626e-05
-0.0495265
0.0494844
-0.0498484
0.049856
-7.63613e-06
-0.000718249
0.00197169
-0.320578
0.319325
-0.00419775
0.00663907
-0.437607
0.435166
-0.00926558
0.0113277
-0.528573
0.526511
-0.0130265
0.0140704
-0.630288
0.629244
-0.0146297
0.0146284
-0.750944
0.750945
-0.0140823
0.0131121
-0.89574
0.89671
-0.011551
0.00969973
-1.06936
1.07121
-0.00722634
0.00458733
-1.2782
1.28084
-0.00126807
-0.00209494
-1.53085
1.53421
0.00540263
-0.00857569
-1.53131
1.53449
0.0110619
-0.0133284
-1.27942
1.28169
0.0149289
-0.0161794
-1.07065
1.0719
0.0168633
-0.0171071
-0.896879
0.897123
0.0168426
-0.0159928
-0.752109
0.75126
0.0146889
-0.012722
-0.631099
0.629132
0.010427
-0.00756263
-0.528216
0.525352
0.00491834
-0.00248362
-0.422351
0.419916
0.0010536
-0.000295707
-0.259443
0.258685
4.83089e-05
-0.0494491
0.0494008
-0.0498677
0.0498947
-2.6964e-05
-0.000226048
0.000778222
-0.318477
0.317924
-0.00183504
0.00308191
-0.433385
0.432139
-0.00454167
0.00579401
-0.52486
0.523608
-0.00696156
0.00778667
-0.628276
0.627451
-0.00837485
0.00859737
-0.750791
0.750569
-0.00846674
0.00799394
-0.897399
0.897872
-0.00707241
0.00586526
-1.07272
1.07393
-0.00414223
0.0022305
-1.28312
1.28503
0.000183853
-0.00262801
-1.53712
1.53956
0.00500995
-0.00723652
-1.53719
1.53942
0.00888653
-0.0102776
-1.28351
1.2849
0.0111646
-0.0117019
-1.07277
1.0733
0.0118159
-0.0115556
-0.89707
0.89681
0.0109851
-0.0100326
-0.750312
0.749359
0.00889594
-0.00741389
-0.627386
0.625904
0.00589547
-0.00416434
-0.523093
0.521362
0.00268654
-0.00139121
-0.418134
0.416838
0.000634544
-0.000205706
-0.25812
0.257691
4.22144e-05
-0.0493525
0.0493103
-0.0499298
0.0499726
-4.28129e-05
5.26917e-05
0.000148364
-0.317583
0.317382
-0.000587066
0.00114023
-0.431295
0.430742
-0.00182679
0.00245045
-0.522703
0.52208
-0.00307301
0.00354278
-0.626803
0.626334
-0.00390938
0.00407934
-0.75035
0.75018
-0.00404927
0.00379737
-0.898202
0.898454
-0.00324597
0.00247804
-1.07489
1.07566
-0.00133695
4.41835e-05
-1.28661
1.2879
0.00159679
-0.00324288
-1.54158
1.54323
0.00481515
-0.00621987
-1.54121
1.54261
0.00718446
-0.00787826
-1.2859
1.2866
0.00822142
-0.00830429
-1.07358
1.07366
0.00812003
-0.00767674
-0.896427
0.895984
0.00708695
-0.00628115
-0.748467
0.747661
0.00543635
-0.00443563
-0.624682
0.623681
0.00349225
-0.00248062
-0.520046
0.519035
0.00164921
-0.000920935
-0.415883
0.415155
0.000469698
-0.000178471
-0.257349
0.257057
4.47766e-05
-0.0492691
0.0492243
-0.0500219
0.0500804
-5.84996e-05
0.000223934
-0.000222645
-0.317298
0.317296
0.000100968
9.08536e-05
-0.430397
0.430205
-0.00034591
0.00058379
-0.521674
0.521436
-0.000822363
0.000996803
-0.626022
0.625848
-0.00111663
0.00113964
-0.75008
0.750057
-0.00104357
0.000822399
-0.898674
0.898896
-0.000408881
-0.000139542
-1.07629
1.07684
0.00093368
-0.00181947
-1.28897
1.28986
0.0029213
-0.00399864
-1.54456
1.54564
0.00498062
-0.0057859
-1.54368
1.54449
0.00624952
-0.00650268
-1.28706
1.28731
0.00655401
-0.00638919
-1.0736
1.07344
0.0060773
-0.00559769
-0.895514
0.895035
0.00506515
-0.00441325
-0.74694
0.746288
0.00378239
-0.00307938
-0.622852
0.622149
0.00244822
-0.00179261
-0.518235
0.51758
0.00125678
-0.000770721
-0.414575
0.414088
0.000439224
-0.000190531
-0.256795
0.256546
5.49439e-05
-0.0491747
0.0491198
-0.0501454
0.0502178
-7.23771e-05
0.000365858
-0.000476106
-0.317349
0.31746
0.000536977
-0.000556378
-0.430132
0.430152
0.000559282
-0.000564564
-0.521332
0.521337
0.000586975
-0.0006339
-0.625792
0.625839
0.000726702
-0.000861881
-0.750114
0.750249
0.0010804
-0.00135835
-0.899139
0.899417
0.00176295
-0.00223046
-1.07733
1.0778
0.00285104
-0.00350252
-1.29061
1.29126
0.00427222
-0.00497773
-1.54651
1.54721
0.00556245
-0.00597963
-1.54509
1.5455
0.00615852
-0.00612953
-1.28739
1.28736
0.00594307
-0.00561766
-1.07319
1.07286
0.00522867
-0.00472846
-0.894547
0.894047
0.00423
-0.00366142
-0.745687
0.745119
0.00313877
-0.0025779
-0.621533
0.620972
0.00208742
-0.00158414
-0.517018
0.516515
0.00116775
-0.000771266
-0.41366
0.413264
0.000473821
-0.000222146
-0.2563
0.256049
6.87166e-05
-0.0490584
0.0489897
-0.0502993
0.0503921
-9.2882e-05
0.000510665
-0.000722271
-0.317624
0.317836
0.00092037
-0.00108236
-0.430247
0.430409
0.00125878
-0.00143226
-0.521432
0.521606
0.00164372
-0.00186182
-0.625975
0.626193
0.00213378
-0.00241822
-0.75046
0.750744
0.00277596
-0.00314989
-0.899739
0.900113
0.00361525
-0.00408947
-1.07826
1.07874
0.00465524
-0.00519476
-1.29184
1.29238
0.00577375
-0.00623893
-1.54779
1.54825
0.00655155
-0.00667007
-1.54576
1.54588
0.00660389
-0.00639791
-1.28725
1.28705
0.0060761
-0.00563355
-1.07248
1.07203
0.00517084
-0.00462845
-0.893529
0.892987
0.00411908
-0.00356211
-0.744564
0.744007
0.00306581
-0.00254478
-0.620442
0.61992
0.00209536
-0.00163569
-0.516044
0.515584
0.00124919
-0.000864854
-0.41288
0.412496
0.000554843
-0.00027108
-0.255784
0.2555
8.67636e-05
-0.0489125
0.0488257
-0.0504975
0.0506165
-0.000118959
0.000678092
-0.00098479
-0.318095
0.318401
0.00130284
-0.0015878
-0.430633
0.430918
0.00191075
-0.00222699
-0.521852
0.522168
0.00260214
-0.00297355
-0.626489
0.62686
0.00341366
-0.0038473
-0.751102
0.751536
0.00435729
-0.00485329
-0.900545
0.901041
0.00542491
-0.00596288
-1.07924
1.07977
0.00655204
-0.00706295
-1.2929
1.29341
0.00754937
-0.00786965
-1.54863
1.54895
0.00799819
-0.00791362
-1.54589
1.5458
0.00766675
-0.00726129
-1.28673
1.28633
0.00680665
-0.0062376
-1.07153
1.07096
0.00568339
-0.00506095
-0.89241
0.891787
0.00449477
-0.00389005
-0.743433
0.742828
0.00336027
-0.00281069
-0.619393
0.618843
0.00233995
-0.00185859
-0.51512
0.514639
0.00144872
-0.0010289
-0.412099
0.411679
0.000674794
-0.00033628
-0.255192
0.254853
0.000109314
-0.0487284
0.0486191
-0.0507509
0.0509028
-0.000151974
0.000880362
-0.00129314
-0.318759
0.319172
0.00173733
-0.00214662
-0.431264
0.431674
0.00261593
-0.00307496
-0.522555
0.523014
0.00361534
-0.00414426
-0.627309
0.627838
0.00476154
-0.00535788
-0.752048
0.752645
0.00604223
-0.00668807
-0.901608
0.902254
0.00740577
-0.00805231
-1.08036
1.08101
0.00872307
-0.00926456
-1.29393
1.29447
0.00972596
-0.00996168
-1.54923
1.54946
0.00995583
-0.0096996
-1.54563
1.54537
0.00929044
-0.00870435
-1.28583
1.28525
0.00809061
-0.00736598
-1.07032
1.0696
0.00668343
-0.00593511
-0.891108
0.890359
0.00526628
-0.0045611
-0.74218
0.741474
0.00394897
-0.00331814
-0.618259
0.617628
0.00277974
-0.00222903
-0.514128
0.513577
0.0017564
-0.00126379
-0.411227
0.410735
0.000837885
-0.000421461
-0.254479
0.254062
0.000137943
-0.0484963
0.0483583
-0.0510752
0.0512704
-0.000195245
0.00113802
-0.001679
-0.319645
0.320186
0.00226941
-0.00281915
-0.43215
0.4327
0.00345217
-0.00407118
-0.523549
0.524168
0.00479767
-0.00550549
-0.628452
0.62916
0.00632636
-0.00711288
-0.753332
0.754118
0.0080057
-0.00883663
-0.902987
0.903818
0.00974349
-0.0105417
-1.08173
1.08252
0.0113441
-0.0119625
-1.29504
1.29566
0.0124466
-0.0126342
-1.54967
1.54986
0.0125169
-0.0120934
-1.54503
1.54461
0.0115113
-0.0107255
-1.28457
1.28378
0.00992701
-0.0090064
-1.06878
1.06786
0.00815361
-0.00722997
-0.88953
0.888607
0.00641199
-0.00555523
-0.7407
0.739843
0.00481524
-0.0040552
-0.616939
0.616178
0.00340775
-0.00274537
-0.512976
0.512314
0.00217454
-0.0015742
-0.410193
0.409592
0.00104872
-0.000529501
-0.253598
0.253079
0.000173711
-0.0482035
0.0480298
-0.0514927
0.0517444
-0.00025176
0.00147015
-0.00217238
-0.320802
0.321505
0.00294308
-0.00366367
-0.433329
0.43405
0.00449438
-0.00530624
-0.524878
0.52569
0.00625694
-0.00718078
-0.62997
0.630894
0.00824849
-0.00926694
-0.755015
0.756033
0.0104164
-0.0114781
-0.904758
0.90582
0.0126255
-0.0136221
-1.08341
1.08441
0.0146049
-0.0153403
-1.29633
1.29707
0.0158818
-0.0160402
-1.55003
1.55019
0.0158132
-0.0152067
-1.5441
1.54349
0.0144228
-0.0133974
-1.28288
1.28185
0.0123721
-0.0112035
-1.06682
1.06565
0.0101303
-0.00897536
-0.887575
0.88642
0.00795749
-0.006895
-0.738891
0.737828
0.00597946
-0.00504058
-0.615336
0.614397
0.00424156
-0.00342404
-0.51158
0.510762
0.00271815
-0.00197264
-0.408925
0.408179
0.00131651
-0.000665414
-0.252498
0.251847
0.000218339
-0.047835
0.0476166
-0.0520329
0.0523592
-0.000326296
0.00190406
-0.00281404
-0.322303
0.323213
0.00381485
-0.00475182
-0.434868
0.435805
0.00583116
-0.00688441
-0.526614
0.527667
0.00811466
-0.0093075
-0.631946
0.633139
0.0106825
-0.0119904
-0.75719
0.758497
0.0134608
-0.0148123
-0.907019
0.90837
0.0162629
-0.0175112
-1.08553
1.08677
0.0187257
-0.019615
-1.29788
1.29877
0.0202395
-0.0203736
-1.55033
1.55047
0.0200213
-0.0191961
-1.54278
1.54196
0.0181657
-0.0168415
-1.28069
1.27936
0.0155311
-0.0140479
-1.06433
1.06285
0.0126925
-0.0112396
-0.885125
0.883672
0.00996245
-0.00863212
-0.73664
0.73531
0.00748742
-0.00631464
-0.613349
0.612176
0.00531693
-0.00429587
-0.50985
0.508829
0.00341314
-0.00247894
-0.407346
0.406412
0.00165491
-0.000836147
-0.251117
0.250298
0.000274095
-0.0473721
0.047098
-0.0527359
0.0531622
-0.000426326
0.00247938
-0.0036625
-0.324244
0.325427
0.00496493
-0.00618328
-0.436861
0.438079
0.0075821
-0.0089418
-0.528863
0.530222
0.0105244
-0.0120557
-0.634497
0.636029
0.0138172
-0.0154895
-0.759982
0.761654
0.0173642
-0.0190801
-0.909894
0.91161
0.0209105
-0.0224728
-1.08817
1.08973
0.0239744
-0.0250525
-1.29975
1.30082
0.0257759
-0.0258756
-1.55059
1.55069
0.0253634
-0.0242628
-1.541
1.5399
0.0229222
-0.0212213
-1.27786
1.27616
0.0195512
-0.0176702
-1.06118
1.0593
0.015958
-0.0141272
-0.882039
0.880208
0.0125209
-0.0108496
-0.733817
0.732146
0.0094124
-0.00793995
-0.610863
0.609391
0.00668674
-0.00540319
-0.507688
0.506405
0.00429258
-0.00311657
-0.405367
0.404191
0.00207935
-0.00104944
-0.24938
0.24835
0.000343499
-0.0467916
0.0464481
-0.0536571
0.0542232
-0.000566085
0.00326249
-0.0048133
-0.326761
0.328312
0.00651912
-0.00810562
-0.43944
0.441026
0.00991282
-0.0116569
-0.531773
0.533517
0.0136792
-0.0156347
-0.637787
0.639742
0.0178842
-0.0200192
-0.763557
0.765692
0.022407
-0.0245834
-0.913539
0.915716
0.026889
-0.028838
-1.09147
1.09342
0.0306858
-0.0319835
-1.302
1.3033
0.0328093
-0.0328463
-1.55076
1.5508
0.0321185
-0.0306619
-1.53864
1.53718
0.0289271
-0.0267503
-1.27423
1.27206
0.0246273
-0.0222465
-1.05718
1.0548
0.0200862
-0.0177815
-0.878146
0.875842
0.0157629
-0.0136644
-0.730266
0.728167
0.0118598
-0.0100093
-0.607741
0.60589
0.00843145
-0.00681192
-0.504975
0.503355
0.00540848
-0.00392252
-0.402879
0.401393
0.00261441
-0.00131812
-0.247197
0.245901
0.000431283
-0.0460659
0.0456346
-0.0548747
0.0556459
-0.000771172
0.00436771
-0.00642293
-0.330039
0.332094
0.00866502
-0.0107172
-0.442792
0.444845
0.0130226
-0.0152321
-0.535553
0.537763
0.0177938
-0.0202832
-0.642031
0.64452
0.0231595
-0.0258939
-0.768123
0.770857
0.028944
-0.0317064
-0.91814
0.920902
0.0346042
-0.0370221
-1.09556
1.09798
0.0392742
-0.0408118
-1.3047
1.30624
0.041724
-0.0416458
-1.55078
1.5507
0.0406198
-0.0387
-1.5355
1.53358
0.036464
-0.03369
-1.26959
1.26682
0.0310024
-0.0280006
-1.05211
1.04911
0.0252854
-0.0223953
-0.873237
0.870347
0.0198686
-0.0172444
-0.725794
0.72317
0.0149869
-0.0126674
-0.603813
0.601494
0.0106819
-0.00863359
-0.501565
0.499517
0.00685098
-0.00496142
-0.399752
0.397863
0.0033035
-0.00166557
-0.244456
0.242818
0.000546573
-0.0451617
0.0446151
-0.056508
0.0575856
-0.00107767
0.00596629
-0.00871181
-0.334344
0.33709
0.0116415
-0.0142523
-0.447193
0.449803
0.0171412
-0.0199122
-0.540493
0.543264
0.0231579
-0.0263508
-0.647506
0.650698
0.0300674
-0.0335987
-0.773935
0.777466
0.0375095
-0.0410094
-0.923907
0.927407
0.0446261
-0.0475875
-1.10058
1.10354
0.0502799
-0.0520485
-1.30784
1.30961
0.0529911
-0.0527064
-1.5505
1.55021
0.0512649
-0.0487434
-1.53136
1.52884
0.0458762
-0.0423624
-1.26368
1.26017
0.0389805
-0.0352184
-1.04572
1.04196
0.0318258
-0.0282238
-0.867061
0.863459
0.0250819
-0.0218242
-0.720168
0.71691
0.0190221
-0.0161372
-0.59887
0.595985
0.0136529
-0.0110655
-0.497278
0.494691
0.0087894
-0.00635914
-0.395827
0.393397
0.00423073
-0.00213524
-0.241019
0.238924
0.00070589
-0.0440385
0.0433326
-0.0587538
0.060295
-0.00154119
0.00834604
-0.0120449
-0.340077
0.343776
0.0158589
-0.019161
-0.453018
0.45632
0.0227804
-0.0262997
-0.546961
0.55048
0.0305009
-0.0346784
-0.654553
0.65873
0.0395394
-0.0441042
-0.781305
0.785869
0.0490731
-0.0534298
-0.931074
0.935431
0.0578337
-0.0613486
-1.1066
1.11011
0.0644371
-0.0663528
-1.31135
1.31326
0.0671885
-0.0665399
-1.5497
1.54905
0.0645145
-0.0612147
-1.52591
1.52261
0.0575647
-0.0531508
-1.25619
1.25178
0.0489328
-0.044258
-1.03771
1.03303
0.040051
-0.0355929
-0.859326
0.854868
0.0317132
-0.0277009
-0.713107
0.709094
0.0242558
-0.0207089
-0.592647
0.589101
0.017637
-0.0143973
-0.491879
0.488639
0.011491
-0.00832811
-0.3909
0.387737
0.00553965
-0.00279456
-0.236714
0.233969
0.00092961
-0.0426427
0.0417131
-0.0619419
0.0642565
-0.0023146
0.012206
-0.0172821
-0.347834
0.35291
0.0222863
-0.0265253
-0.460788
0.465027
0.0311636
-0.035769
-0.555444
0.560049
0.0413469
-0.0468658
-0.663621
0.66914
0.0531708
-0.0589328
-0.790608
0.796369
0.0650354
-0.0702383
-0.939842
0.945045
0.0753492
-0.0792925
-1.11361
1.11756
0.0825894
-0.0844458
-1.31501
1.31687
0.0849195
-0.0836591
-1.54802
1.54676
0.0808164
-0.0765209
-1.51878
1.51448
0.071916
-0.0664318
-1.2468
1.24132
0.0612336
-0.0554934
-1.02776
1.02202
0.0503309
-0.0448584
-0.849724
0.844252
0.0400961
-0.0351764
-0.704298
0.699378
0.0309597
-0.0266266
-0.584831
0.580498
0.0228635
-0.0188564
-0.485056
0.481049
0.0151811
-0.0110733
-0.384676
0.380568
0.00738104
-0.00370944
-0.231297
0.227626
0.00122699
-0.0408877
0.0396608
-0.0666551
0.0704875
-0.00383243
0.0191821
-0.0262717
-0.358639
0.365729
0.0328304
-0.0383218
-0.471371
0.476863
0.04441
-0.0505541
-0.566634
0.572778
0.0579535
-0.0650664
-0.67527
0.682383
0.0728988
-0.0798001
-0.802145
0.809046
0.0868783
-0.0927234
-0.950173
0.956018
0.0982628
-0.102337
-1.12131
1.12538
0.105484
-0.106935
-1.31835
1.3198
0.10667
-0.104463
-1.54492
1.54272
0.100514
-0.0949783
-1.50951
1.50398
0.0892411
-0.0825303
-1.23518
1.22847
0.0762306
-0.0693028
-1.0156
1.00867
0.0630727
-0.0564511
-0.837974
0.831352
0.0506655
-0.0446668
-0.69344
0.687441
0.0395103
-0.0342021
-0.575088
0.56978
0.0295816
-0.0246415
-0.476423
0.471483
0.0200255
-0.0147536
-0.37669
0.371418
0.00988451
-0.0049522
-0.22434
0.219408
0.00160883
-0.0386255
0.0370166
-0.0741097
0.081403
-0.00729332
0.0332477
-0.0435311
-0.374531
0.384814
0.0520369
-0.0590695
-0.485977
0.49301
0.0670978
-0.0751383
-0.58128
0.589321
0.0844279
-0.0928874
-0.689857
0.698317
0.101778
-0.109307
-0.815752
0.823281
0.116751
-0.122649
-0.961503
0.967401
0.127958
-0.131554
-1.12891
1.1325
0.13392
-0.134407
-1.32055
1.32103
0.132868
-0.129284
-1.53967
1.53609
0.123899
-0.116885
-1.49761
1.4906
0.109867
-0.101837
-1.22104
1.21301
0.0943837
-0.0862443
-1.00103
0.992895
0.0789378
-0.0711632
-0.8239
0.816125
0.0643421
-0.0572299
-0.680307
0.673195
0.0510723
-0.0447015
-0.563112
0.556741
0.0391486
-0.0331782
-0.465528
0.459558
0.0274105
-0.0204164
-0.366253
0.359258
0.0136243
-0.00665296
-0.215021
0.20805
0.00206121
-0.0356654
0.0336042
-0.0886397
0.0915401
-0.00290042
0.0205352
-0.0295128
-0.398388
0.407366
0.0378655
-0.0456067
-0.505573
0.513314
0.0549327
-0.0646818
-0.599202
0.608951
0.0753685
-0.084899
-0.706495
0.716026
0.0955056
-0.104887
-0.830101
0.839483
0.114625
-0.122969
-0.972401
0.980744
0.131259
-0.137909
-1.13505
1.1417
0.143844
-0.147762
-1.3204
1.32432
0.149914
-0.149435
-1.53134
1.53086
0.146181
-0.14053
-1.48258
1.47693
0.1338
-0.125168
-1.20421
1.19558
0.116654
-0.106347
-0.984071
0.973763
0.0968005
-0.0862019
-0.807579
0.796981
0.076635
-0.0663875
-0.664969
0.654721
0.0570678
-0.0474772
-0.548858
0.539267
0.0392638
-0.0301794
-0.452087
0.443002
0.0218793
-0.0132022
-0.352384
0.343706
0.0065635
-0.00192944
-0.201611
0.196977
2.00408e-05
-0.0316063
0.0315863
-0.0986538
0.0942606
0.0043932
-0.00322413
-0.00202098
-0.419592
0.424837
0.00937214
-0.0164124
-0.524886
0.531926
0.0252389
-0.033608
-0.618823
0.627192
0.0430991
-0.0517555
-0.725505
0.734161
0.0609877
-0.0693564
-0.848362
0.856731
0.0780627
-0.0852697
-0.988796
0.996003
0.0926749
-0.0983297
-1.14824
1.1539
0.103386
-0.106501
-1.3281
1.33121
0.107708
-0.106624
-1.52982
1.52873
0.102979
-0.0971755
-1.47077
1.46497
0.0903551
-0.0819217
-1.18676
1.17833
0.0737907
-0.0644691
-0.963521
0.954199
0.055722
-0.0459956
-0.786018
0.776292
0.0372912
-0.0283593
-0.643121
0.634189
0.0207529
-0.012945
-0.527544
0.519736
0.00629256
0.000158566
-0.43133
0.424879
-0.00499476
0.00835696
-0.333238
0.329876
-0.00856172
0.0059919
-0.190004
0.192573
-0.00264545
-0.0301199
0.0327654
-0.0961392
0.0919027
0.00423652
-0.00996557
0.0077985
-0.433874
0.436041
-0.00300324
-0.00263061
-0.541252
0.546886
0.00968725
-0.0166835
-0.635733
0.642729
0.0245835
-0.0318259
-0.742316
0.749558
0.0397697
-0.0468468
-0.864437
0.871515
0.0540186
-0.0603212
-1.00304
1.00935
0.0666447
-0.0716075
-1.15918
1.16415
0.0757072
-0.0781201
-1.33384
1.33625
0.0791138
-0.077959
-1.52731
1.52615
0.0745586
-0.0693809
-1.45911
1.45394
0.0634773
-0.0564795
-1.17041
1.16342
0.0495426
-0.0419558
-0.945302
0.937715
0.0349965
-0.0274162
-0.76754
0.75996
0.0209662
-0.0143846
-0.625394
0.618812
0.00902413
-0.00357524
-0.510844
0.505396
-0.000580415
0.00422585
-0.416531
0.412886
-0.00669878
0.00769246
-0.323317
0.322323
-0.00641079
0.00377448
-0.189312
0.191948
-0.00157295
-0.0325497
0.0341227
-0.0925885
0.0887611
0.00382738
-0.0116022
0.011206
-0.442839
0.443235
-0.00806344
0.00358186
-0.553889
0.55837
0.00233451
-0.0079476
-0.649417
0.65503
0.0144452
-0.0204399
-0.756506
0.762501
0.0269914
-0.0328582
-0.878122
0.883989
0.0391874
-0.0444091
-1.01525
1.02047
0.0498755
-0.0537972
-1.1688
1.17272
0.0573944
-0.0595502
-1.33865
1.3408
0.0603577
-0.0591472
-1.52493
1.52372
0.0563734
-0.0521553
-1.44879
1.44457
0.0473077
-0.0413314
-1.15684
1.15087
0.0357743
-0.029819
-0.93057
0.924615
0.0242801
-0.0186289
-0.753124
0.747473
0.0135402
-0.00861418
-0.612191
0.607265
0.00463777
-0.000984646
-0.499211
0.495558
-0.0016352
0.00387284
-0.406874
0.404636
-0.00532921
0.00552142
-0.317433
0.317241
-0.00454373
0.00270559
-0.189052
0.19089
-0.00115846
-0.0333301
0.0344885
-0.0895217
0.086536
0.00298571
-0.0107068
0.0114277
-0.44856
0.447839
-0.00897523
0.00552598
-0.564141
0.56759
-0.000915622
-0.00390986
-0.66059
0.665415
0.00910877
-0.0141595
-0.768057
0.773108
0.0195841
-0.0244739
-0.889454
0.894343
0.0297134
-0.0342448
-1.02557
1.0301
0.038795
-0.0424153
-1.17659
1.18021
0.0455738
-0.0475128
-1.34277
1.34471
0.0483378
-0.0473998
-1.52267
1.52173
0.045161
-0.0415385
-1.44018
1.43656
0.0375314
-0.0327354
-1.14538
1.14058
0.0281993
-0.0232467
-0.918916
0.913964
0.0188561
-0.0142847
-0.742065
0.737494
0.0103633
-0.00646823
-0.602389
0.598494
0.00341651
-0.000646339
-0.490925
0.488155
-0.00146835
0.00311671
-0.4002
0.398552
-0.00395084
0.00424865
-0.313238
0.31294
-0.00359939
0.0020448
-0.187754
0.189309
-0.000920573
-0.0335162
0.0344368
-0.0873941
0.0850541
0.00234006
-0.00906598
0.00988523
-0.45228
0.451461
-0.00850281
0.00566845
-0.571831
0.574666
-0.00157924
-0.00228039
-0.6697
0.67356
0.0065003
-0.0106722
-0.777571
0.781743
0.0152732
-0.0194695
-0.89891
0.903106
0.0241195
-0.0279843
-1.03437
1.03824
0.0320249
-0.0352906
-1.18363
1.1869
0.0381379
-0.0399355
-1.34655
1.34834
0.0407841
-0.0404287
-1.52095
1.5206
0.0385776
-0.0356872
-1.43288
1.42998
0.0322845
-0.0281931
-1.13598
1.13189
0.0245415
-0.0202122
-0.909244
0.904915
0.0164314
-0.0126364
-0.733116
0.729321
0.00931557
-0.00599947
-0.594684
0.591368
0.00334237
-0.000756074
-0.484487
0.481901
-0.000900844
0.00229633
-0.394903
0.393508
-0.00325016
0.00352164
-0.309409
0.309138
-0.0029387
0.00172753
-0.186257
0.187468
-0.000753104
-0.0333936
0.0341467
-0.0860819
0.0843337
0.00174811
-0.00720377
0.00809206
-0.455016
0.454127
-0.00689393
0.00479057
-0.578338
0.580442
-0.0013184
-0.00194296
-0.67717
0.680431
0.00576451
-0.0091488
-0.785662
0.789046
0.0129833
-0.0165344
-0.907277
0.910828
0.0208192
-0.0242298
-1.04212
1.04553
0.0277398
-0.030818
-1.19002
1.1931
0.0338567
-0.0356072
-1.35027
1.35202
0.0366838
-0.0365148
-1.52006
1.51989
0.0353402
-0.0327061
-1.42714
1.42451
0.0299244
-0.0264946
-1.12789
1.12446
0.0231759
-0.0195051
-0.900828
0.897158
0.0160948
-0.0125194
-0.725434
0.721859
0.00973234
-0.00662756
-0.58794
0.584836
0.00405814
-0.00178073
-0.478713
0.476435
5.8699e-05
0.00145076
-0.390383
0.388874
-0.00228588
0.00263567
-0.3061
0.30575
-0.00225687
0.001352
-0.184668
0.185573
-0.000611291
-0.0330985
0.0337098
-0.0854826
0.0841173
0.00136536
-0.00561947
0.00648134
-0.4572
0.456338
-0.00535195
0.00342958
-0.583691
0.585614
-0.000479681
-0.00223557
-0.683502
0.686218
0.00529221
-0.00843314
-0.792475
0.795616
0.0118114
-0.0153937
-0.914197
0.917779
0.018894
-0.0220452
-1.04899
1.05215
0.0256096
-0.0284304
-1.19608
1.1989
0.031032
-0.0332353
-1.35377
1.35598
0.0346007
-0.034846
-1.51993
1.52018
0.0339795
-0.0320341
-1.42223
1.42028
0.0296446
-0.0265642
-1.12087
1.11779
0.0236076
-0.0201964
-0.893471
0.89006
0.0170222
-0.0137969
-0.718387
0.715162
0.0108568
-0.00793575
-0.581595
0.578674
0.00553433
-0.00309513
-0.473538
0.471099
0.00123514
0.000128141
-0.385918
0.384554
-0.00108695
0.0016898
-0.302844
0.302242
-0.00163031
0.000992062
-0.182936
0.183574
-0.000479745
-0.0326865
0.0331663
-0.08546
0.0842612
0.00119887
-0.00419022
0.00473947
-0.459241
0.458692
-0.00384289
0.00203848
-0.588315
0.59012
0.000437329
-0.00293489
-0.689052
0.69155
0.00574162
-0.00842618
-0.798634
0.801318
0.0118183
-0.0145718
-0.920818
0.923571
0.0179398
-0.0208305
-1.05542
1.05831
0.0241975
-0.0271456
-1.20169
1.20464
0.0299963
-0.0320111
-1.358
1.36001
0.0337762
-0.0345101
-1.52049
1.52123
0.0343449
-0.032758
-1.41836
1.41677
0.030776
-0.027999
-1.11487
1.11209
0.0252768
-0.0219737
-0.886487
0.883184
0.0189948
-0.0157113
-0.711731
0.708448
0.0127969
-0.00979596
-0.575558
0.572557
0.00722095
-0.00488527
-0.468237
0.465901
0.00284207
-0.00125804
-0.381509
0.379924
2.58149e-05
0.000744805
-0.299428
0.298658
-0.000913773
0.000697937
-0.180897
0.181113
-0.000337683
-0.0321101
0.0324477
-0.0856225
0.0846868
0.000935705
-0.00312256
0.00318779
-0.461461
0.461396
-0.0025165
0.000791744
-0.592098
0.593823
0.00125646
-0.00355852
-0.69393
0.696232
0.00613306
-0.00886092
-0.803923
0.806651
0.0115887
-0.0143957
-0.926501
0.929308
0.0176133
-0.0202067
-1.06157
1.06416
0.0235578
-0.0263842
-1.20739
1.21021
0.0292345
-0.0317563
-1.36245
1.36497
0.0340391
-0.0351496
-1.52212
1.52323
0.0353312
-0.0344844
-1.41547
1.41463
0.0330152
-0.0305034
-1.10925
1.10674
0.0278724
-0.0248536
-0.879818
0.8768
0.0215671
-0.0183945
-0.704923
0.70175
0.0154186
-0.0122289
-0.569548
0.566359
0.00966093
-0.00702273
-0.46281
0.460172
0.00486958
-0.0028454
-0.377116
0.375091
0.00146815
-0.000391891
-0.295817
0.29474
-0.00021519
0.000371748
-0.178535
0.178379
-0.000249118
-0.0312895
0.0315387
-0.0860608
0.085227
0.000833781
-0.00237339
0.00248151
-0.463825
0.463717
-0.00132076
-7.07079e-05
-0.59583
0.597222
0.00217661
-0.00429239
-0.698203
0.700319
0.0066528
-0.00893922
-0.809092
0.811378
0.0116931
-0.014112
-0.932091
0.93451
0.0171683
-0.0200584
-1.06715
1.07004
0.0229487
-0.0259937
-1.21306
1.21611
0.0291677
-0.0317487
-1.36743
1.37001
0.0344318
-0.0364026
-1.52467
1.52664
0.0371649
-0.0370607
-1.41382
1.41372
0.0358545
-0.0337527
-1.10433
1.10223
0.0314103
-0.0283554
-0.873407
0.870353
0.0252006
-0.0218633
-0.698092
0.694754
0.0187524
-0.0153116
-0.562993
0.559553
0.0124283
-0.00961499
-0.457073
0.45426
0.00706294
-0.00477205
-0.37216
0.369869
0.00305176
-0.00164522
-0.291727
0.29032
0.000737007
-8.83375e-05
-0.175815
0.175167
-0.00010088
-0.0302967
0.0303976
-0.0866259
0.0859246
0.000701296
-0.00158175
0.00153977
-0.466197
0.466239
-0.000557847
-0.00100112
-0.599049
0.600608
0.00293478
-0.0048351
-0.702131
0.704031
0.00719349
-0.00926586
-0.813641
0.815714
0.0117805
-0.0142138
-0.937329
0.939762
0.0170586
-0.0197994
-1.07274
1.07548