/*--------------------------------*- C++ -*----------------------------------*\
| =========                 |                                                 |
| \\      /  F ield         | OpenFOAM: The Open Source CFD Toolbox           |
|  \\    /   O peration     | Version:  2112                                  |
|   \\  /    A nd           | Website:  www.openfoam.com                      |
|    \\/     M anipulation  |                                                 |
\*---------------------------------------------------------------------------*/
FoamFile
{
    version     2.0;
    format      ascii;
    arch        "LSB;label=32;scalar=64";
    class       volScalarField;
    location    "0.5";
    object      Ma;
}
// * * * * * * * * * * * * * * * * * * * * * * * * * * * * * * * * * * * * * //

dimensions      [0 0 0 0 0 0 0];

internalField   nonuniform List<scalar> 
7000
(
3.00001
3.00001
3
3
3
3
3
3
3
3
3
3
3.00001
3.00001
3.00001
3
2.99997
2.9998
2.99953
2.99845
2.99705
2.99142
2.98513
2.95222
2.90192
2.72771
2.36739
1.54816
0.61762
0.194613
0.29198
0.325398
0.316881
0.295221
0.269107
0.248277
0.232091
0.215235
0.198438
0.181882
0.166102
0.151108
0.13645
0.120256
0.100002
0.0802897
0.0604708
0.0450352
0.0271669
0.0119766
3.00001
3.00001
3
3
3
3
3
3
3
3
3
3.00001
3.00001
3.00001
3.00001
3
2.99997
2.99981
2.99955
2.99852
2.99717
2.99179
2.98573
2.95407
2.90575
2.73777
2.38679
1.5837
0.639852
0.199272
0.285494
0.318568
0.312735
0.292356
0.26604
0.244531
0.22756
0.210484
0.193515
0.176959
0.161163
0.146067
0.131365
0.115296
0.0958658
0.0777646
0.05978
0.0462118
0.0304249
0.0223103
3.00001
3.00001
3
3
3
3
3
3
3
3
3
3.00001
3.00001
3.00001
3.00001
3
2.99997
2.99981
2.99957
2.99857
2.99728
2.9921
2.98618
2.9555
2.90825
2.74415
2.39738
1.60347
0.655808
0.205736
0.27996
0.312821
0.310473
0.291758
0.265948
0.244529
0.227563
0.210345
0.193523
0.177109
0.161493
0.146747
0.13239
0.116741
0.0981191
0.0811751
0.0647493
0.0531436
0.0404624
0.0356571
3.00001
3
3
3
3
3
3
3
3
3
3
3.00001
3.00001
3.00001
3.00001
3
2.99998
2.99982
2.99959
2.99865
2.99741
2.99251
2.9868
2.95749
2.9117
2.75374
2.41341
1.63543
0.682221
0.222404
0.279065
0.310727
0.312127
0.29436
0.26833
0.246751
0.229795
0.212428
0.195794
0.179568
0.164174
0.14996
0.136198
0.12123
0.103635
0.0878851
0.0729404
0.0630305
0.0527425
0.0492319
3.00001
3.00001
3
3
3
3
3
3
3
3
3
3.00001
3.00001
3.00001
3.00001
3
2.99998
2.99983
2.99962
2.99873
2.99757
2.99296
2.98753
2.95987
2.91553
2.76572
2.43089
1.67505
0.714055
0.243624
0.276334
0.307533
0.315121
0.29873
0.272713
0.251096
0.23426
0.216767
0.200277
0.184311
0.169169
0.155547
0.142437
0.128255
0.111676
0.0970402
0.083418
0.0747981
0.0661651
0.0632866
3.00001
3.00001
3
3
3
3
3
3
3
3
3
3
3.00001
3.00001
3.00001
3
2.99998
2.99985
2.99965
2.99883
2.99775
2.9935
2.9884
2.96267
2.92009
2.78039
2.45163
1.7295
0.752962
0.270101
0.271193
0.305456
0.320707
0.304991
0.278845
0.257245
0.24065
0.223147
0.20684
0.191258
0.17646
0.163396
0.151026
0.137694
0.122052
0.108396
0.0958175
0.0880782
0.0805585
0.0780443
3.00001
3.00001
3
3
3
3
3
3
3
3
3
3
3.00001
3.00001
3.00001
3
2.99998
2.99986
2.99968
2.99894
2.99794
2.99415
2.98937
2.96587
2.92553
2.79598
2.47777
1.79664
0.803679
0.301264
0.2637
0.306775
0.328076
0.312666
0.286551
0.265169
0.248818
0.231431
0.21537
0.200201
0.185895
0.173414
0.16181
0.149359
0.134513
0.121684
0.109931
0.102698
0.0958669
0.0935529
3.00001
3.00001
3
3
3
3
3
3
3
3
3
3
3.00001
3.00001
3.00001
3
2.99998
2.99987
2.99971
2.99905
2.99815
2.99492
2.99031
2.96958
2.93148
2.8118
2.51016
1.87436
0.869789
0.338683
0.255095
0.310851
0.337387
0.322047
0.296078
0.274911
0.258761
0.241498
0.225744
0.211052
0.197311
0.185445
0.17462
0.163074
0.148989
0.136814
0.125566
0.118573
0.112145
0.109934
3.00001
3.00001
3
3
3
3
3
3
3
3
3
3
3.00001
3
3.00001
3
2.99998
2.99988
2.99973
2.99914
2.99833
2.99559
2.99116
2.97387
2.93702
2.8299
2.54931
1.96207
0.955535
0.384866
0.24735
0.317596
0.349036
0.333269
0.307569
0.286489
0.270436
0.253306
0.237867
0.223757
0.210628
0.199383
0.189372
0.17877
0.165351
0.153762
0.142858
0.135868
0.129592
0.127348
3.00001
3.00001
3.00001
3
3
3
3
3
3
3
3
3
3
3
3.00001
3
2.99998
2.99989
2.99975
2.99921
2.99847
2.99601
2.99201
2.97732
2.94352
2.85092
2.59164
2.06668
1.06693
0.443027
0.243804
0.32744
0.362668
0.345981
0.320863
0.299801
0.283702
0.266725
0.251749
0.238228
0.225804
0.215245
0.205986
0.196388
0.183696
0.172469
0.161763
0.154706
0.14834
0.14605
3.00001
3.00001
3.00001
3
3
3
3
3
3
3
3
3
3
3
3
3
2.99998
2.99989
2.99976
2.99926
2.99858
2.99623
2.99283
2.97957
2.95042
2.87075
2.64252
2.18742
1.21636
0.514714
0.247199
0.33987
0.37665
0.359159
0.335386
0.314566
0.298383
0.281669
0.267266
0.254484
0.242783
0.232954
0.224493
0.216002
0.204096
0.193201
0.182663
0.175412
0.168942
0.166413
3.00001
3.00001
3.00001
3.00001
3
3
3
3
3
3
3
3
3
3
3
3
2.99998
2.9999
2.99978
2.99931
2.99868
2.99642
2.99353
2.98043
2.95763
2.88653
2.69892
2.30483
1.41859
0.595539
0.254295
0.351471
0.387293
0.371525
0.350336
0.330496
0.31437
0.29813
0.284371
0.272518
0.261654
0.252582
0.244963
0.237615
0.226575
0.21589
0.205623
0.198328
0.191326
0.188723
3.00001
3.00001
3.00001
3.00001
3.00001
3
3
3
3
3
3
3
3
3
3
3
2.99999
2.99991
2.9998
2.99938
2.9988
2.99674
2.99414
2.98196
2.96267
2.89757
2.74333
2.39079
1.61207
0.675468
0.274086
0.363067
0.393043
0.3823
0.365192
0.347382
0.331469
0.316106
0.303103
0.292351
0.282493
0.274337
0.267637
0.261482
0.251652
0.241165
0.231093
0.223872
0.216876
0.213763
3.00001
3.00001
3.00001
3.00001
3.00001
3.00001
3.00001
3
3
3
3
3
3.00001
3
3
3
2.99999
2.99992
2.99983
2.99946
2.99896
2.99715
2.99485
2.9837
2.96763
2.90699
2.77686
2.45352
1.72691
0.784295
0.323607
0.369204
0.391748
0.392822
0.381081
0.365215
0.349798
0.335567
0.323549
0.314048
0.305452
0.298335
0.29266
0.287821
0.279265
0.269612
0.26005
0.252859
0.245134
0.242229
3.00001
3.00001
3.00001
3.00001
3.00001
3.00001
3.00001
3.00001
3.00001
3.00001
3.00001
3.00001
3.00001
3.00001
3
3
2.99999
2.99993
2.99986
2.99956
2.99914
2.99768
2.99571
2.98679
2.97203
2.92064
2.8008
2.51736
1.83065
0.915196
0.387729
0.366435
0.392435
0.406159
0.398511
0.384214
0.369757
0.356814
0.346047
0.337849
0.330741
0.324835
0.320395
0.316986
0.310662
0.301361
0.29249
0.286298
0.279101
0.275436
3.00001
3.00001
3.00001
3.00001
3.00001
3.00001
3.00001
3.00001
3.00001
3.00001
3.00001
3.00001
3.00001
3.00001
3
3
2.99999
2.99994
2.99988
2.99964
2.9993
2.99824
2.99636
2.98983
2.97554
2.93473
2.82777
2.59049
1.9424
1.05932
0.463485
0.367872
0.402829
0.424217
0.418409
0.405579
0.392109
0.380459
0.371019
0.363995
0.358699
0.354248
0.351322
0.349652
0.345632
0.338737
0.330709
0.325053
0.317966
0.315248
3.00001
3.00001
3.00001
3.00001
3.00001
3.00001
3.00001
3.00001
3.00001
3.00001
3.00001
3.00001
3.00001
3.00001
3
3
2.99999
2.99995
2.9999
2.99968
2.9994
2.99837
2.99691
2.99109
2.97977
2.94697
2.85848
2.66109
2.08286
1.25969
0.562775
0.384274
0.423879
0.448064
0.442635
0.430465
0.417301
0.406718
0.39871
0.393151
0.389677
0.387331
0.385965
0.386202
0.385703
0.380957
0.375308
0.372937
0.367513
0.364581
3.00001
3.00001
3.00001
3.00001
3.00001
3.00001
3.00001
3.00001
3.00001
3.00001
3.00001
3.00001
3.00001
3.00001
3.00001
3
2.99999
2.99996
2.99992
2.99975
2.99954
2.99865
2.99749
2.99194
2.9844
2.95351
2.89476
2.72742
2.30065
1.51776
0.6785
0.410888
0.451804
0.47182
0.468028
0.456736
0.445211
0.435735
0.42957
0.425959
0.424545
0.424508
0.425019
0.427964
0.43177
0.432574
0.429927
0.430588
0.428815
0.430844
3.00001
3.00001
3.00001
3.00001
3.00001
3.00001
3.00001
3.00001
3.00001
3.00001
3.00001
3.00001
3.00001
3.00001
3.00001
3
3
2.99998
2.99995
2.99984
2.99968
2.99904
2.99816
2.99437
2.98824
2.96607
2.91781
2.78541
2.4481
1.76838
0.826184
0.468206
0.478835
0.491304
0.494424
0.486878
0.478027
0.470055
0.465082
0.462925
0.462958
0.465305
0.469433
0.476047
0.484546
0.492638
0.495567
0.506163
0.514124
0.526584
3.00001
3.00001
3.00001
3.00001
3.00001
3.00001
3.00001
3.00001
3.00001
3.00001
3.00001
3.00001
3.00001
3.00001
3.00001
3
3
2.99998
2.99996
2.99989
2.99978
2.99932
2.99866
2.99613
2.9913
2.97635
2.93949
2.84177
2.57795
2.03573
1.0735
0.600654
0.505865
0.513311
0.522644
0.52028
0.513723
0.50709
0.502366
0.501269
0.50371
0.509724
0.518036
0.528772
0.5432
0.561786
0.577356
0.602567
0.637613
0.720798
3.00001
3.00001
3.00001
3.00001
3.00001
3.00001
3.00001
3.00001
3.00001
3.00001
3.00001
3.00001
3.00001
3.00001
3.00001
3.00001
3
3
2.99998
2.99993
2.99986
2.99953
2.99911
2.99706
2.99439
2.98209
2.96398
2.89534
2.75467
2.38149
1.65256
0.821295
0.530969
0.542666
0.557788
0.564225
0.560756
0.555418
0.552654
0.554866
0.56251
0.573972
0.587541
0.60481
0.628441
0.661082
0.702264
0.75788
0.839619
0.964669
3.00001
3.00001
3.00001
3.00001
3.00001
3.00001
3.00001
3.00001
3.00001
3.00001
3.00001
3.00001
3.00001
3.00001
3.00001
3.00001
3
3
2.99999
2.99996
2.99992
2.99977
2.99949
2.9987
2.9966
2.99113
2.97604
2.9363
2.82668
2.58142
1.93371
1.07518
0.6099
0.566558
0.584199
0.598919
0.602252
0.602624
0.605654
0.612542
0.623871
0.639542
0.658196
0.681042
0.711202
0.752585
0.807935
0.884494
0.994694
1.12128
3.00001
3.00001
3.00001
3.00001
3.00001
3.00001
3.00001
3.00001
3.00001
3.00001
3.00001
3.00001
3.00001
3.00001
3.00001
3.00001
3.00001
3
3
2.99998
2.99995
2.99983
2.99967
2.99894
2.99792
2.99364
2.98637
2.96076
2.90053
2.75064
2.33737
1.61027
0.803207
0.602533
0.617477
0.635381
0.64769
0.653135
0.659335
0.66955
0.683541
0.70205
0.725217
0.753228
0.788099
0.833274
0.890932
0.966056
1.0698
1.17671
3.00001
3.00001
3.00001
3.00001
3.00001
3.00001
3.00001
3.00001
3.00001
3.00001
3.00001
3.00001
3.00001
3.00001
3.00001
3.00001
3.00001
3
3
2.99999
2.99997
2.9999
2.9998
2.9994
2.99877
2.99679
2.99169
2.97826
2.94191
2.84449
2.59097
2.0552
1.1695
0.728408
0.668123
0.675875
0.691672
0.705753
0.714857
0.725551
0.740492
0.760974
0.786306
0.8157
0.851217
0.89535
0.948663
1.01521
1.10096
1.19167
3.00001
3.00001
3.00001
3.00001
3.00001
3.00001
3.00001
3.00001
3.00001
3.00001
3.00001
3.00001
3.00001
3.00001
3.00001
3.00001
3.00001
3.00001
3
3
2.99999
2.99997
2.9999
2.99976
2.99921
2.9984
2.9947
2.98899
2.96616
2.92263
2.78892
2.48635
1.81924
1.02765
0.760637
0.72866
0.736927
0.750976
0.765127
0.77792
0.793182
0.812813
0.837775
0.868553
0.902952
0.944817
0.992828
1.05125
1.12292
1.19818
3.00001
3.00001
3.00001
3.00001
3.00001
3.00001
3.00001
3.00001
3.00001
3.00001
3.00001
3.00001
3.00001
3.00001
3.00001
3.00001
3.00001
3.00001
3.00001
3.00001
3
2.99999
2.99996
2.99989
2.9996
2.99923
2.99721
2.99477
2.98271
2.96504
2.89783
2.75847
2.39133
1.68085
0.979228
0.798295
0.789385
0.799519
0.813982
0.828332
0.844166
0.863734
0.886286
0.914633
0.946631
0.984484
1.02625
1.07591
1.13621
1.19877
3.00001
3.00001
3.00001
3.00001
3.00001
3.00001
3.00001
3.00001
3.00001
3.00001
3.00001
3.00001
3.00001
3.00001
3.00001
3.00001
3.00001
3.00001
3.00001
3.00001
3
3
2.99999
2.99993
2.99986
2.99948
2.99902
2.99678
2.99361
2.9812
2.95559
2.88209
2.69021
2.26856
1.48617
0.962
0.849822
0.846986
0.859895
0.876276
0.892371
0.909935
0.93041
0.955398
0.983691
1.01765
1.05567
1.09911
1.15169
1.2039
3.00001
3.00001
3.00001
3.00001
3.00001
3.00001
3.00001
3.00001
3.00001
3.00001
3.00001
3.00001
3.00001
3.00001
3.00001
3.00001
3.00001
3.00001
3.00001
3.00001
3.00001
3
3
2.99997
2.99994
2.99981
2.9996
2.99903
2.99746
2.99392
2.9821
2.95347
2.86712
2.68164
2.14765
1.44208
0.98175
0.904159
0.905105
0.920115
0.93845
0.957537
0.977446
0.999735
1.02414
1.05295
1.08577
1.12351
1.17001
1.21639
3.00001
3.00001
3.00001
3.00001
3.00001
3.00001
3.00001
3.00001
3.00001
3.00001
3.00001
3.00001
3.00001
3.00001
3.00001
3.00001
3.00001
3.00001
3.00001
3.00001
3.00001
3.00001
3
2.99999
2.99998
2.99991
2.99983
2.99942
2.99889
2.99646
2.99269
2.97742
2.9495
2.85434
2.64945
2.14069
1.45258
1.05632
0.98207
0.977115
0.986912
1.0031
1.02191
1.04304
1.06482
1.08996
1.11752
1.14924
1.1884
1.22866
3.00001
3.00001
3.00001
3.00001
3.00001
3.00001
3.00001
3.00001
3.00001
3.00001
3.00001
3.00001
3.00001
3.00001
3.00001
3.00001
3.00001
3.00001
3.00001
3.00001
3.00001
3.00001
3.00001
3
3
2.99997
2.99994
2.99983
2.99964
2.99917
2.99771
2.99473
2.98326
2.95626
2.87349
2.69556
2.19231
1.55043
1.12828
1.05139
1.04087
1.04727
1.06178
1.08108
1.10083
1.12374
1.15064
1.17924
1.21509
1.24996
3.00001
3.00001
3.00001
3.00001
3.00001
3.00001
3.00001
3.00001
3.00001
3.00001
3.00001
3.00001
3.00001
3.00001
3.00001
3.00001
3.00001
3.00001
3.00001
3.00001
3.00001
3.00001
3.00001
3.00001
3
3
2.99997
2.99995
2.99982
2.99966
2.99906
2.99787
2.99498
2.98534
2.9631
2.89285
2.73956
2.30595
1.71559
1.23008
1.11482
1.10033
1.10983
1.1247
1.14435
1.16418
1.18736
1.21351
1.24296
1.27502
3.00001
3.00001
3.00001
3.00001
3.00001
3.00001
3.00001
3.00001
3.00001
3.00001
3.00001
3.00001
3.00001
3.00001
3.00001
3.00001
3.00001
3.00001
3.00001
3.00001
3.00001
3.00001
3.00001
3.00001
3.00001
3.00001
3
3
2.99998
2.99995
2.9999
2.99955
2.9991
2.99632
2.98715
2.97252
2.91223
2.79959
2.48419
1.95498
1.37909
1.18393
1.1666
1.17609
1.187
1.20344
1.22298
1.24592
1.27111
1.29927
3.00001
3.00001
3.00001
3.00001
3.00001
3.00001
3.00001
3.00001
3.00001
3.00001
3.00001
3.00001
3.00001
3.00001
3.00001
3.00001
3.00001
3.00001
3.00001
3.00001
3.00001
3.00001
3.00001
3.00001
3.00001
3.00001
3.00001
3
3
2.99998
2.99995
2.9999
2.99968
2.99945
2.99778
2.99594
2.98154
2.94671
2.85261
2.62696
2.13434
1.55394
1.27904
1.24054
1.23324
1.24202
1.25729
1.27927
1.30521
1.33007
3.00001
3.00001
3.00001
3.00001
3.00001
3.00001
3.00001
3.00001
3.00001
3.00001
3.00001
3.00001
3.00001
3.00001
3.00001
3.00001
3.00001
3.00001
3.00001
3.00001
3.00001
3.00001
3.00001
3.00001
3.00001
3.00001
3.00001
3.00001
3
3
2.99998
2.99996
2.99987
2.99976
2.99937
2.99839
2.99645
2.98769
2.96811
2.907
2.76314
2.39853
1.90448
1.4551
1.31091
1.30179
1.31019
1.32324
1.34342
1.36601
3.00001
3.00001
3.00001
3.00001
3.00001
3.00001
3.00001
3.00001
3.00001
3.00001
3.00001
3.00001
3.00001
3.00001
3.00001
3.00001
3.00001
3.00001
3.00001
3.00001
3.00001
3.00001
3.00001
3.00001
3.00001
3.00001
3.00001
3.00001
3.00001
3.00001
3
3
2.99999
2.99996
2.99991
2.9997
2.99956
2.99782
2.99449
2.98315
2.94439
2.8727
2.66188
2.26473
1.74143
1.44872
1.37984
1.37455
1.39122
1.40955
3.00001
3.00001
3.00001
3.00001
3.00001
3.00001
3.00001
3.00001
3.00001
3.00001
3.00001
3.00001
3.00001
3.00001
3.00001
3.00001
3.00001
3.00001
3.00001
3.00001
3.00001
3.00001
3.00001
3.00001
3.00001
3.00001
3.00001
3.00001
3.00001
3.00001
3.00001
3.00001
3
3
2.99998
2.99991
2.99983
2.99946
2.99871
2.99701
2.99048
2.97799
2.93446
2.83148
2.58026
2.17822
1.77288
1.53219
1.47651
1.47508
3.00001
3.00001
3.00001
3.00001
3.00001
3.00001
3.00001
3.00001
3.00001
3.00001
3.00001
3.00001
3.00001
3.00001
3.00001
3.00001
3.00001
3.00001
3.00001
3.00001
3.00001
3.00001
3.00001
3.00001
3.00001
3.00001
3.00001
3.00001
3.00001
3.00001
3.00001
3.00001
3.00001
3.00001
3
3
2.99998
2.99993
2.99986
2.99951
2.99909
2.99653
2.99241
2.97543
2.92643
2.83985
2.59631
2.28001
1.8914
1.66245
3.00001
3.00001
3.00001
3.00001
3.00001
3.00001
3.00001
3.00001
3.00001
3.00001
3.00001
3.00001
3.00001
3.00001
3.00001
3.00001
3.00001
3.00001
3.00001
3.00001
3.00001
3.00001
3.00001
3.00001
3.00001
3.00001
3.00001
3.00001
3.00001
3.00001
3.00001
3.00001
3.00001
3.00001
3.00001
3.00001
3
3
2.99998
2.99996
2.9998
2.9996
2.99857
2.99762
2.99093
2.97909
2.94005
2.84685
2.6194
2.30336
3.00001
3.00001
3.00001
3.00001
3.00001
3.00001
3.00001
3.00001
3.00001
3.00001
3.00001
3.00001
3.00001
3.00001
3.00001
3.00001
3.00001
3.00001
3.00001
3.00001
3.00001
3.00001
3.00001
3.00001
3.00001
3.00001
3.00001
3.00001
3.00001
3.00001
3.00001
3.00001
3.00001
3.00001
3.00001
3.00001
3.00001
3.00001
3
3
2.99997
2.99994
2.99974
2.99952
2.99771
2.99736
2.98636
2.96788
2.90392
2.80186
3.00001
3.00001
3.00001
3.00001
3.00001
3.00001
3.00001
3.00001
3.00001
3.00001
3.00001
3.00001
3.00001
3.00001
3.00001
3.00001
3.00001
3.00001
3.00001
3.00001
3.00001
3.00001
3.00001
3.00001
3.00001
3.00001
3.00001
3.00001
3.00001
3.00001
3.00001
3.00001
3.00001
3.00001
3.00001
3.00001
3.00001
3.00001
3.00001
3
3
2.99998
2.99995
2.99971
2.99969
2.99847
2.99603
2.9876
2.96391
2.91505
3.00001
3.00001
3.00001
3.00001
3.00001
3.00001
3.00001
3.00001
3.00001
3.00001
3.00001
3.00001
3.00001
3.00001
3.00001
3.00001
3.00001
3.00001
3.00001
3.00001
3.00001
3.00001
3.00001
3.00001
3.00001
3.00001
3.00001
3.00001
3.00001
3.00001
3.00001
3.00001
3.00001
3.00001
3.00001
3.00001
3.00001
3.00001
3.00001
3.00001
3
3
2.99996
2.99991
2.99958
2.99953
2.99846
2.99664
2.98652
2.97247
3.00001
3.00001
3.00001
3.00001
3.00001
3.00001
3.00001
3.00001
3.00001
3.00001
3.00001
3.00001
3.00001
3.00001
3.00001
3.00001
3.00001
3.00001
3.00001
3.00001
3.00001
3.00001
3.00001
3.00001
3.00001
3.00001
3.00001
3.00001
3.00001
3.00001
3.00001
3.00001
3.00001
3.00001
3.00001
3.00001
3.00001
3.00001
3.00001
3.00001
3.00001
3
3
2.99995
2.99996
2.99968
2.99975
2.99823
2.99497
2.98644
3.00001
3.00001
3.00001
3.00001
3.00001
3.00001
3.00001
3.00001
3.00001
3.00001
3.00001
3.00001
3.00001
3.00001
3.00001
3.00001
3.00001
3.00001
3.00001
3.00001
3.00001
3.00001
3.00001
3.00001
3.00001
3.00001
3.00001
3.00001
3.00001
3.00001
3.00001
3.00001
3.00001
3.00001
3.00001
3.00001
3.00001
3.00001
3.00001
3.00001
3.00001
3.00001
3
2.99999
2.99999
2.99989
2.99989
2.99934
2.99817
2.99499
3.00001
3.00001
3.00001
3.00001
3.00001
3.00001
3.00001
3.00001
3.00001
3.00001
3.00001
3.00001
3.00001
3.00001
3.00001
3.00001
3.00001
3.00001
3.00001
3.00001
3.00001
3.00001
3.00001
3.00001
3.00001
3.00001
3.00001
3.00001
3.00001
3.00001
3.00001
3.00001
3.00001
3.00001
3.00001
3.00001
3.00001
3.00001
3.00001
3.00001
3.00001
3.00001
3
3
2.99999
2.99999
2.99994
2.99985
2.99936
2.99862
3.00001
3.00001
3.00001
3.00001
3.00001
3.00001
3.00001
3.00001
3.00001
3.00001
3.00001
3.00001
3.00001
3.00001
3.00001
3.00001
3.00001
3.00001
3.00001
3.00001
3.00001
3.00001
3.00001
3.00001
3.00001
3.00001
3.00001
3.00001
3.00001
3.00001
3.00001
3.00001
3.00001
3.00001
3.00001
3.00001
3.00001
3.00001
3.00001
3.00001
3.00001
3.00001
3.00001
3.00001
3
3
2.99998
2.99995
2.99979
2.99954
3.00001
3.00001
3.00001
3.00001
3.00001
3.00001
3.00001
3.00001
3.00001
3.00001
3.00001
3.00001
3.00001
3.00001
3.00001
3.00001
3.00001
3.00001
3.00001
3.00001
3.00001
3.00001
3.00001
3.00001
3.00001
3.00001
3.00001
3.00001
3.00001
3.00001
3.00001
3.00001
3.00001
3.00001
3.00001
3.00001
3.00001
3.00001
3.00001
3.00001
3.00001
3.00001
3.00001
3.00001
3.00001
3
3
2.99998
2.99994
2.99982
3.00001
3.00001
3.00001
3.00001
3.00001
3.00001
3.00001
3.00001
3.00001
3.00001
3.00001
3.00001
3.00001
3.00001
3.00001
3.00001
3.00001
3.00001
3.00001
3.00001
3.00001
3.00001
3.00001
3.00001
3.00001
3.00001
3.00001
3.00001
3.00001
3.00001
3.00001
3.00001
3.00001
3.00001
3.00001
3.00001
3.00001
3.00001
3.00001
3.00001
3.00001
3.00001
3.00001
3.00001
3.00001
3.00001
3.00001
3
2.99999
2.99995
3.00001
3.00001
3.00001
3.00001
3.00001
3.00001
3.00001
3.00001
3.00001
3.00001
3.00001
3.00001
3.00001
3.00001
3.00001
3.00001
3.00001
3.00001
3.00001
3.00001
3.00001
3.00001
3.00001
3.00001
3.00001
3.00001
3.00001
3.00001
3.00001
3.00001
3.00001
3.00001
3.00001
3.00001
3.00001
3.00001
3.00001
3.00001
3.00001
3.00001
3.00001
3.00001
3.00001
3.00001
3.00001
3.00001
3.00001
3.00001
3
2.99999
3.00001
3.00001
3.00001
3.00001
3.00001
3.00001
3.00001
3.00001
3.00001
3.00001
3.00001
3.00001
3.00001
3.00001
3.00001
3.00001
3.00001
3.00001
3.00001
3.00001
3.00001
3.00001
3.00001
3.00001
3.00001
3.00001
3.00001
3.00001
3.00001
3.00001
3.00001
3.00001
3.00001
3.00001
3.00001
3.00001
3.00001
3.00001
3.00001
3.00001
3.00001
3.00001
3.00001
3.00001
3.00001
3.00001
3.00001
3.00001
3.00001
3
3.00001
3.00001
3.00001
3.00001
3.00001
3.00001
3.00001
3.00001
3.00001
3.00001
3.00001
3.00001
3.00001
3.00001
3.00001
3.00001
3.00001
3.00001
3.00001
3.00001
3.00001
3.00001
3.00001
3.00001
3.00001
3.00001
3.00001
3.00001
3.00001
3.00001
3.00001
3.00001
3.00001
3.00001
3.00001
3.00001
3.00001
3.00001
3.00001
3.00001
3.00001
3.00001
3.00001
3.00001
3.00001
3.00001
3.00001
3.00001
3.00001
3.00001
3.00001
3.00001
3.00001
3.00001
3.00001
3.00001
3.00001
3.00001
3.00001
3.00001
3.00001
3.00001
3.00001
3.00001
3.00001
3.00001
3.00001
3.00001
3.00001
3.00001
3.00001
3.00001
3.00001
3.00001
3.00001
3.00001
3.00001
3.00001
3.00001
3.00001
3.00001
3.00001
3.00001
3.00001
3.00001
3.00001
3.00001
3.00001
3.00001
3.00001
3.00001
3.00001
3.00001
3.00001
3.00001
3.00001
3.00001
3.00001
3.00001
3.00001
3.00001
3.00001
3.00001
3.00001
3.00001
3.00001
3.00001
3.00001
3.00001
3.00001
3.00001
3.00001
3.00001
3.00001
3.00001
3.00001
3.00001
3.00001
3.00001
3.00001
3.00001
3.00001
3.00001
3.00001
3.00001
3.00001
3.00001
3.00001
3.00001
3.00001
3.00001
3.00001
3.00001
3.00001
3.00001
3.00001
3.00001
3.00001
3.00001
3.00001
3.00001
3.00001
3.00001
3.00001
3.00001
3.00001
3.00001
3.00001
3.00001
3.00001
3.00001
3.00001
3.00001
3.00001
3.00001
3.00001
3.00001
3.00001
3.00001
3.00001
3.00001
3.00001
3.00001
3.00001
3.00001
3.00001
3.00001
3.00001
3.00001
3.00001
3.00001
3.00001
3.00001
3.00001
3.00001
3.00001
3.00001
3.00001
3.00001
3.00001
3.00001
3.00001
3.00001
3.00001
3.00001
3.00001
3.00001
3.00001
3.00001
3.00001
3.00001
3.00001
3.00001
3.00001
3.00001
3.00001
3.00001
3.00001
3.00001
3.00001
3.00001
3.00001
3.00001
3.00001
3.00001
3.00001
3.00001
3.00001
3.00001
3.00001
3.00001
3.00001
3.00001
3.00001
3.00001
3.00001
3.00001
3.00001
3.00001
3.00001
3.00001
3.00001
3.00001
3.00001
3.00001
3.00001
3.00001
3.00001
3.00001
3.00001
3.00001
3.00001
3.00001
3.00001
3.00001
3.00001
3.00001
3.00001
3.00001
3.00001
3.00001
3.00001
3.00001
3.00001
3.00001
3.00001
3.00001
3.00001
3.00001
3.00001
3.00001
3.00001
3.00001
3.00001
3.00001
3.00001
3.00001
3.00001
3.00001
3.00001
3.00001
3.00001
3.00001
3.00001
3.00001
3.00001
3.00001
3.00001
3.00001
3.00001
3.00001
3.00001
3.00001
3.00001
3.00001
3.00001
3.00001
3.00001
3.00001
3.00001
3.00001
3.00001
3.00001
3.00001
3.00001
3.00001
3.00001
3.00001
3.00001
3.00001
3.00001
3.00001
3.00001
3.00001
3.00001
3.00001
3.00001
3.00001
3.00001
3.00001
3.00001
3.00001
3.00001
3.00001
3.00001
3.00001
3.00001
3.00001
3.00001
3.00001
3.00001
3.00001
3.00001
3.00001
3.00001
3.00001
3.00001
3.00001
3.00001
3.00001
3.00001
3.00001
3.00001
3.00001
3.00001
3.00001
3.00001
3.00001
3.00001
3.00001
3.00001
3.00001
3.00001
3.00001
3.00001
3.00001
3.00001
3.00001
3.00001
3.00001
3.00001
3.00001
3.00001
3.00001
3.00001
3.00001
3.00001
3.00001
3.00001
3.00001
3.00001
3.00001
3.00001
3.00001
3.00001
3.00001
3.00001
3.00001
3.00001
3.00001
3.00001
3.00001
3.00001
3.00001
3.00001
3.00001
3.00001
3.00001
3.00001
3.00001
3.00001
3.00001
3.00001
3.00001
3.00001
3.00001
3.00001
3.00001
3.00001
3.00001
3.00001
3.00001
3.00001
3.00001
3.00001
3.00001
3.00001
3.00001
3.00001
3.00001
3.00001
3.00001
3.00001
3.00001
3.00001
3.00001
3.00001
3.00001
3.00001
3.00001
3.00001
3.00001
3.00001
3.00001
3.00001
3.00001
3.00001
3.00001
3.00001
3.00001
3.00001
3.00001
3.00001
3.00001
3.00001
3.00001
3.00001
3.00001
3.00001
3.00001
3.00001
3.00001
3.00001
3.00001
3.00001
3.00001
3.00001
3.00001
3.00001
3.00001
3.00001
3.00001
3.00001
3.00001
3.00001
3.00001
3.00001
3.00001
3.00001
3.00001
3.00001
3.00001
3.00001
3.00001
3.00001
3.00001
3.00001
3.00001
3.00001
3.00001
3.00001
3.00001
3.00001
3.00001
3.00001
3.00001
3.00001
3.00001
3.00001
3.00001
3.00001
3.00001
3.00001
3.00001
3.00001
3.00001
3.00001
3.00001
3.00001
3.00001
3.00001
3.00001
3.00001
3.00001
3.00001
3.00001
3.00001
3.00001
3.00001
3.00001
3.00001
3.00001
3.00001
3.00001
3.00001
3.00001
3.00001
3.00001
3.00001
3.00001
3.00001
3.00001
3.00001
3.00001
3.00001
3.00001
3.00001
3.00001
3.00001
3.00001
3.00001
3.00001
3.00001
3.00001
3.00001
3.00001
3.00001
3.00001
3.00001
3.00001
3.00001
3.00001
3.00001
3.00001
3.00001
3.00001
3.00001
3.00001
3.00001
3.00001
3.00001
3.00001
3.00001
3.00001
3.00001
3.00001
3.00001
3.00001
3.00001
3.00001
3.00001
3.00001
3.00001
3.00001
3.00001
3.00001
3.00001
3.00001
3.00001
3.00001
3.00001
3.00001
3.00001
3.00001
3.00001
3.00001
3.00001
3.00001
3.00001
3.00001
1.43137
1.59209
1.63631
1.6052
1.52595
1.45001
1.36984
1.29046
1.26428
1.26908
1.28019
1.29404
1.31135
1.32541
1.33352
1.34066
1.34883
1.35802
1.36907
1.38236
1.39739
1.4132
1.42903
1.44449
1.45948
1.47399
1.48806
1.50184
1.5154
1.52861
1.54142
1.55393
1.56633
1.57913
1.59244
1.60536
1.61732
1.62883
1.63997
1.64981
1.65766
1.66358
1.66831
1.67265
1.67703
1.68226
1.69104
1.71264
1.75989
1.82342
1.89728
1.97808
2.06258
2.14805
2.23221
2.31301
2.3888
2.45827
2.5206
2.57539
2.62271
2.66324
2.69805
2.72824
2.7547
2.77814
2.79919
2.81842
2.83632
2.85324
2.86939
2.88492
2.89991
2.91445
2.92846
2.94171
2.9537
2.96399
2.97247
2.97942
2.98521
2.99027
2.9948
2.99893
3.00186
3.00482
3.00609
3.00611
3.00543
3.00449
3.00357
3.00264
3.00175
3.00111
3.00068
3.00039
3.00022
3.0001
3.00005
3.00001
1.39119
1.48843
1.53431
1.55987
1.58953
1.63116
1.67832
1.69405
1.69751
1.69151
1.6751
1.65622
1.64753
1.65203
1.65901
1.66996
1.68342
1.69529
1.70509
1.71344
1.7217
1.73078
1.74066
1.75173
1.76349
1.77523
1.78682
1.79779
1.80788
1.81757
1.82701
1.83589
1.84444
1.85341
1.86355
1.87443
1.88526
1.89623
1.90716
1.91653
1.92338
1.92778
1.93047
1.93269
1.93469
1.93613
1.93803
1.94118
1.94916
1.96918
2.00716
2.0553
2.11177
2.17492
2.24277
2.31307
2.38351
2.45219
2.51764
2.57876
2.63466
2.68466
2.72838
2.76596
2.79806
2.82557
2.84926
2.86963
2.88703
2.90185
2.91469
2.92633
2.93737
2.94804
2.95822
2.96753
2.97559
2.98223
2.98755
2.99185
2.99538
2.99842
3.0011
3.00348
3.00627
3.0082
3.00852
3.00785
3.00671
3.00549
3.00432
3.00306
3.00204
3.00132
3.00083
3.0005
3.00029
3.00015
3.00009
3.00003
1.3671
1.44565
1.5147
1.59077
1.6746
1.75976
1.82849
1.86371
1.86665
1.86671
1.85937
1.84338
1.83002
1.82336
1.82669
1.83115
1.83677
1.84538
1.85602
1.8655
1.87378
1.88204
1.89066
1.89976
1.90889
1.91786
1.92704
1.93637
1.94572
1.95532
1.96494
1.9739
1.98212
1.9904
1.99943
2.00879
2.01768
2.02649
2.03546
2.04319
2.04883
2.05263
2.05503
2.05691
2.05866
2.06018
2.06274
2.07039
2.0909
2.12512
2.16563
2.21072
2.25944
2.31146
2.36652
2.42393
2.48258
2.54121
2.59844
2.65307
2.70388
2.74981
2.79017
2.82479
2.85386
2.87797
2.89783
2.91411
2.92727
2.93773
2.94612
2.95338
2.96028
2.96723
2.97417
2.9806
2.9861
2.9905
2.99394
2.99672
2.99908
3.0012
3.0031
3.00512
3.00785
3.00915
3.00907
3.00816
3.0069
3.00562
3.00434
3.00302
3.00202
3.00131
3.00082
3.00049
3.00029
3.00015
3.00008
3.00003
1.36203
1.44549
1.52239
1.59605
1.66702
1.73314
1.79433
1.84643
1.89293
1.92549
1.94453
1.94862
1.94964
1.94824
1.94146
1.93709
1.93504
1.93869
1.94263
1.94863
1.95776
1.96864
1.97952
1.99035
2.00062
2.01015
2.01972
2.03005
2.04102
2.05213
2.06293
2.07297
2.08184
2.09005
2.09848
2.10676
2.11406
2.12117
2.12875
2.13555
2.14067
2.14439
2.14742
2.15055
2.15495
2.16398
2.18095
2.204
2.23291
2.2673
2.30609
2.34786
2.39144
2.43616
2.48172
2.52803
2.575
2.6222
2.6687
2.71338
2.75532
2.79391
2.82875
2.85953
2.88603
2.90823
2.92634
2.94078
2.9521
2.96093
2.96786
2.97361
2.97885
2.98385
2.98883
2.99365
2.99756
3.00026
3.00209
3.00344
3.00458
3.0056
3.00663
3.00855
3.01061
3.01115
3.01052
3.00923
3.00771
3.00624
3.00465
3.0032
3.00215
3.0014
3.00089
3.00055
3.00033
3.00018
3.00011
3.00004
1.35275
1.4397
1.51677
1.58775
1.65662
1.72111
1.78263
1.84224
1.89712
1.94668
1.98509
2.00823
2.01843
2.02136
2.02229
2.02145
2.01801
2.01316
2.01488
2.01776
2.02167
2.0278
2.03712
2.04877
2.06117
2.07396
2.08687
2.09969
2.11221
2.12397
2.1344
2.14344
2.15153
2.1596
2.16846
2.17723
2.18451
2.19067
2.19614
2.20044
2.20412
2.20814
2.21329
2.22268
2.24006
2.26244
2.28962
2.32067
2.35439
2.38989
2.42649
2.46356
2.50073
2.53786
2.575
2.61233
2.65018
2.68866
2.72732
2.76532
2.80168
2.83554
2.86632
2.89366
2.91732
2.93718
2.9533
2.96581
2.97493
2.98127
2.98593
2.98996
2.99331
2.99641
2.9994
3.00217
3.00483
3.00648
3.0073
3.00762
3.00754
3.00747
3.00824
3.00987
3.01156
3.01172
3.01081
3.00934
3.00775
3.00619
3.0045
3.00309
3.00206
3.00134
3.00085
3.00052
3.00031
3.00017
3.0001
3.00004
1.33607
1.42446
1.50369
1.57602
1.64485
1.70946
1.7712
1.82803
1.88055
1.92828
1.97109
2.01066
2.04441
2.06785
2.08281
2.08918
2.09108
2.09183
2.0915
2.09043
2.09239
2.09655
2.10251
2.10996
2.12123
2.13565
2.1505
2.16379
2.17551
2.18614
2.19587
2.20479
2.21347
2.22273
2.23254
2.24152
2.24862
2.25432
2.25928
2.26386
2.26911
2.27668
2.29023
2.31061
2.33494
2.36234
2.3926
2.42473
2.45766
2.49069
2.52378
2.55719
2.59102
2.62485
2.65802
2.69015
2.72141
2.75231
2.7832
2.81385
2.84358
2.87151
2.89706
2.92001
2.94022
2.95761
2.97205
2.98321
2.99088
2.9957
2.99912
3.00203
3.00418
3.00633
3.00846
3.0103
3.01182
3.01245
3.01238
3.01178
3.0113
3.01089
3.01116
3.01274
3.0135
3.01301
3.01169
3.00997
3.00822
3.00643
3.00456
3.00314
3.00211
3.00138
3.00088
3.00054
3.00032
3.00018
3.00011
3.00005
1.32391
1.40876
1.48741
1.56061
1.62925
1.69318
1.75344
1.80979
1.86296
1.91345
1.96139
2.00581
2.04601
2.08175
2.1106
2.1303
2.14205
2.1487
2.15189
2.15465
2.15759
2.1617
2.1665
2.17188
2.17776
2.18563
2.19587
2.20721
2.21838
2.22939
2.24037
2.2515
2.26265
2.27409
2.28531
2.29477
2.30155
2.30672
2.31194
2.31852
2.32907
2.34657
2.36899
2.39538
2.42434
2.45483
2.48587
2.51679
2.5473
2.5773
2.60695
2.63657
2.66636
2.69614
2.72528
2.75316
2.77959
2.80506
2.83028
2.85541
2.87998
2.90333
2.92479
2.94408
2.96112
2.97577
2.98794
2.99744
3.00388
3.00763
3.01011
3.0121
3.01329
3.01456
3.01581
3.0167
3.01699
3.01634
3.01531
3.01432
3.01341
3.0127
3.0126
3.01388
3.01432
3.01348
3.01189
3.01002
3.00818
3.00622
3.00437
3.00299
3.002
3.0013
3.00082
3.0005
3.0003
3.00016
3.0001
3.00004
1.31968
1.39605
1.46999
1.54054
1.60745
1.67113
1.73156
1.78873
1.84312
1.89527
1.94446
1.99053
2.03239
2.06999
2.10408
2.1343
2.15987
2.17928
2.19363
2.20345
2.20974
2.2148
2.21966
2.2245
2.22871
2.2336
2.23951
2.24673
2.25542
2.2664
2.27926
2.29302
2.3063
2.31824
2.32926
2.33944
2.34779
2.35544
2.36513
2.37915
2.39888
2.42295
2.44925
2.47742
2.50617
2.53511
2.56363
2.59129
2.61861
2.64609
2.67398
2.70227
2.73048
2.75801
2.7844