/*--------------------------------*- C++ -*----------------------------------*\
| =========                 |                                                 |
| \\      /  F ield         | OpenFOAM: The Open Source CFD Toolbox           |
|  \\    /   O peration     | Version:  2112                                  |
|   \\  /    A nd           | Website:  www.openfoam.com                      |
|    \\/     M anipulation  |                                                 |
\*---------------------------------------------------------------------------*/
FoamFile
{
    version     2.0;
    format      ascii;
    arch        "LSB;label=32;scalar=64";
    class       volScalarField;
    location    "0.5";
    object      p;
}
// * * * * * * * * * * * * * * * * * * * * * * * * * * * * * * * * * * * * * //

dimensions      [1 -1 -2 0 0 0 0];

internalField   nonuniform List<scalar> 
7000
(
0.999998
1
1
1.00001
1.00001
1.00001
1.00001
1.00001
1.00001
1.00001
1.00001
1
1
1
0.999999
0.999997
1.00003
1.00014
1.00044
1.00103
1.00277
1.00575
1.01653
1.03264
1.10356
1.20925
1.71205
2.73645
6.38821
13.233
12.384
11.8024
11.7227
11.7708
11.8872
12.0115
12.1002
12.1691
12.2276
12.275
12.3191
12.3671
12.4245
12.4899
12.5551
12.6217
12.6729
12.7192
12.7426
12.7638
0.999999
1
1.00001
1.00001
1.00001
1.00001
1.00001
1.00001
1.00001
1.00001
1.00001
1
1
1
0.999999
0.999997
1.00003
1.00013
1.00043
1.00098
1.00266
1.00552
1.0159
1.03141
1.09994
1.19932
1.68889
2.65767
6.18685
13.0635
12.3562
11.7975
11.711
11.7579
11.8754
12.0019
12.092
12.1626
12.2223
12.2707
12.3155
12.3642
12.4219
12.4873
12.5528
12.6193
12.6706
12.717
12.7403
12.7611
0.999999
1
1.00001
1.00001
1.00001
1.00001
1.00001
1.00001
1.00001
1.00001
1.00001
1
1
1
1
0.999997
1.00003
1.00013
1.00041
1.00095
1.00256
1.00533
1.01541
1.03047
1.09757
1.19322
1.67535
2.61886
6.07621
12.9681
12.3621
11.8057
11.7064
11.7529
11.8733
12.0006
12.091
12.1614
12.2214
12.2695
12.314
12.3622
12.4189
12.4829
12.5476
12.6132
12.6639
12.7098
12.7326
12.7526
1
1
1.00001
1.00001
1.00001
1.00001
1.00001
1.00001
1.00001
1.00001
1.00001
1
1
1
1
0.999998
1.00003
1.00012
1.00039
1.0009
1.00244
1.00507
1.01474
1.02912
1.0942
1.18429
1.6548
2.56072
5.90383
12.8017
12.3402
11.7833
11.6782
11.7289
11.8567
11.9866
12.0792
12.1509
12.2127
12.2617
12.3066
12.3551
12.4111
12.4739
12.5379
12.6026
12.6527
12.698
12.7202
12.7397
1
1
1.00001
1.00001
1.00001
1.00001
1.00001
1.00001
1.00001
1.00001
1.00001
1
1
1
1
0.999999
1.00003
1.00011
1.00037
1.00084
1.00229
1.00477
1.01395
1.02749
1.09037
1.17328
1.63263
2.49633
5.71916
12.6079
12.312
11.7697
11.6577
11.7107
11.8425
11.9737
12.0676
12.1397
12.2028
12.2525
12.2971
12.3453
12.4002
12.4617
12.5246
12.5882
12.6373
12.6817
12.7031
12.7223
1
1
1.00001
1.00001
1.00001
1.00001
1.00001
1.00001
1.00001
1.00001
1.00001
1
1
1
1
0.999999
1.00003
1.0001
1.00034
1.00078
1.00212
1.00442
1.01304
1.02555
1.08572
1.16028
1.60522
2.41503
5.5116
12.3663
12.2394
11.7856
11.6384
11.6889
11.8205
11.9554
12.0512
12.1245
12.1891
12.2398
12.2843
12.3318
12.3854
12.4455
12.5069
12.569
12.6169
12.6603
12.6808
12.6996
1
1
1
1.00001
1.00001
1.00001
1.00001
1.00001
1.00001
1.00001
1.00001
1
1
1
1
1
1.00003
1.00009
1.0003
1.0007
1.00192
1.00401
1.012
1.02328
1.08014
1.14682
1.56902
2.32471
5.26051
12.0369
12.2082
11.8039
11.6069
11.6573
11.7935
11.933
12.0312
12.1052
12.1713
12.223
12.2675
12.314
12.366
12.4244
12.4841
12.5444
12.5907
12.6328
12.6524
12.6709
1
1
1
1.00001
1.00001
1.00001
1.00001
1.00001
1.00001
1.00001
1.00001
1
1
1
1
1
1.00003
1.00009
1.00027
1.00062
1.0017
1.0035
1.01084
1.02052
1.07396
1.13216
1.52672
2.2219
4.96427
11.5724
12.2711
11.803
11.5667
11.6197
11.763
11.9075
12.0079
12.0813
12.1488
12.2015
12.2459
12.2911
12.3413
12.3978
12.4549
12.5133
12.5579
12.5988
12.6175
12.6356
1
1
1
1.00001
1.00001
1.00001
1.00001
1.00001
1.00001
1.00001
1.00001
1
1
1
1
1
1.00003
1.00008
1.00025
1.00056
1.00151
1.00303
1.00969
1.01714
1.06793
1.11446
1.48126
2.10111
4.62353
10.9414
12.4095
11.8257
11.5317
11.5848
11.732
11.8795
11.9807
12.0523
12.1208
12.1743
12.2186
12.2624
12.3103
12.3645
12.4182
12.4742
12.517
12.5566
12.5744
12.5924
1
1
1
1
1.00001
1.00001
1.00001
1.00001
1.00001
1.00001
1.00001
1
1
1
1.00001
1.00001
1.00003
1.00008
1.00023
1.00051
1.00137
1.00271
1.00861
1.01468
1.06059
1.09618
1.43677
1.94202
4.26442
10.103
12.625
11.9032
11.5198
11.5648
11.7009
11.8481
11.9477
12.0173
12.0862
12.1403
12.1843
12.2265
12.272
12.3242
12.3716
12.4258
12.467
12.5055
12.5226
12.5405
1
1
1
1
1
1.00001
1.00001
1.00001
1.00001
1.00001
1.00001
1
1
1
1.00001
1.00001
1.00003
1.00008
1.00022
1.00049
1.00127
1.00254
1.00764
1.01339
1.05286
1.08208
1.3804
1.77923
3.84298
9.0409
12.9041
12.0354
11.531
11.5589
11.6686
11.809
11.9061
11.9744
12.0431
12.0978
12.1413
12.1816
12.2239
12.2722
12.3152
12.3663
12.4055
12.4428
12.4588
12.477
1
1
1
1
1
1
1.00001
1.00001
1.00001
1.00001
1
1
1
1
1.00001
1.00001
1.00003
1.00007
1.00021
1.00045
1.00118
1.00242
1.00692
1.01307
1.04494
1.07465
1.31522
1.63812
3.32407
7.65724
13.0979
12.1565
11.555
11.5564
11.6292
11.7575
11.853
11.9201
11.9882
12.0439
12.0872
12.1253
12.1638
12.2078
12.2461
12.2939
12.3308
12.3671
12.3827
12.4011
1
1
1
1
1
1
1
1
1
1
1
1
1
1
1
1.00001
1.00003
1.00007
1.00019
1.00042
1.00108
1.00222
1.00626
1.01213
1.03937
1.06852
1.26597
1.53139
2.87559
6.18686
13.0221
12.1869
11.5859
11.536
11.5854
11.6909
11.7871
11.852
11.9186
11.9753
12.0188
12.0547
12.0888
12.1273
12.1607
12.2049
12.2394
12.274
12.2881
12.3076
1
1
1
1
1
1
1
1
1
1
1
1
1
1
1
1.00001
1.00002
1.00006
1.00017
1.00036
1.00095
1.00197
1.00557
1.01102
1.03455
1.0629
1.23199
1.45009
2.6618
5.34991
12.4136
12.1237
11.5986
11.4829
11.518
11.6046
11.7072
11.7711
11.8346
11.8904
11.9334
11.9665
11.9957
12.0282
12.0559
12.0943
12.1252
12.1595
12.1739
12.1936
1
1
1
1
1
1
1
1
1
1
1
1
1
1
1
1.00001
1.00002
1.00005
1.00014
1.0003
1.00079
1.00162
1.00467
1.009
1.03006
1.05129
1.20885
1.368
2.49424
4.6802
11.432
11.9041
11.6066
11.4043
11.426
11.5034
11.6111
11.6764
11.7362
11.7886
11.829
11.8578
11.8809
11.9051
11.9267
11.9587
11.9845
12.0154
12.027
12.0493
1
1
1
1
1
1
1
1
1
1
1
1
1
1
1
1.00001
1.00002
1.00004
1.00011
1.00024
1.00063
1.00124
1.00385
1.00662
1.02592
1.04044
1.17885
1.30318
2.29998
4.12098
10.2685
11.841
11.5496
11.2965
11.3134
11.3861
11.4928
11.5635
11.6209
11.6685
11.7044
11.7263
11.741
11.7551
11.7673
11.7866
11.8053
11.8348
11.8444
11.8662
1
1
1
1
1
1
1
1
1
1
1
1
1
1
1
1.00001
1.00002
1.00004
1.0001
1.00022
1.00056
1.00113
1.00324
1.00601
1.02115
1.03356
1.14735
1.2404
2.08809
3.53453
8.88867
11.8582
11.5233
11.1926
11.199
11.2557
11.3572
11.4312
11.4851
11.527
11.5557
11.5691
11.5729
11.5735
11.573
11.5726
11.5779
11.5941
11.5976
11.6209
1
1
1
1
1
1
1
1
1
1
1
1
1
1
1
1.00001
1.00001
1.00003
1.00008
1.00017
1.00046
1.00095
1.00273
1.0055
1.01665
1.03175
1.11055
1.19846
1.79696
2.89047
7.03344
11.8392
11.5081
11.1318
11.0818
11.1196
11.1996
11.2722
11.3235
11.3583
11.3772
11.3798
11.3712
11.3508
11.3249
11.2978
11.2778
11.276
11.2628
11.2783
1
1
1
1
1
1
1
1
1
1
1
1
1
1
1
1
1.00001
1.00002
1.00006
1.00012
1.00033
1.00068
1.00199
1.0039
1.01269
1.02229
1.08711
1.1471
1.60504
2.36663
5.31874
11.3521
11.3888
11.1551
10.9878
10.9947
11.031
11.0952
11.1392
11.1618
11.1651
11.1564
11.1274
11.0753
11.0151
10.9511
10.8747
10.8249
10.7641
10.7508
1
1
1
1
1
1
1
1
1
1
1
1
1
1
1
1
1.00001
1.00002
1.00004
1.00009
1.00024
1.00048
1.00141
1.00265
1.00919
1.01497
1.06474
1.10327
1.44995
1.99779
4.27545
9.79025
11.3884
11.2176
10.9484
10.8703
10.8797
10.9052
10.9316
10.9315
10.9204
10.8884
10.8228
10.7333
10.6211
10.4918
10.324
10.1663
9.97825
9.81356
1
1
1
1
1
1
1
1
1
1
1
1
1
1
1
1
1.00001
1.00001
1.00003
1.00006
1.00016
1.00034
1.001
1.00205
1.00615
1.01224
1.0386
1.07329
1.25495
1.54915
2.79574
5.89091
11.3831
11.2949
10.9651
10.7422
10.6919
10.6893
10.6815
10.6576
10.6045
10.5223
10.4138
10.2651
10.0673
9.80762
9.45479
8.96653
8.20951
6.64157
1
1
1
1
1
1
1
1
1
1
1
1
1
1
1
1
1
1.00001
1.00002
1.00003
1.00009
1.00016
1.00053
1.00084
1.00356
1.00526
1.02546
1.03747
1.18333
1.30661
2.33229
4.18024
10.0803
11.1571
10.9303
10.5882
10.4532
10.4183
10.3798
10.3088
10.2088
10.0821
9.91749
9.70091
9.41286
9.03532
8.53328
7.85703
6.9667
5.48613
1
1
1
1
1
1
1
1
1
1
1
1
1
1
1
1
1
1
1.00001
1.00002
1.00006
1.00012
1.00037
1.00074
1.00226
1.0043
1.01483
1.02442
1.10533
1.16819
1.74756
2.70437
6.36961
10.7764
10.7564
10.5258
10.2546
10.1193
10.0379
9.93551
9.79826
9.62707
9.41489
9.1483
8.81052
8.38505
7.85434
7.18886
6.40912
5.36318
1
1
1
1
1
1
1
1
1
1
1
1
1
1
1
1
1
1
1.00001
1.00001
1.00004
1.00008
1.00021
1.00041
1.00127
1.00205
1.00866
1.01254
1.06276
1.09672
1.43841
1.95789
4.09712
8.95482
10.4108
10.3482
10.1319
9.87013
9.70583
9.56971
9.40785
9.21334
8.97196
8.68021
8.32864
7.90767
7.41163
6.82989
6.18224
5.38082
1
1
1
1
1
1
1
1
1
1
1
1
1
1
1
1
1
1
1
1.00001
1.00001
1.00004
1.00007
1.00028
1.00052
1.00181
1.00348
1.01206
1.0218
1.08221
1.14529
1.56047
2.25326
4.73523
9.37577
10.0559
9.93377
9.65154
9.39472
9.21118
9.04074
8.83988
8.59997
8.31271
7.97492
7.5848
7.14122
6.64072
6.09628
5.4331
1
1
1
1
1
1
1
1
1
1
1
1
1
1
1
1
1
1
1
1
1
1.00002
1.00003
1.00014
1.00027
1.00092
1.00186
1.0059
1.01149
1.03779
1.0703
1.25028
1.54498
2.72716
5.60736
9.31325
9.66492
9.52878
9.2283
8.9553
8.74178
8.5359
8.30248
8.02943
7.7144
7.3583
6.96244
6.52641
6.06053
5.50527
1
1
1
1
1
1
1
1
1
1
1
1
1
1
1
1
1
1
1
1
1
1.00001
1.00003
1.00005
1.00018
1.00036
1.00111
1.00217
1.00699
1.01208
1.04803
1.07399
1.33256
1.66533
3.21364
6.61462
9.02025
9.24836
9.1176
8.8306
8.53915
8.29803
8.06507
7.80965
7.52226
7.20264
6.85062
6.46658
6.06134
5.57831
1
1
1
1
1
1
1
1
1
1
1
1
1
1
1
1
1
1
1
1
1
1
1.00001
1.00003
1.00007
1.00013
1.0004
1.0006
1.00254
1.00334
1.01864
1.0246
1.14063
1.21352
1.98141
3.13431
6.7909
8.64692
8.82716
8.71245
8.45242
8.14907
7.88802
7.64146
7.37931
7.09095
6.77699
6.43447
6.0701
5.64464
1
1
1
1
1
1
1
1
1
1
1
1
1
1
1
1
1
1
1
1
1
1
1
1.00001
1.00003
1.00007
1.0002
1.0004
1.00124
1.00232
1.00816
1.01403
1.05597
1.0946
1.37905
1.78677
3.36049
6.59985
8.17574
8.40883
8.32412
8.10543
7.81109
7.53805
7.27842
7.01271
6.72853
6.42396
6.09289
5.70978
1
1
1
1
1
1
1
1
1
1
1
1
1
1
1
1
1
1
1
1
1
1
1
1
1.00001
1.00003
1.00007
1.00012
1.00037
1.0005
1.00227
1.00275
1.01737
1.0218
1.13501
1.19936
1.90131
2.89127
5.95941
7.65268
8.00588
7.95792
7.78858
7.51095
7.23704
6.97717
6.71404
6.42941
6.12981
5.78318
1
1
1
1
1
1
1
1
1
1
1
1
1
1
1
1
1
1
1
1
1
1
1
1
1
1.00001
1.00002
1.00007
1.00013
1.00036
1.0006
1.00221
1.00271
1.01509
1.01827
1.11448
1.16004
1.75536
2.50255
4.96438
7.0791
7.62006
7.60423
7.48331
7.23384
6.98103
6.72309
6.4514
6.17413
5.85549
1
1
1
1
1
1
1
1
1
1
1
1
1
1
1
1
1
1
1
1
1
1
1
1
1
1
1
1.00001
1.00002
1.00006
1.00008
1.00038
1.00052
1.00443
1.00651
1.03195
1.0544
1.20965
1.41006
2.22373
3.76953
6.46603
7.1762
7.24637
7.17788
7.00277
6.76111
6.5057
6.24345
5.93878
1
1
1
1
1
1
1
1
1
1
1
1
1
1
1
1
1
1
1
1
1
1
1
1
1
1
1
1
1.00001
1.00002
1.00005
1.00007
1.0003
1.00041
1.00185
1.00206
1.01963
1.02251
1.16427
1.23529
1.96837
2.95161
5.63109
6.55233
6.89137
6.87045
6.76739
6.56112
6.33067
6.04092
1
1
1
1
1
1
1
1
1
1
1
1
1
1
1
1
1
1
1
1
1
1
1
1
1
1
1
1
1
1.00001
1.00002
1.00005
1.00009
1.00027
1.00036
1.00163
1.00159
1.01258
1.01323
1.10329
1.12873
1.6309
2.12252
3.8376
5.8163
6.41343
6.53317
6.48382
6.34421
6.07733
1
1
1
1
1
1
1
1
1
1
1
1
1
1
1
1
1
1
1
1
1
1
1
1
1
1
1
1
1
1
1
1.00001
1.00001
1.00005
1.00008
1.00025
1.00035
1.00198
1.0022
1.02041
1.02639
1.14279
1.21821
1.80189
2.49688
4.53108
5.62933
6.07477
6.09088
6.01029
1
1
1
1
1
1
1
1
1
1
1
1
1
1
1
1
1
1
1
1
1
1
1
1
1
1
1
1
1
1
1
1
1
1.00001
1.00004
1.00006
1.00022
1.00031
1.00137
1.00198
1.00923
1.0114
1.07331
1.08181
1.45215
1.66805
2.74991
4.41625
5.24282
5.5638
1
1
1
1
1
1
1
1
1
1
1
1
1
1
1
1
1
1
1
1
1
1
1
1
1
1
1
1
1
1
1
1
1
1
1
1.00001
1.00002
1.00008
1.00011
1.00043
1.0008
1.00309
1.00426
1.02894
1.03584
1.17349
1.27023
1.7397
2.44793
3.82113
1
1
1
1
1
1
1
1
1
1
1
1
1
1
1
1
1
1
1
1
1
1
1
1
1
1
1
1
1
1
1
1
1
1
1
1
1
1
1.00003
1.00003
1.00022
1.0003
1.00129
1.00219
1.0089
1.01152
1.06958
1.07396
1.36255
1.63338
1
1
1
1
1
1
1
1
1
1
1
1
1
1
1
1
1
1
1
1
1
1
1
1
1
1
1
1
1
1
1
1
1
1
1
1
1
1
1.00001
1.00001
1.00003
1.00004
1.00025
1.00037
1.0016
1.00208
1.01344
1.01417
1.09665
1.15125
1
1
1
1
1
1
1
1
1
1
1
1
1
1
1
1
1
1
1
1
1
1
1
1
1
1
1
1
1
1
1
1
1
1
1
1
1
1
1
1
1
1.00003
1.00004
1.00019
1.00028
1.00146
1.00131
1.01398
1.01763
1.08333
1
1
1
1
1
1
1
1
1
1
1
1
1
1
1
1
1
1
1
1
1
1
1
1
1
1
1
1
1
1
1
1
1
1
1
1
1
1
1
1
1
1
1.00004
1.00004
1.00033
1.00081
1.00117
1.0013
1.01279
1.02029
1
1
1
1
1
1
1
1
1
1
1
1
1
1
1
1
1
1
1
1
1
1
1
1
1
1
1
1
1
1
1
1
1
1
1
1
1
1
1
1
1
1
1
1.00004
1.00011
1.00016
1.00016
1.00178
1.00185
1.01287
1
1
1
1
1
1
1
1
1
1
1
1
1
1
1
1
1
1
1
1
1
1
1
1
1
1
1
1
1
1
1
1
1
1
1
1
1
1
1
1
1
1
1
1.00001
1.00002
1.00006
1.00008
1.00067
1.0007
1.00477
1
1
1
1
1
1
1
1
1
1
1
1
1
1
1
1
1
1
1
1
1
1
1
1
1
1
1
1
1
1
1
1
1
1
1
1
1
1
1
1
1
1
1
1.00001
1.00001
1.00004
1.00005
1.00006
1.00062
1.00101
1
1
1
1
1
1
1
1
1
1
1
1
1
1
1
1
1
1
1
1
1
1
1
1
1
1
1
1
1
1
1
1
1
1
1
1
1
1
1
1
1
1
1
1
1
1.00001
1.00002
1.00002
1.00022
1.00034
1
1
1
1
1
1
1
1
1
1
1
1
1
1
1
1
1
1
1
1
1
1
1
1
1
1
1
1
1
1
1
1
1
1
1
1
1
1
1
1
1
1
1
1
1
1
1
1.00002
1.00002
1.00018
1
1
1
1
1
1
1
1
1
1
1
1
1
1
1
1
1
1
1
1
1
1
1
1
1
1
1
1
1
1
1
1
1
1
1
1
1
1
1
1
1
1
1
1
1
1
1
1.00001
1.00001
1.00005
1
1
1
1
1
1
1
1
1
1
1
1
1
1
1
1
1
1
1
1
1
1
1
1
1
1
1
1
1
1
1
1
1
1
1
1
1
1
1
1
1
1
1
1
1
1
1
1
1
1.00001
1
1
1
1
1
1
1
1
1
1
1
1
1
1
1
1
1
1
1
1
1
1
1
1
1
1
1
1
1
1
1
1
1
1
1
1
1
1
1
1
1
1
1
1
1
1
1
1
1
1
1
1
1
1
1
1
1
1
1
1
1
1
1
1
1
1
1
1
1
1
1
1
1
1
1
1
1
1
1
1
1
1
1
1
1
1
1
1
1
1
1
1
1
1
1
1
1
1
1
1
1
1
1
1
1
1
1
1
1
1
1
1
1
1
1
1
1
1
1
1
1
1
1
1
1
1
1
1
1
1
1
1
1
1
1
1
1
1
1
1
1
1
1
1
1
1
1
1
1
1
1
1
1
1
1
1
1
1
1
1
1
1
1
1
1
1
1
1
1
1
1
1
1
1
1
1
1
1
1
1
1
1
1
1
1
1
1
1
1
1
1
1
1
1
1
1
1
1
1
1
1
1
1
1
1
1
1
1
1
1
1
1
1
1
1
1
1
1
1
1
1
1
1
1
1
1
1
1
1
1
1
1
1
1
1
1
1
1
1
1
1
1
1
1
1
1
1
1
1
1
1
1
1
1
1
1
1
1
1
1
1
1
1
1
1
1
1
1
1
1
1
1
1
1
1
1
1
1
1
1
1
1
1
1
1
1
1
1
1
1
1
1
1
1
1
1
1
1
1
1
1
1
1
1
1
1
1
1
1
1
1
1
1
1
1
1
1
1
1
1
1
1
1
1
1
1
1
1
1
1
1
1
1
1
1
1
1
1
1
1
1
1
1
1
1
1
1
1
1
1
1
1
1
1
1
1
1
1
1
1
1
1
1
1
1
1
1
1
1
1
1
1
1
1
1
1
1
1
1
1
1
1
1
1
1
1
1
1
1
1
1
1
1
1
1
1
1
1
1
1
1
1
1
1
1
1
1
1
1
1
1
1
1
1
1
1
1
1
1
1
1
1
1
1
1
1
1
1
1
1
1
1
1
1
1
1
1
1
1
1
1
1
1
1
1
1
1
1
1
1
1
1
1
1
1
1
1
1
1
1
1
1
1
1
1
1
1
1
1
1
1
1
1
1
1
1
1
1
1
1
1
1
1
1
1
1
1
1
1
1
1
1
1
1
1
1
1
1
1
1
1
1
1
1
1
1
1
1
1
1
1
1
1
1
1
1
1
1
1
1
1
1
1
1
1
1
1
1
1
1
1
1
1
1
1
1
1
1
1
1
1
1
1
1
1
1
1
1
1
1
1
1
1
1
1
1
1
1
1
1
1
1
1
1
1
1
1
1
1
1
1
1
1
1
1
1
1
1
1
1
1
1
1
1
1
1
1
1
1
1
1
1
1
1
1
1
1
1
1
1
2.18942
1.14488
0.777201
0.642235
0.64972
0.683563
0.763171
0.924763
1.03744
1.06155
1.05845
1.04855
1.02765
1.00843
0.99974
0.999582
0.999108
0.99767
0.994221
0.98704
0.976758
0.965949
0.955681
0.946404
0.938068
0.930337
0.922821
0.915286
0.907656
0.899991
0.892466
0.885276
0.878576
0.872633
0.867526
0.863144
0.859786
0.857202
0.8551
0.854168
0.854112
0.854195
0.854552
0.85548
0.857358
0.861239
0.863658
0.867097
0.873355
0.878686
0.884515
0.890855
0.897677
0.904827
0.912183
0.919662
0.927191
0.93468
0.94202
0.949118
0.955932
0.96244
0.968635
0.974473
0.979894
0.984842
0.989339
0.993526
0.997634
1.00186
1.00624
1.01054
1.01443
1.0175
1.01949
1.02044
1.02068
1.02068
1.02066
1.02055
1.02027
1.01962
1.01835
1.01548
1.01266
1.00921
1.00639
1.00427
1.00273
1.00163
1.00084
1.00035
1.00016
1.00005
0.999986
0.999954
0.999941
0.999936
0.99993
0.999926
2.9107
1.81342
1.34692
1.14377
1.05881
1.0042
0.946572
0.930367
0.934007
0.945018
0.968294
1.01045
1.03724
1.03646
1.03297
1.02471
1.00809
0.99369
0.983184
0.975803
0.969976
0.964105
0.95756
0.950044
0.941778
0.933053
0.924147
0.915369
0.90693
0.898948
0.891531
0.884652
0.878274
0.872596
0.867588
0.863137
0.859582
0.856821
0.854503
0.853353
0.853275
0.853355
0.853677
0.854517
0.856331
0.860151
0.864138
0.867605
0.872169
0.880221
0.885206
0.89087
0.897194
0.903941
0.910957
0.918149
0.925447
0.932776
0.940047
0.947182
0.95413
0.960828
0.967228
0.973267
0.978837
0.983888
0.98848
0.992766
0.996966
1.00127
1.00573
1.01013
1.0141
1.01722
1.01925
1.02025
1.02055
1.02057
1.02055
1.02047
1.02023
1.01967
1.01852
1.01606
1.01264
1.00915
1.0064
1.00431
1.00277
1.0016
1.00076
1.00037
1.00017
1.00005
0.999988
0.999955
0.999942
0.999937
0.999934
0.999926
3.7498
2.75743
2.10715
1.66111
1.35097
1.14117
0.996908
0.906776
0.904811
0.909189
0.921747
0.948448
0.983307
1.00934
1.01539
1.01456
1.01168
1.00514
0.991959
0.979285
0.969333
0.961467
0.954083
0.946537
0.938593
0.930308
0.921889
0.913563
0.90547
0.89771
0.890424
0.883606
0.877237
0.871561
0.866545
0.862084
0.858554
0.855832
0.853539
0.852497
0.85246
0.852554
0.852923
0.853843
0.855772
0.859923
0.863242
0.866704
0.874051
0.879236
0.88492
0.891104
0.897642
0.904418
0.911355
0.91842
0.925584
0.932794
0.939985
0.947067
0.953951
0.960623
0.967051
0.973142
0.978793
0.983922
0.988576
0.992923
0.997167
1.00151
1.00601
1.01044
1.01443
1.01758
1.01957
1.02053
1.02081
1.02082
1.0208
1.02071
1.02045
1.01988
1.01866
1.01613
1.01238
1.009
1.00632
1.00426
1.00271
1.00153
1.00073
1.00038
1.00017
1.00005
0.999988
0.999956
0.999943
0.999938
0.999935
0.999927
4.18005
3.28834
2.59346
2.07482
1.70342
1.44308
1.25944
1.13803
1.0453
0.987327
0.952708
0.950423
0.952444
0.95843
0.971032
0.987456
0.999415
0.999211
0.997726
0.993661
0.985015
0.971158
0.958442
0.947395
0.937834
0.929275
0.921267
0.913536
0.905868
0.898252
0.890867
0.883831
0.877234
0.871369
0.86622
0.861733
0.858288
0.855609
0.853389
0.852465
0.852439
0.852535
0.852904
0.853802
0.85561
0.859581
0.863325
0.867737
0.87286
0.878404
0.884275
0.890441
0.896898
0.90359
0.910486
0.917572
0.92481
0.932139
0.939466
0.946671
0.953673
0.960439
0.966956
0.973159
0.97893
0.984186
0.988943
0.993391
0.9978
1.0023
1.00687
1.01132
1.01525
1.01842
1.02045
1.02127
1.02145
1.02145
1.0214
1.02124
1.02083
1.01982
1.01851
1.0161
1.0121
1.00882
1.00622
1.0042
1.00262
1.0014
1.00071
1.00038
1.00018
1.00006
0.999989
0.999956
0.999943
0.999938
0.999934
0.999927
4.45456
3.68006
3.01773
2.47832
2.06365
1.74919
1.51087
1.32812
1.18974
1.08451
1.00651
0.962036
0.941864
0.942211
0.944144
0.948775
0.958253
0.969898
0.974896
0.974641
0.973384
0.970119
0.963192
0.951343
0.939441
0.928596
0.918977
0.910242
0.902088
0.894396
0.887227
0.88052
0.874329
0.868883
0.864072
0.859876
0.856695
0.854142
0.852055
0.851281
0.851272
0.851375
0.851732
0.852653
0.854798
0.858306
0.862193
0.866712
0.871898
0.877588
0.88365
0.890029
0.896683
0.903566
0.910619
0.917803
0.925088
0.932437
0.939751
0.946898
0.953818
0.960519
0.966978
0.973122
0.978883
0.984181
0.988999
0.993505
0.998014
1.00275
1.00755
1.0119
1.0158
1.01887
1.02084
1.02184
1.02193
1.02191
1.02181
1.02156
1.02095
1.01977
1.01859
1.01628
1.01204
1.00868
1.00608
1.00406
1.00248
1.0013
1.0007
1.00038
1.00017
1.00005
0.999987
0.999955
0.999943
0.999938
0.999935
0.999927
4.66584
3.99285
3.38162
2.84657
2.4076
2.05618
1.77998
1.56323
1.39476
1.26386
1.16241
1.08204
1.01918
0.97818
0.954157
0.943156
0.943465
0.944746
0.947747
0.953797
0.959504
0.959384
0.958514
0.956054
0.950742
0.940175
0.927269
0.915136
0.90435
0.895048
0.887049
0.880022
0.873909
0.8687
0.864063
0.860087
0.857012
0.854443
0.852376
0.851551
0.85153
0.85155
0.851967
0.852903
0.854919
0.858287
0.862202
0.866725
0.871867
0.877534
0.883622
0.890048
0.896744
0.903643
0.910691
0.917855
0.925098
0.932376
0.939583
0.946605
0.95338
0.959945
0.966332
0.972437
0.978179
0.983524
0.988392
0.992941
0.99766
1.00275
1.00769
1.01208
1.01612
1.01919
1.02115
1.02212
1.02225
1.02225
1.02221
1.02202
1.02159
1.02063
1.01865
1.01517
1.01157
1.00847
1.00595
1.00393
1.00232
1.00121
1.00069
1.00037
1.00017
1.00005
0.999989
0.999958
0.999946
0.999941
0.999938
0.99993
4.83469
4.23901
3.68102
3.16741
2.72303
2.35135
2.0475
1.80076
1.60144
1.4403
1.3098
1.20353
1.11915
1.05065
0.997675
0.961979
0.942148
0.932087
0.931259
0.931601
0.932556
0.934636
0.936092
0.935834
0.934789
0.932184
0.926711
0.916995
0.906165
0.895784
0.886631
0.878555
0.871587
0.865805
0.860912
0.856773
0.853817
0.851647
0.849957
0.849156
0.849175
0.849401
0.850044
0.851339
0.853996
0.857494
0.861628
0.866409
0.871775
0.877628
0.883871
0.890427
0.897223
0.904196
0.911288
0.918453
0.925713
0.932998
0.94015
0.947109
0.953902
0.960475
0.966871
0.973049
0.978814
0.984138
0.98906
0.993687
0.9985
1.00374
1.00875
1.01314
1.01718
1.02015
1.02193
1.02277
1.02297
1.02287
1.02282
1.02265
1.0222
1.02114
1.01892
1.01513
1.01139
1.00827
1.00574
1.00373
1.00214
1.00115
1.00067
1.00036
1.00016
1.00005
0.999988
0.99996
0.999949
0.999945
0.999941
0.999934
4.97944
4.43778
3.92813
3.44399
3.00711
2.62749
2.30525
2.03611
1.81338
1.62994
1.47882
1.35427
1.25153
1.1666
1.09792
1.04126
0.995545
0.96205
0.940657
0.927615
0.921179
0.91833
0.91836
0.918518
0.918847
0.918683
0.917954
0.916041
0.911959
0.904018
0.894492
0.884902
0.876265
0.868763
0.862574
0.857493
0.853832
0.851256
0.849221
0.848673
0.848701
0.848893
0.849445
0.850693
0.85331
0.857072
0.861449
0.866426
0.871916
0.877869
0.884179
0.890748
0.89755
0.904562
0.911684
0.918836
0.92606
0.933367
0.940584
0.947569
0.954415
0.961173
0.967685
0.974033
0.980022
0.985518
0.990617
0.995464
1.00041
1.00576
1.01088
1.01525
1.01911
1.02178
1.02329
1.02385
1.024
1.02407
1.02401
1.0238
1.02326
1.022
1.01936
1.01496
1.01118
1.00809
1.00558
1.00354
1.00198
1.00113
1.00066
1.00035
1.00016
1.00005
0.99999
0.999962
0.999951
0.999947
0.999944
0.999937
5.1021
4.59854
4.12632
3.67282
3.252
2.87434
2.54499
2.26211
2.02243
1.82078
1.65157
1.50925
1.38905
1.28742
1.20156
1.12919
1.06915
1.01917
0.978827
0.94766
0.927078
0.913955
0.9064
0.902412
0.900211
0.898974
0.898737
0.898196
0.896946
0.894293
0.889449
0.88364
0.877064
0.870302
0.864013
0.858488
0.85385
0.850511
0.847819
0.846315
0.846246
0.846351
0.846766
0.847812
0.85004
0.853876
0.858489
0.863655
0.869312
0.875381
0.881857
0.88865
0.895583
0.902709
0.910109
0.917588
0.925003
0.932443
0.939947
0.947324
0.95434
0.961376
0.968123
0.974709
0.980686
0.986342
0.991634
0.996828
1.00208
1.00756
1.01291
1.01738
1.02097
1.02328
1.0245
1.0253
1.02553
1.02549
1.02535
1.02498
1.02415
1.02234
1.01863
1.0144
1.01078
1.00775
1.00527
1.00325
1.00181
1.00108
1.00062
1.00032
1.00014
1.00004
0.999986
0.999961
0.999951
0.999948
0.999945
0.999939
5.2224
4.74158
4.29501
3.86574
3.46313
3.09493
2.76501
2.47515
2.22459
2.0094
1.82568
1.66863
1.53417
1.41906
1.32037
1.236
1.16377
1.10235
1.05018
1.00711
0.9707
0.940787
0.919093
0.904169
0.894464
0.88863
0.885304
0.883571
0.882874
0.882474
0.881608
0.879784
0.876654
0.872564
0.867899
0.863105
0.858506
0.85466
0.851653
0.849299
0.848246
0.848236
0.84837
0.848865
0.850069
0.852541
0.857097
0.862161
0.867723
0.873772
0.88017
0.886919
0.893973
0.901123
0.908315
0.915905
0.923556
0.931029
0.93852
0.945867
0.953083
0.960136
0.966952
0.973688
0.980026
0.985699
0.991232
0.997116
1.00269
1.00826
1.01385
1.01855
1.02206
1.02437
1.02602
1.02666
1.02668
1.02659
1.02635
1.02577
1.02455
1.02188
1.01786
1.01379
1.01028
1.00733
1.0049
1.00293
1.00167
1.00102
1.00058
1.0003
1.00013
1.00004
0.999986
0.999963
0.999954
0.999951
0.999948
0.999942
5.33206
4.87129
4.44281
4.03335
3.64764
3.29046
2.96496
2.67359
2.41666
2.19229
1.99774
1.8288
1.68237
1.55511
1.44458
1.34847
1.26485
1.19216
1.12892
1.07436
1.02724
0.98797
0.954387
0.926988
0.905937
0.891198
0.881205
0.874681
0.870752
0.868247
0.866643
0.865604
0.864868
0.86369
0.862041
0.859995
0.857699
0.855415
0.85331
0.851579
0.85114
0.851165
0.851337
0.851842
0.853017
0.854924
0.858835
0.863811
0.869011
0.87476
0.880895
0.887378
0.893905
0.90074
0.908377
0.915769
0.923019
0.930333
0.93769
0.944964
0.952073
0.959042
0.965919
0.97262
0.979012
0.985025
0.990708
0.996463
1.0027
1.00882
1.0143
1.01916
1.02294
1.02567
1.02719
1.02746
1.02743
1.02732
1.02699
1.02623
1.02464
1.0216
1.0173
1.01321
1.00975
1.00687
1.00448
1.00262
1.00156
1.00094
1.00053
1.00027
1.00011
1.00003
0.999984
0.999964
0.999957
0.999955
0.999952
0.999947
5.43728
4.98256
4.57063
4.17724
3.80618
3.46121
3.14475
2.85733
2.59954
2.37047
2.16812
1.98974
1.83269
1.69443
1.57304
1.46621
1.37248
1.28997
1.21736
1.15395
1.09851
1.0505
1.009
0.973635
0.943715
0.918624
0.897812
0.882401
0.871286
0.863668
0.858803
0.855838
0.85405
0.852978
0.852595
0.852452
0.852331
0.852181
0.852086
0.852085
0.85229
0.853149
0.854509
0.855858
0.857863
0.860692
0.864217
0.868511
0.873796
0.87975
0.886116
0.8925
0.899458
0.907246
0.914613
0.921858
0.929024
0.936091
0.943105
0.950003
0.956691
0.963234
0.969731
0.976015
0.982022
0.987742
0.993202
0.998743
1.0047
1.01094
1.0167
1.02148
1.02513
1.02747
1.02859
1.02874
1.02869
1.02857
1.02822
1.02741
1.02565
1.02196
1.01705
1.01286
1.00938
1.00651
1.00413
1.00242
1.0015
1.00089
1.0005
1.00025
1.00011
1.00003
0.999986
0.999968
0.999962
0.99996
0.999957
0.999952
5.53869
5.08797
4.68281
4.30807
3.95795
3.6254
3.31534
3.03163
2.77435
2.54268
2.33463
2.14829
1.98185
1.8337
1.70231
1.58593
1.48298
1.39176
1.31098
1.23948
1.17646
1.12094
1.07209
1.02934
0.992112
0.959639
0.932184
0.908456
0.888343
0.872993
0.861853
0.853902
0.848573
0.845052
0.843204
0.841768
0.841621
0.841698
0.841987
0.842639
0.843957
0.84638
0.849226
0.852141
0.856073
0.860601
0.865088
0.870379
0.876812
0.883489
0.889809
0.896665
0.904807
0.912579
0.92019
0.927905
0.935651
0.94332
0.950828
0.958072
0.964964
0.971499
0.977798
0.983837
0.989418
0.994563
0.999578
1.00475
1.01018
1.01611
1.02182
1.02614
1.02878
1.03025
1.03115
1.03124
1.03113
1.03092
1.0304
1.02922
1.02672
1.02172
1.01661
1.01241
1.00895
1.00609
1.00377
1.00226
1.00141
1.00083
1.00046
1.00023
1.00009
1.00002
0.999985
0.999969
0.999964
0.999962
0.99996
0.999956
5.61579
5.1861
4.79697
4.43651
4.0981
3.78147
3.48049
3.20081
2.94333
2.70881
2.49598
2.30289
2.12822
1.97123
1.83095
1.70609
1.59509
1.49633
1.40839
1.33007
1.26044
1.19861
1.14374
1.09504
1.05194
1.01378
0.980131
0.950484
0.925018
0.902694
0.883456
0.868211
0.856555
0.847885
0.841577
0.83746
0.834843
0.83395
0.833947
0.834082
0.83453
0.835611
0.837902
0.840991
0.845537
0.851015
0.855998
0.86237
0.87007
0.877132
0.884306
0.893479
0.902742
0.9118
0.920996
0.930143
0.939071
0.947673
0.955884
0.96365
0.970893
0.977617
0.983927
0.989914
0.995585
1.00094
1.00621
1.01164
1.01715
1.02278
1.02815
1.03226
1.03388
1.03433
1.03476
1.0348
1.03461
1.03418
1.03319
1.03099
1.02631
1.02074
1.01592
1.01181
1.0084
1.00558
1.0034
1.00211
1.00131
1.00077
1.00042
1.00021
1.00008
1.00002
0.999985
0.99997
0.999966
0.999964
0.999962
0.999958
5.61541
5.26518
4.91753
4.57795
4.2534
3.9426
3.64754
3.36788
3.10821
2.87045
2.65277
2.45359
2.27171
2.10673
1.95837
1.82581
1.70764
1.60228
1.50817
1.42397
1.34864
1.28124
1.22096
1.16711
1.1188
1.07551
1.03663
1.00183
0.970944
0.94363
0.919797
0.898942
0.880547
0.865373
0.853513
0.844479
0.837609
0.832986
0.83001
0.8292
0.829303
0.829681
0.830627
0.832618
0.835465
0.839124
0.842922
0.847803
0.85499
0.861215
0.868483
0.878105
0.887528
0.897304
0.907558
0.918108
0.928728
0.939154
0.9492
0.958746
0.967704
0.975998
0.983658
0.990804
0.997463
1.00365
1.00958
1.01562
1.02181
1.02773
1.03306
1.03702
1.03813
1.03822
1.03818
1.0381
1.03764
1.03657
1.03402
1.03009
1.02495
1.01962
1.0149
1.0109
1.00761
1.00491
1.003
1.00192
1.00117
1.00068
1.00036
1.00017
1.00007
1.00001
0.999981
0.99997
0.999967
0.999966
0.999964
0.999961
5.50715
5.31041
5.05981
4.74742
4.43066
4.11716
3.81316
3.52876
3.26786
3.02762
2.80673
2.60297
2.41492
2.24293
2.08701
1.94699
1.82199
1.71046
1.61067
1.52108
1.44053
1.36807
1.303
1.24427
1.19138
1.14362
1.10042
1.0614
1.02625
0.994901
0.9669
0.94208
0.920242
0.900879
0.88337
0.868396
0.856496
0.847114
0.839974
0.83484
0.831524
0.829493
0.829552
0.829902
0.83083
0.832779
0.836126
0.840349
0.845874
0.850933
0.856025
0.863849
0.871809
0.88031
0.889713
0.899947
0.910701
0.921677
0.93266
0.943518
0.954125
0.964322
0.973971
0.983138
0.991912
1.00025
1.00816
1.01577
1.02309
1.02977
1.03541
1.03938
1.04036
1.04032
1.04021
1.03991
1.03896
1.03709
1.03331
1.02919
1.02372
1.01834
1.01371
1.00987
1.00673
1.00424
1.00268
1.00171
1.00104
1.00059
1.00031
1.00015
1.00005
1
0.999981
0.999972
0.99997
0.99997
0.999968
0.999965
5.04419
5.20202
5.1087
4.90151
4.59763
4.29198
3.9854
3.68961
3.41603
3.16937
2.94655
2.74225
2.55267
2.37645
2.21492
2.0691
1.93854
1.82189
1.71713
1.62264
1.53702
1.45962
1.38973
1.32666
1.26944
1.2174
1.17018
1.12735
1.08857
1.05355
1.02213
0.993884
0.96864
0.94589
0.925857
0.907698
0.891374
0.876852
0.865115
0.855806
0.848768
0.843361
0.839947
0.837324
0.837095
0.837263
0.837819
0.839158
0.841885
0.846203
0.850271
0.857077
0.864403
0.872113
0.88031
0.889239
0.898755
0.908647
0.9189
0.929565
0.940514
0.951527
0.962481
0.973278
0.983881
0.994161
1.004
1.01321
1.02179
1.02947
1.03579
1.03985
1.0407
1.04066
1.04052
1.04017
1.03908
1.037
1.03283
1.02832
1.02248
1.01706
1.01255
1.0089
1.00591
1.00372
1.00243
1.00153
1.00092
1.00052
1.00027
1.00013
1.00004
1
0.999983
0.999976
0.999974
0.999974
0.999974
0.999972
3.56133
4.86246
4.9873
4.90246
4.7152
4.43946
4.14851
3.85057
3.56917
3.3142
3.08497
2.87723
2.68583
2.50813
2.34367
2.19375
2.05837
1.93674
1.82714
1.72792
1.63781
1.5559
1.48145
1.41383
1.35243
1.29663
1.24585
1.19963
1.15759
1.11945
1.08489
1.05354
1.02526
0.999834
0.976834
0.956484
0.938073
0.922038
0.907373
0.893844
0.882773
0.873548
0.866453
0.861006
0.857132
0.854626
0.853573
0.853675
0.854079
0.855025
0.857008
0.859825
0.865161
0.870457
0.876916
0.884668
0.893353
0.902539
0.912212
0.92252
0.93337
0.944516
0.955685
0.966826
0.978287
0.989798
1.00092
1.01143
1.02114
1.02976
1.03669
1.04061
1.04126
1.04126
1.04114
1.04079
1.03973
1.03766
1.03328
1.02818
1.02177
1.01621
1.01175
1.00817
1.00533
1.00346
1.00226
1.00141
1.00085
1.00048
1.00025
1.00012
1.00004
1.00001
0.999988
0.999981
0.99998
0.99998
0.99998
0.999979
1.79761
3.80278
4.66118
4.77184
4.70085
4.53639
4.28522
4.00786
3.724
3.46057
3.22458
3.0134
2.82104
2.64228
2.4751
2.32051
2.1801
2.05404
1.94049
1.83739
1.74316
1.65697