/*--------------------------------*- C++ -*----------------------------------*\
| =========                 |                                                 |
| \\      /  F ield         | OpenFOAM: The Open Source CFD Toolbox           |
|  \\    /   O peration     | Version:  2112                                  |
|   \\  /    A nd           | Website:  www.openfoam.com                      |
|    \\/     M anipulation  |                                                 |
\*---------------------------------------------------------------------------*/
FoamFile
{
    version     2.0;
    format      ascii;
    arch        "LSB;label=32;scalar=64";
    class       surfaceScalarField;
    location    "0.5";
    object      phi;
}
// * * * * * * * * * * * * * * * * * * * * * * * * * * * * * * * * * * * * * //

dimensions      [1 0 -1 0 0 0 0];

oriented        oriented;

internalField   nonuniform List<scalar> 
13790
(
0.00290515
4.02739e-09
0.00290515
1.95269e-09
0.00290515
6.31087e-10
0.00290515
-3.86209e-11
0.00290515
2.51479e-10
0.00290515
4.73088e-10
0.00290515
6.72893e-10
0.00290514
8.25725e-10
0.00290514
9.16077e-10
0.00290514
9.46487e-10
0.00290514
9.19955e-10
0.00290514
8.47813e-10
0.00290514
7.42877e-10
0.00290514
6.18066e-10
0.00290514
4.90584e-10
0.00290515
3.59659e-11
0.00290514
-4.98832e-10
0.00290513
-6.1381e-10
0.00290509
3.14538e-09
0.00290503
9.72481e-09
0.0029048
3.6491e-08
0.00290443
5.53224e-08
0.00290307
1.8586e-07
0.00290148
1.47275e-07
0.00289604
5.86055e-07
0.00288416
4.49321e-07
0.00287198
-1.23061e-06
0.00283718
-4.66089e-06
0.0027068
-1.13915e-05
0.00241573
0.000123076
0.00223729
0.00018022
0.00211237
0.000139457
0.00197865
0.000110965
0.00185314
9.52496e-05
0.00175559
9.18348e-05
0.00166065
9.72964e-05
0.0015469
0.000106457
0.00142863
0.000111406
0.00131363
0.000113759
0.00120377
0.000113403
0.00109984
0.000113235
0.000995396
0.000114366
0.000875397
0.000117174
0.000729904
0.00011932
0.000585699
0.000116388
0.000454199
0.000114425
0.000335093
0.000109652
0.000224116
0.000103942
0.000114406
0.000103544
0.000113773
0.00301309
4.53374e-09
0.00301309
3.21009e-09
0.00301309
2.19848e-09
0.00301309
1.52876e-09
0.00301309
1.47114e-09
0.00301309
1.53765e-09
0.00301309
1.60575e-09
0.00301309
1.64827e-09
0.00301308
1.64489e-09
0.00301308
1.70762e-09
0.00301308
1.67714e-09
0.00301308
1.55051e-09
0.00301308
1.36026e-09
0.00301308
1.12998e-09
0.00301308
8.70511e-10
0.00301309
1.26575e-10
0.00301308
-3.33681e-10
0.00301307
3.49411e-10
0.00301303
5.37415e-09
0.00301297
1.66095e-08
0.00301275
5.01587e-08
0.00301238
9.81931e-08
0.00301108
2.47123e-07
0.00300946
3.85821e-07
0.00300402
8.483e-07
0.00299363
1.42608e-06
0.00297051
1.48912e-06
0.00294269
-5.12034e-07
0.00275959
2.10322e-05
0.00243405
0.000275416
0.00227272
0.000342724
0.00215741
0.000264944
0.00202607
0.000216633
0.00189924
0.00019409
0.00179445
0.000192706
0.00168822
0.000204981
0.00156593
0.000219862
0.00144068
0.000229342
0.00132078
0.00023226
0.00120604
0.000232755
0.00109613
0.000233086
0.000985186
0.000234507
0.000858811
0.000238908
0.000711161
0.000238628
0.000570021
0.000230549
0.000442586
0.000226137
0.000325619
0.000217609
0.000212488
0.000209813
0.000103676
0.000205945
0.000217712
0.00312505
4.79149e-09
0.00312504
4.13857e-09
0.00312504
3.57549e-09
0.00312504
2.98003e-09
0.00312504
2.76453e-09
0.00312504
2.56752e-09
0.00312504
2.51829e-09
0.00312504
2.48526e-09
0.00312504
2.42086e-09
0.00312504
2.31855e-09
0.00312504
2.17621e-09
0.00312504
1.99662e-09
0.00312504
1.78294e-09
0.00312504
1.53504e-09
0.00312504
1.24536e-09
0.00312504
4.50371e-10
0.00312503
1.39458e-10
0.00312502
1.70212e-09
0.00312497
9.00723e-09
0.00312491
2.4868e-08
0.00312467
6.91146e-08
0.00312427
1.43915e-07
0.00312282
3.49741e-07
0.00312108
6.49672e-07
0.00311486
1.34964e-06
0.00310318
3.04302e-06
0.00307745
4.69258e-06
0.00305139
7.3242e-06
0.00285563
6.22931e-05
0.00248263
0.000463084
0.00232401
0.000505169
0.00221914
0.000376139
0.00208989
0.000315011
0.0019662
0.000293871
0.00185947
0.000298009
0.00174778
0.000318461
0.00161827
0.000339724
0.00148734
0.000352477
0.00136207
0.000356628
0.0012424
0.000357037
0.00112806
0.00035821
0.00101161
0.000360564
0.000879299
0.000365591
0.000726273
0.000362557
0.000581049
0.000348934
0.000451121
0.000340572
0.000331615
0.000328474
0.000214835
0.000319342
0.000103571
0.000310793
0.000321592
0.00324116
4.63619e-09
0.00324116
4.31864e-09
0.00324116
4.15245e-09
0.00324116
4.0629e-09
0.00324115
3.87393e-09
0.00324115
3.71975e-09
0.00324115
3.56689e-09
0.00324115
3.40825e-09
0.00324115
3.23786e-09
0.00324115
3.05187e-09
0.00324115
2.84583e-09
0.00324115
2.61654e-09
0.00324115
2.35976e-09
0.00324115
2.06795e-09
0.00324115
1.72957e-09
0.00324115
9.5584e-10
0.00324114
1.00063e-09
0.00324113
3.11025e-09
0.00324108
1.22111e-08
0.00324102
3.24051e-08
0.00324076
8.74644e-08
0.00324036
1.87283e-07
0.00323879
4.53512e-07
0.00323692
9.19893e-07
0.00322996
1.95204e-06
0.00321732
4.73391e-06
0.00318869
8.94139e-06
0.00316776
1.89377e-05
0.00296376
0.000111687
0.0025557
0.000669089
0.002398
0.000667344
0.00230088
0.000477018
0.00216953
0.000416
0.00204703
0.0003983
0.00193428
0.00041176
0.00181498
0.000440136
0.00167722
0.000466994
0.00153994
0.000481515
0.00140905
0.000487199
0.00128382
0.000486769
0.00116535
0.000488347
0.00104452
0.000491823
0.000907322
0.000496606
0.000749541
0.000490512
0.000599561
0.000471832
0.000465351
0.000459059
0.000341959
0.000443046
0.000221502
0.000432275
0.000106756
0.000418787
0.000428247
0.00336158
4.45512e-09
0.00336158
4.40078e-09
0.00336158
4.51944e-09
0.00336158
4.8062e-09
0.00336158
4.71511e-09
0.00336158
4.58776e-09
0.00336158
4.42552e-09
0.00336158
4.23399e-09
0.00336158
4.01548e-09
0.00336158
3.77174e-09
0.00336158
3.50321e-09
0.00336158
3.21066e-09
0.00336158
2.89166e-09
0.00336158
2.53824e-09
0.00336158
2.14097e-09
0.00336158
1.35921e-09
0.00336156
1.57257e-09
0.00336156
4.09311e-09
0.0033615
1.49816e-08
0.00336143
3.88771e-08
0.00336116
1.04921e-07
0.00336076
2.29751e-07
0.00335913
5.50755e-07
0.00335711
1.17492e-06
0.00334947
2.58702e-06
0.00333672
6.02984e-06
0.00330213
1.40954e-05
0.00329605
3.25392e-05
0.00307997
0.000163107
0.00262767
0.000893055
0.00247796
0.000809338
0.00239691
0.000573524
0.00226623
0.000521239
0.00214428
0.00050841
0.00202639
0.000532102
0.00189958
0.000570299
0.00175226
0.000603118
0.00160672
0.000618386
0.00146905
0.000625217
0.00133676
0.000623675
0.00121313
0.00062426
0.00108685
0.000629621
0.000944074
0.000633048
0.000779908
0.000624583
0.000623613
0.00060027
0.000483826
0.000582478
0.00035535
0.000562155
0.000230483
0.000549043
0.000111274
0.000530637
0.000538936
0.00348648
4.24177e-09
0.00348648
4.24499e-09
0.00348648
4.48498e-09
0.00348648
4.98358e-09
0.00348648
5.09491e-09
0.00348648
5.11952e-09
0.00348648
5.06336e-09
0.00348648
4.93495e-09
0.00348648
4.74266e-09
0.00348648
4.49573e-09
0.00348648
4.20097e-09
0.00348648
3.8638e-09
0.00348648
3.48284e-09
0.00348648
3.04986e-09
0.00348648
2.5546e-09
0.00348648
1.70357e-09
0.00348646
1.83274e-09
0.00348646
4.20796e-09
0.0034864
1.5633e-08
0.00348633
4.11554e-08
0.00348603
1.15825e-07
0.00348567
2.63957e-07
0.00348399
6.18947e-07
0.00348187
1.40336e-06
0.00347389
3.11838e-06
0.00346148
6.95024e-06
0.00341998
1.92789e-05
0.00342778
4.36823e-05
0.00319361
0.000218063
0.00269361
0.00114044
0.00259461
0.000900434
0.00251252
0.000690209
0.00237865
0.000630596
0.00225263
0.00062381
0.00212913
0.000659171
0.00199517
0.000709255
0.00183825
0.000748615
0.00168398
0.000763481
0.00153977
0.000770657
0.00140021
0.000768367
0.00127009
0.00076738
0.00113836
0.000773771
0.000989656
0.000776557
0.000818019
0.000765623
0.000653951
0.000735308
0.000506484
0.000712507
0.000371578
0.000686978
0.000241147
0.00067081
0.00011681
0.000647109
0.000654762
0.00361602
4.02734e-09
0.00361602
4.03761e-09
0.00361602
4.38383e-09
0.00361602
4.96095e-09
0.00361602
5.29702e-09
0.00361602
5.45022e-09
0.00361602
5.48663e-09
0.00361602
5.42318e-09
0.00361602
5.26881e-09
0.00361602
5.03301e-09
0.00361602
4.72215e-09
0.00361602
4.33858e-09
0.00361602
3.87648e-09
0.00361602
3.32359e-09
0.00361602
2.66572e-09
0.00361602
1.63517e-09
0.00361601
1.4114e-09
0.003616
3.11817e-09
0.00361595
1.30686e-08
0.00361588
3.59104e-08
0.00361555
1.09992e-07
0.00361525
2.67151e-07
0.00361339
6.28895e-07
0.00361109
1.57269e-06
0.00360327
3.33099e-06
0.00358861
7.9968e-06
0.00354596
2.25667e-05
0.00354773
5.69575e-05
0.00331538
0.000265402
0.00276525
0.00137942
0.00272538
0.00100845
0.00263835
0.000788998
0.00250304
0.000735298
0.0023741
0.000741706
0.00224402
0.000795779
0.00210173
0.000859321
0.00193502
0.000903804
0.00177145
0.000917666
0.00161996
0.000924007
0.00147355
0.000920548
0.00133657
0.00091843
0.00119886
0.000924992
0.00104406
0.000927994
0.000863384
0.000914697
0.000690433
0.000877581
0.000535088
0.000849383
0.000391908
0.000819126
0.000254084
0.000798969
0.000123129
0.000769417
0.000776358
0.00375038
3.80973e-09
0.00375038
3.77539e-09
0.00375038
4.19599e-09
0.00375038
4.69002e-09
0.00375038
5.32408e-09
0.00375038
5.52309e-09
0.00375038
5.62876e-09
0.00375038
5.63001e-09
0.00375038
5.52843e-09
0.00375038
5.32517e-09
0.00375038
5.02018e-09
0.00375038
4.60797e-09
0.00375037
4.08092e-09
0.00375037
3.4295e-09
0.00375037
2.5861e-09
0.00375037
1.32923e-09
0.00375036
6.54628e-10
0.00375036
1.61911e-09
0.00375032
8.90304e-09
0.00375028
2.54839e-08
0.00375001
8.47997e-08
0.00374971
2.08036e-07
0.00374764
5.57182e-07
0.00374536
1.50571e-06
0.0037374
3.2771e-06
0.0037188
8.82653e-06
0.00368155
2.40744e-05
0.00366306
7.22793e-05
0.00344596
0.000301922
0.00286125
0.00158762
0.00285378
0.00114505
0.00278154
0.000880859
0.00264448
0.000843443
0.00251089
0.000869048
0.00237179
0.000946127
0.00221969
0.00102283
0.00204203
0.0010702
0.00186886
0.00108081
0.00170996
0.00108534
0.00155661
0.00108057
0.00141266
0.0010773
0.00126834
0.00108392
0.00110735
0.00108743
0.00091764
0.00107241
0.00073401
0.00102897
0.000567988
0.00099563
0.000415792
0.000958898
0.000269716
0.000934129
0.000130984
0.000898985
0.00090534
0.00388972
3.57241e-09
0.00388972
3.51708e-09
0.00388972
3.95113e-09
0.00388972
4.4022e-09
0.00388972
5.14277e-09
0.00388972
5.41479e-09
0.00388972
5.58748e-09
0.00388972
5.65367e-09
0.00388972
5.6108e-09
0.00388972
5.45472e-09
0.00388972
5.18525e-09
0.00388972
4.7985e-09
0.00388972
4.29721e-09
0.00388972
3.69393e-09
0.00388972
2.68303e-09
0.00388972
1.28371e-09
0.00388971
1.44996e-10
0.00388971
4.75857e-10
0.00388968
5.51607e-09
0.00388966
1.65985e-08
0.00388951
5.85339e-08
0.00388925
1.25197e-07
0.00388768
4.6704e-07
0.00388601
9.58081e-07
0.00387751
3.41272e-06
0.00386152
8.00727e-06
0.00382726
2.48374e-05
0.00378127
8.64337e-05
0.00358368
0.000325948
0.00299466
0.00172604
0.00303157
0.00128581
0.00295618
0.00099293
0.00280821
0.000972238
0.00266413
0.00101806
0.00251201
0.00111642
0.00234825
0.00120183
0.00215918
0.00124823
0.00197586
0.00125256
0.00181019
0.00125409
0.00164994
0.00124846
0.00149855
0.00124408
0.00134781
0.00125052
0.00118064
0.00125561
0.000981131
0.00123958
0.000786267
0.00118986
0.000608581
0.0011517
0.000444978
0.00110821
0.000288783
0.00107797
0.000140098
0.00103718
0.00104232
0.00403424
3.31358e-09
0.00403424
3.26435e-09
0.00403424
3.65149e-09
0.00403424
4.10188e-09
0.00403425
4.77703e-09
0.00403425
5.18784e-09
0.00403425
5.41127e-09
0.00403425
5.53187e-09
0.00403425
5.55367e-09
0.00403425
5.47498e-09
0.00403424
5.3014e-09
0.00403424
5.03884e-09
0.00403424
4.70042e-09
0.00403424
4.29246e-09
0.00403424
3.63184e-09
0.00403424
2.22291e-09
0.00403423
9.1107e-10
0.00403423
6.20708e-10
0.00403421
3.9008e-09
0.0040342
1.13078e-08
0.00403411
4.1063e-08
0.00403391
6.74017e-08
0.00403286
3.80695e-07
0.00403245
4.75367e-07
0.00402431
3.14686e-06
0.00401601
5.79851e-06
0.00397814
2.76161e-05
0.00393452
8.21537e-05
0.00373016
0.000349565
0.00321744
0.00174158
0.00327404
0.00144323
0.00316776
0.00115032
0.00299483
0.00113914
0.00283031
0.00120083
0.0026615
0.00130955
0.00248524
0.00139667
0.00228524
0.00143619
0.00209344
0.00143171
0.00192109
0.00142993
0.00175477
0.00142314
0.00159617
0.00141868
0.00143814
0.00142555
0.00126437
0.00143227
0.00105655
0.00141774
0.000846475
0.00136248
0.000655657
0.0013186
0.000479614
0.00126836
0.000310421
0.00123345
0.000151251
0.00118498
0.00118992
0.00418414
3.0377e-09
0.00418414
3.01108e-09
0.00418414
3.32146e-09
0.00418414
3.80205e-09
0.00418414
4.34359e-09
0.00418414
4.93639e-09
0.00418414
5.17579e-09
0.00418414
5.33219e-09
0.00418414
5.40344e-09
0.00418414
5.39592e-09
0.00418414
5.31483e-09
0.00418414
5.16835e-09
0.00418414
4.96971e-09
0.00418414
4.71784e-09
0.00418414
4.40037e-09
0.00418413
3.3684e-09
0.00418413
2.4728e-09
0.00418412
2.7304e-09
0.00418411
6.64518e-09
0.00418409
1.60138e-08
0.00418403
4.32446e-08
0.00418385
7.33425e-08
0.00418322
3.03604e-07
0.00418281
2.30655e-07
0.00417638
2.90584e-06
0.00417434
3.2188e-06
0.00413603
2.6725e-05
0.0041018
6.68723e-05
0.00391803
0.000331258
0.0035809
0.00155384
0.00358392
0.00163815
0.00340164
0.00139503
0.00319183
0.00136038
0.00299662
0.00142633
0.00281522
0.00152096
0.00262786
0.00160251
0.00241969
0.00163081
0.00222169
0.00161654
0.00204438
0.00161086
0.00187209
0.00160464
0.00170636
0.00160045
0.00154109
0.00160837
0.00136068
0.00161789
0.00114594
0.00160707
0.00091952
0.00154749
0.000713017
0.00149788
0.000521551
0.0014423
0.000338877
0.00140129
0.000164485
0.00134646
0.00134956
0.0043396
2.75647e-09
0.0043396
2.73388e-09
0.0043396
2.99953e-09
0.0043396
3.44742e-09
0.0043396
3.92685e-09
0.0043396
4.48441e-09
0.0043396
4.85145e-09
0.0043396
5.04058e-09
0.0043396
5.15198e-09
0.0043396
5.19596e-09
0.0043396
5.17968e-09
0.0043396
5.11031e-09
0.0043396
4.99769e-09
0.0043396
4.83483e-09
0.0043396
4.7061e-09
0.0043396
4.03436e-09
0.00433959
3.76837e-09
0.00433959
5.07141e-09
0.00433957
1.09501e-08
0.00433955
2.45216e-08
0.00433946
6.0191e-08
0.0043393
1.20383e-07
0.0043387
3.28758e-07
0.00433777
5.18318e-07
0.00433364
2.28707e-06
0.00433077
3.11906e-06
0.00430184
1.84924e-05
0.00426738
4.72095e-05
0.00420932
0.000212541
0.00405203
0.0010309
0.00387571
0.0018467
0.0035984
0.00170269
0.00337175
0.00160823
0.00315578
0.00167409
0.00296752
0.0017408
0.00277451
0.00181257
0.00256429
0.00182683
0.00236208
0.00180446
0.00218163
0.0017949
0.00200483
0.00179186
0.00183151
0.00178953
0.00165859
0.00179919
0.00147097
0.00181289
0.00124903
0.0018081
0.00100438
0.0017474
0.000781631
0.00168975
0.000572761
0.00163064
0.000369654
0.00158767
0.000181003
0.00152148
0.0015251
0.00450084
2.46874e-09
0.00450084
2.4334e-09
0.00450084
2.68184e-09
0.00450084
3.05569e-09
0.00450084
3.51425e-09
0.00450084
3.96793e-09
0.00450084
4.42678e-09
0.00450084
4.68479e-09
0.00450084
4.83674e-09
0.00450084
4.91707e-09
0.00450084
4.94141e-09
0.00450084
4.91854e-09
0.00450084
4.85779e-09
0.00450084
4.75337e-09
0.00450084
4.72111e-09
0.00450084
4.38319e-09
0.00450084
4.8069e-09
0.00450083
7.27774e-09
0.00450081
1.60726e-08
0.00450078
3.5437e-08
0.0045007
8.43111e-08
0.00450055
1.74264e-07
0.00450005
4.14533e-07
0.00449912
7.75336e-07
0.00449569
2.30495e-06
0.00449285
3.54779e-06
0.00447746
1.43202e-05
0.00444981
3.64713e-05
0.00445073
0.000117392
0.00448802
0.000571681
0.00411128
0.00208886
0.00374008
0.00207123
0.00351782
0.00185202
0.00331011
0.00190448
0.00311332
0.00196137
0.00292657
0.00201123
0.00272415
0.00201682
0.00251881
0.00199019
0.00233594
0.00197931
0.00215606
0.00198255
0.00197623
0.0019851
0.00179536
0.00199847
0.00160003
0.00201761
0.00137136
0.00202104
0.0011066
0.00196431
0.000862677
0.00190045
0.00063545
0.00183672
0.00041447
0.00179055
0.000200751
0.00171985
0.00171946
0.00466807
2.1631e-09
0.00466807
2.12893e-09
0.00466807
2.33944e-09
0.00466807
2.66894e-09
0.00466807
3.05952e-09
0.00466807
3.47133e-09
0.00466807
3.87586e-09
0.00466807
4.23229e-09
0.00466807
4.42714e-09
0.00466807
4.5388e-09
0.00466807
4.59357e-09
0.00466807
4.59514e-09
0.00466807
4.56188e-09
0.00466807
4.49299e-09
0.00466807
4.55237e-09
0.00466807
4.39787e-09
0.00466807
5.0706e-09
0.00466806
7.74327e-09
0.00466804
1.72214e-08
0.00466802
3.79129e-08
0.00466791
9.3486e-08
0.00466775
2.02454e-07
0.00466707
4.83374e-07
0.00466627
1.0884e-06
0.00466358
2.33351e-06
0.00465737
5.50829e-06
0.00464561
1.22467e-05
0.00460895
3.58898e-05
0.00457354
9.96232e-05
0.00448369
0.000408283
0.00414294
0.00213874
0.00388564
0.0022241
0.00365076
0.00212389
0.00344589
0.00213111
0.0032673
0.00216852
0.00309777
0.00219426
0.00290536
0.00219644
0.00269836
0.00217022
0.00251259
0.00216199
0.0023304
0.00217442
0.00214453
0.00218608
0.0019553
0.00220508
0.00175107
0.00223168
0.00151382
0.00224669
0.00123307
0.00219783
0.000965974
0.00213152
0.000711821
0.00206612
0.000462004
0.00202056
0.000228412
0.00193867
0.00194203
0.00484151
1.84356e-09
0.00484151
1.81047e-09
0.00484151
1.98688e-09
0.00484151
2.26532e-09
0.00484151
2.5978e-09
0.00484151
2.94926e-09
0.00484151
3.30127e-09
0.00484151
3.63236e-09
0.00484151
3.90702e-09
0.00484151
4.08137e-09
0.00484151
4.17145e-09
0.00484151
4.19659e-09
0.00484151
4.1975e-09
0.00484151
4.16661e-09
0.00484151
4.22078e-09
0.00484151
3.99878e-09
0.00484151
4.32855e-09
0.00484151
5.99829e-09
0.00484149
1.31957e-08
0.00484147
2.92706e-08
0.00484138
7.59864e-08
0.00484131
1.75269e-07
0.0048408
3.9725e-07
0.00484019
1.01232e-06
0.0048374
2.04679e-06
0.0048339
4.91794e-06
0.00481774
1.36167e-05
0.00480672
3.07039e-05
0.00473688
0.000109807
0.00464831
0.000355934
0.00418146
0.00225054
0.00398601
0.00235656
0.00377826
0.00233442
0.00360308
0.00233213
0.00345117
0.00234705
0.0033017
0.00236186
0.00311606
0.00236569
0.00291004
0.00234576
0.0027205
0.00234346
0.00253524
0.00236528
0.00234302
0.00239055
0.00214463
0.00241797
0.0019313
0.00245449
0.00168755
0.00248353
0.00138403
0.00245699
0.0010911
0.00238637
0.000814022
0.00231783
0.000536032
0.00227669
0.000261269
0.00219775
0.00219686
0.00502139
1.50852e-09
0.00502139
1.47876e-09
0.00502139
1.62241e-09
0.00502139
1.8497e-09
0.0050214
2.12569e-09
0.0050214
2.41616e-09
0.0050214
2.71506e-09
0.0050214
2.99782e-09
0.0050214
3.26678e-09
0.0050214
3.48391e-09
0.0050214
3.64692e-09
0.0050214
3.74457e-09
0.0050214
3.79449e-09
0.0050214
3.79845e-09
0.0050214
3.68646e-09
0.0050214
3.53661e-09
0.0050214
3.85307e-09
0.0050214
5.44517e-09
0.00502139
1.04313e-08
0.0050214
2.11751e-08
0.00502137
4.93095e-08
0.00502133
9.1144e-08
0.0050209
2.94727e-07
0.00502099
4.27026e-07
0.00501819
2.00467e-06
0.00501715
3.18542e-06
0.00500298
1.318e-05
0.00499338
2.8856e-05
0.0049235
0.00011835
0.00480796
0.000373166
0.00434184
0.00232391
0.00412646
0.00258281
0.00396349
0.00251486
0.00382529
0.0025038
0.00369291
0.00249809
0.00354971
0.00251882
0.00336574
0.00252945
0.00316186
0.00251992
0.00296753
0.00252486
0.00277926
0.00255503
0.0025815
0.00259719
0.00237292
0.0026378
0.00215009
0.00268621
0.00189715
0.00273256
0.00158352
0.00272867
0.00125495
0.00267408
0.000938612
0.00260515
0.00062301
0.00257186
0.000313736
0.00249084
0.0025025
0.00520796
1.15767e-09
0.00520796
1.13573e-09
0.00520796
1.24966e-09
0.00520796
1.4323e-09
0.00520797
1.65438e-09
0.00520797
1.89269e-09
0.00520797
2.13823e-09
0.00520797
2.38031e-09
0.00520797
2.61036e-09
0.00520797
2.8306e-09
0.00520797
3.00623e-09
0.00520797
3.17871e-09
0.00520797
3.26048e-09
0.00520797
3.3653e-09
0.00520797
3.24156e-09
0.00520797
3.26201e-09
0.00520797
4.11526e-09
0.00520796
6.73317e-09
0.00520795
1.40994e-08
0.00520794
2.95995e-08
0.0052079
6.49801e-08
0.00520781
1.27201e-07
0.00520766
3.06361e-07
0.00520725
4.91174e-07
0.00520513
1.94222e-06
0.00520606
2.32686e-06
0.00519311
1.45408e-05
0.00517975
2.24951e-05
0.00512567
0.000136896
0.00504874
0.000358794
0.0047373
0.00215156
0.00447546
0.00292105
0.00429588
0.00279095
0.00415718
0.00267583
0.00399974
0.00266626
0.00384316
0.00267112
0.00365363
0.0026918
0.00345443
0.00269161
0.00326125
0.00270611
0.00307104
0.00274803
0.00287132
0.0028067
0.00265178
0.00286712
0.00241789
0.00292574
0.00215828
0.00298932
0.0018321
0.00302563
0.00147057
0.00298697
0.00112308
0.00293033
0.000756646
0.0029198
0.000378763
0.00285309
0.0028722
0.00540147
7.91701e-10
0.00540147
7.85727e-10
0.00540147
8.7464e-10
0.00540147
1.01674e-09
0.00540147
1.18794e-09
0.00540147
1.38031e-09
0.00540147
1.57639e-09
0.00540147
1.78437e-09
0.00540147
1.9794e-09
0.00540147
2.18475e-09
0.00540147
2.36025e-09
0.00540147
2.54365e-09
0.00540147
2.68017e-09
0.00540147
2.77366e-09
0.00540147
2.76043e-09
0.00540147
2.92256e-09
0.00540147
3.92979e-09
0.00540147
6.6359e-09
0.00540145
1.42405e-08
0.00540143
3.04305e-08
0.00540134
6.79033e-08
0.00540125
1.43534e-07
0.00540079
3.53548e-07
0.00540015
7.56971e-07
0.0053984
1.8269e-06
0.00539454
4.16731e-06
0.00538501
1.05721e-05
0.00536981
2.45022e-05
0.00534949
9.04477e-05
0.00527276
0.000256027
0.00549484
0.0013859
0.00506119
0.00343298
0.00470008
0.00320502
0.00453325
0.00284538
0.00433952
0.00284073
0.00416387
0.00282129
0.00397791
0.0028469
0.00379488
0.00286085
0.00361263
0.00289032
0.00342493
0.00294465
0.00322469
0.00301853
0.00300197
0.00309597
0.00275642
0.00316925
0.0024898
0.00325585
0.00217063
0.00332912
0.00177393
0.00334371
0.00137428
0.00329688
0.00095313
0.00331753
0.00050561
0.00328378
0.00336789
0.00560216
4.18028e-10
0.00560216
4.52706e-10
0.00560216
5.36887e-10
0.00560216
6.52023e-10
0.00560216
7.86389e-10
0.00560216
9.34594e-10
0.00560216
1.09359e-09
0.00560216
1.25705e-09
0.00560216
1.43011e-09
0.00560216
1.59637e-09
0.00560216
1.77738e-09
0.00560216
1.93008e-09
0.00560216
2.10686e-09
0.00560216
2.16407e-09
0.00560216
2.2412e-09
0.00560216
2.48029e-09
0.00560216
3.2814e-09
0.00560216
5.26819e-09
0.00560215
1.03797e-08
0.00560214
2.03225e-08
0.00560208
4.9384e-08
0.00560205
1.01519e-07
0.0056018
2.65569e-07
0.00560156
5.69516e-07
0.00559978
1.53139e-06
0.00559833
3.25329e-06
0.00558809
9.43172e-06
0.00557739
1.995e-05
0.00554821
7.07805e-05
0.00560724
0.000191217
0.00585052
0.000878562
0.0053673
0.00369203
0.00520722
0.00335402
0.00492155
0.00312728
0.00472879
0.00300714
0.00455058
0.00297883
0.00439179
0.00299187
0.00421745
0.00303745
0.00403082
0.00307984
0.00383837
0.0031418
0.00363926
0.00322082
0.00341611
0.00331774
0.00316716
0.00341472
0.00290553
0.00351535
0.00260127
0.00362039
0.00220204
0.00369788
0.00176896
0.0036831
0.00129166
0.00376744
0.000731649
0.00382607
0.00408974
0.00581031
7.77161e-11
0.00581031
1.38172e-10
0.00581031
2.20075e-10
0.00581031
3.19571e-10
0.00581031
4.32272e-10
0.00581031
5.56538e-10
0.00581031
6.91185e-10
0.00581031
8.3173e-10
0.00581031
9.81604e-10
0.00581031
1.13182e-09
0.00581031
1.28978e-09
0.00581031
1.44339e-09
0.00581031
1.60404e-09
0.00581031
1.79382e-09
0.00581031
2.03853e-09
0.00581031
2.4609e-09
0.00581031
3.37741e-09
0.00581031
5.2459e-09
0.0058103
9.58417e-09
0.0058103
1.81082e-08
0.00581028
3.98605e-08
0.00581027
8.10404e-08
0.00581017
1.96353e-07
0.00581008
3.79585e-07
0.00580851
1.16918e-06
0.00580908
1.91398e-06
0.0057989
8.37937e-06
0.00579035
1.39251e-05
0.00576164
6.43599e-05
0.00572081
0.000171142
0.00574505
0.000758795
0.00582772
0.00305865
0.00558701
0.00362118
0.00536181
0.00341583
0.00522821
0.00316426
0.00506906
0.00314754
0.0048859
0.00317389
0.004682
0.00321606
0.00448153
0.00326735
0.00429227
0.00333476
0.00409305
0.00342875
0.00388077
0.00353683
0.00365716
0.00363998
0.00342218
0.00374966
0.00316022
0.00387457
0.00281875
0.0040114
0.00237421
0.00408189
0.00188555
0.00422869
0.00131893
0.00437615
0.00540336
0.00840003
7.494e-12
0.00840003
2.61849e-11
0.00840003
5.82175e-11
0.00840003
1.01743e-10
0.00840003
1.5785e-10
0.00840003
2.25159e-10
0.00840003
3.03577e-10
0.00840003
3.91647e-10
0.00840003
4.89589e-10
0.00840003
5.95004e-10
0.00840003
7.08707e-10
0.00840003
8.2707e-10
0.00840004
9.52362e-10
0.00840004
1.08467e-09
0.00840004
1.25451e-09
0.00840004
1.49868e-09
0.00840004
2.01725e-09
0.00840003
2.96479e-09
0.00840002
5.64074e-09
0.00840001
1.08455e-08
0.00839994
2.70617e-08
0.00839988
6.04851e-08
0.00839956
1.53923e-07
0.00839918
3.68644e-07
0.00839784
8.5403e-07
0.00839576
2.08225e-06
0.00839252
4.75274e-06
0.00837699
1.1896e-05
0.0083837
3.10567e-05
0.00833877
8.86434e-05
0.00869446
0.00031166
0.00951241
0.00111662
0.00882131
0.00444199
0.00842246
0.00384777
0.00800011
0.00358206
0.00769819
0.00342324
0.00742645
0.00342327
0.00715171
0.00346058
0.00690402
0.00351711
0.00667467
0.00359327
0.00647836
0.00368071
0.00627792
0.00377769
0.00607523
0.00386884
0.00587276
0.00395423
0.00569793
0.00404834
0.00553985
0.00415022
0.00535051
0.00422394
0.00525489
0.00427447
0.00544495
0.00415661
0.00362819
0.00720315
0.00840003
1.0005e-12
0.00840003
4.05462e-12
0.00840003
1.08347e-11
0.00840003
2.19228e-11
0.00840003
4.01013e-11
0.00840003
6.46272e-11
0.00840003
9.8478e-11
0.00840003
1.4043e-10
0.00840003
1.91682e-10
0.00840003
2.51455e-10
0.00840003
3.20331e-10
0.00840003
3.97259e-10
0.00840003
4.83736e-10
0.00840003
5.84925e-10
0.00840003
7.20247e-10
0.00840003
9.17089e-10
0.00840004
1.28393e-09
0.00840004
1.94369e-09
0.00840004
3.45783e-09
0.00840004
6.37776e-09
0.00840005
1.3817e-08
0.00840008
2.71397e-08
0.00840004
7.3884e-08
0.00840032
1.36394e-07
0.00839961
4.63542e-07
0.00840042
8.29941e-07
0.00839425
3.18152e-06
0.00839755
5.79334e-06
0.00836959
2.27839e-05
0.00837883
4.88696e-05
0.00834791
0.000221094
0.00855538
0.000665251
0.00884949
0.00353373
0.00862953
0.00401388
0.00824854
0.00398239
0.00801915
0.0036881
0.00782325
0.00365732
0.0076474
0.00368105
0.00748349
0.00372894
0.00733887
0.00378376
0.00723466
0.00384496
0.0071336
0.0039155
0.00703368
0.00397868
0.00694315
0.00402433
0.00690476
0.00405857
0.00695398
0.00408261
0.00709662
0.00406441
0.00734669
0.00400053
0.00766074
0.00382056
0.00328853
0.00798422
0.00840003
1.04943e-13
0.00840003
6.30423e-13
0.00840003
2.00505e-12
0.00840003
4.69614e-12
0.00840003
9.79085e-12
0.00840003
1.7445e-11
0.00840003
2.93725e-11
0.00840003
4.54202e-11
0.00840003
6.73096e-11
0.00840003
9.45607e-11
0.00840003
1.28618e-10
0.00840003
1.68587e-10
0.00840003
2.1761e-10
0.00840003
2.74391e-10
0.00840003
3.51829e-10
0.00840003
4.67088e-10
0.00840003
6.93363e-10
0.00840003
1.10199e-09
0.00840003
2.14941e-09
0.00840003
4.13775e-09
0.00840001
9.83239e-09
0.00839999
2.05519e-08
0.00839989
5.40166e-08
0.00839978
1.16158e-07
0.00839923
3.18611e-07
0.00839876
6.99507e-07
0.00839669
1.94504e-06
0.00839562
4.19146e-06
0.00838177
1.32026e-05
0.00838568
2.84323e-05
0.00835986
0.000112378
0.00843271
0.000314608
0.00939069
0.00147205
0.00893031
0.00455679
0.00889952
0.00412128
0.00856151
0.00412616
0.00836642
0.00387236
0.00821547
0.0038473
0.00811118
0.00386623
0.00802472
0.00389628
0.00796336
0.00392501
0.00793227
0.00396095
0.00791763
0.00399125
0.00792071
0.00399854
0.00796777
0.00398245
0.00807149
0.00394413
0.00825082
0.00385895
0.0084938
0.0037326
0.0087418
0.00354674
0.0031479
0.00885793
0.00840003
1.88897e-14
0.00840003
1.15078e-13
0.00840003
3.67728e-13
0.00840003
9.23803e-13
0.00840003
2.06529e-12
0.00840003
3.99365e-12
0.00840003
7.38522e-12
0.00840003
1.21657e-11
0.00840003
1.97495e-11
0.00840003
2.9446e-11
0.00840003
4.31948e-11
0.00840003
5.99777e-11
0.00840003
8.17535e-11
0.00840003
1.10034e-10
0.00840003
1.57808e-10
0.00840003
2.25349e-10
0.00840003
4.10262e-10
0.00840003
6.93147e-10
0.00840003
1.66415e-09
0.00840003
3.18516e-09
0.00840003
8.78151e-09
0.00840003
1.64314e-08
0.00840006
4.82414e-08
0.00840011
7.94744e-08
0.0084002
2.57709e-07
0.00840069
3.53752e-07
0.00839861
1.5296e-06
0.00840129
1.8348e-06
0.00838529
1.03338e-05
0.00837174
1.29839e-05
0.00833741
7.56444e-05
0.00842054
0.000163655
0.00893507
0.000700703
0.00968346
0.00313151
0.00926934
0.00456493
0.00924698
0.00424298
0.00902426
0.00416412
0.00885834
0.0040148
0.00874513
0.00396971
0.00867364
0.00396037
0.0086478
0.00395844
0.00866204
0.00395829
0.00868105
0.00395176
0.00870638
0.00392937
0.00876335
0.00387616
0.00884906
0.00380429
0.00897656
0.00368827
0.00913556
0.00354415
0.00931089
0.00335564
0.00303538
0.00941293
0.00840003
3.77306e-15
0.00840003
2.35148e-14
0.00840003
7.68029e-14
0.00840003
1.95624e-13
0.00840003
4.45562e-13
0.00840003
9.19405e-13
0.00840003
1.77234e-12
0.00840003
3.19047e-12
0.00840003
5.39293e-12
0.00840003
8.69679e-12
0.00840003
1.33354e-11
0.00840003
1.98449e-11
0.00840003
2.87059e-11
0.00840003
4.23921e-11
0.00840003
6.43689e-11
0.00840003
1.09128e-10
0.00840003
1.91413e-10
0.00840003
3.92937e-10
0.00840003
8.02972e-10
0.00840003
1.82177e-09
0.00840003
3.97347e-09
0.00840001
9.68429e-09
0.00840001
2.04871e-08
0.00839979
5.45188e-08
0.00839971
1.13038e-07
0.00839891
3.10105e-07
0.00839825
6.56173e-07
0.00839448
1.84564e-06
0.00839352
4.0471e-06
0.00837891
1.25347e-05
0.0083921
2.79285e-05
0.00839882
0.000100923
0.00867148
0.000278197
0.0103446
0.00116936
0.0100938
0.00429921
0.00980779
0.00445473
0.00960422
0.00433037
0.00941282
0.00419546
0.00929815
0.00406653
0.00923159
0.00400384
0.00920492
0.00397191
0.00921668
0.00394665
0.00926888
0.00390957
0.0093252
0.00386606
0.00938776
0.00379006
0.00946182
0.00369829
0.00955404
0.00356577
0.00965963
0.00341372
0.00976943
0.00323022
0.00297006
0.00983109
0.00840003
7.62533e-16
0.00840003
4.66242e-15
0.00840003
1.56293e-14
0.00840003
4.00584e-14
0.00840003
9.19861e-14
0.00840003
1.96884e-13
0.00840003
3.9101e-13
0.00840003
7.53743e-13
0.00840003
1.32223e-12
0.00840003
2.28399e-12
0.00840003
3.64747e-12
0.00840003
5.79904e-12
0.00840003
8.87031e-12
0.00840003
1.39884e-11
0.00840003
2.24043e-11
0.00840003
4.06033e-11
0.00840003
7.15869e-11
0.00840003
1.58546e-10
0.00840003
2.82239e-10
0.00840003
7.7313e-10
0.00840003
1.17538e-09
0.00840001
4.14854e-09
0.0084
5.90606e-09
0.00839985
2.48353e-08
0.00839979
4.08757e-08
0.00839943
1.59055e-07
0.00839901
2.86414e-07
0.00839814
1.03541e-06
0.00839741
1.84253e-06
0.00839477
6.88349e-06
0.00839123
1.1655e-05
0.00839727
4.74669e-05
0.00842115
0.000104117
0.0089614
0.000423345
0.0106736
0.00146955
0.0105934
0.00439364
0.0103896
0.00447898
0.0101046
0.00441705
0.00988849
0.00423935
0.0097824
0.00409534
0.00975168
0.00400812
0.00975585
0.003949
0.00978239
0.00388551
0.00982603
0.00381843
0.00987386
0.00372568