/*--------------------------------*- C++ -*----------------------------------*\
| =========                 |                                                 |
| \\      /  F ield         | OpenFOAM: The Open Source CFD Toolbox           |
|  \\    /   O peration     | Version:  2112                                  |
|   \\  /    A nd           | Website:  www.openfoam.com                      |
|    \\/     M anipulation  |                                                 |
\*---------------------------------------------------------------------------*/
FoamFile
{
    version     2.0;
    format      ascii;
    arch        "LSB;label=32;scalar=64";
    class       volScalarField;
    location    "0.5";
    object      T;
}
// * * * * * * * * * * * * * * * * * * * * * * * * * * * * * * * * * * * * * //

dimensions      [0 0 0 1 0 0 0];

internalField   nonuniform List<scalar> 
7000
(
1
1
1
1
1
1
1
1
1
1
1
1
1
1
0.999999
1
1.00001
1.0001
1.00021
1.00077
1.00137
1.00412
1.00641
1.02224
1.04441
1.12817
1.32041
2.07949
2.52715
2.88981
2.89445
2.85899
2.85608
2.89376
2.89995
2.89115
2.8919
2.91382
2.929
2.95274
2.96688
2.97245
2.97906
3.05134
3.22204
3.33449
3.43757
3.46037
3.56136
3.46795
1
1
1
1
1
1
1
1
1
1
1
1
1
1
0.999999
1
1.00001
1.00009
1.0002
1.00073
1.00131
1.00394
1.00616
1.02135
1.04277
1.12283
1.3097
2.0389
2.51656
2.89524
2.89877
2.86465
2.86211
2.89678
2.89995
2.88982
2.89664
2.91749
2.93488
2.95691
2.96889
2.97577
2.98804
3.07275
3.24611
3.34968
3.44448
3.46844
3.57253
3.44378
1
1
1
1
1
1
1
1
1
1
1
1
1
1
0.999999
1
1.00001
1.00009
1.0002
1.00071
1.00126
1.00378
1.00597
1.02064
1.04174
1.11945
1.30417
2.0177
2.50762
2.90135
2.89954
2.86285
2.86317
2.89753
2.89852
2.88813
2.89543
2.91924
2.93425
2.95751
2.96958
2.97446
2.99073
3.07989
3.25187
3.35474
3.44413
3.46746
3.57421
3.43023
1
1
1
1
1
1
1
1
1
1
1
1
1
1
0.999999
1
1.00001
1.00009
1.00019
1.00067
1.0012
1.00359
1.00572
1.01965
1.04035
1.11432
1.29588
1.98228
2.49323
2.90554
2.89907
2.86038
2.86319
2.89671
2.89673
2.88667
2.89386
2.9211
2.93301
2.9575
2.97086
2.97259
2.99183
3.08327
3.25259
3.35581
3.44188
3.46527
3.57279
3.42466
1
1
1
1
1
1
1
1
1
1
1
1
1
1
0.999999
1
1.00001
1.00008
1.00018
1.00063
1.00113
1.00336
1.00541
1.01846
1.03885
1.10769
1.28755
1.93618
2.47658
2.91237
2.8969
2.85613
2.8625
2.8953
2.89468
2.88488
2.89115
2.92147
2.93156
2.95571
2.97181
2.97068
2.99206
3.0834
3.25114
3.35621
3.44058
3.46418
3.57092
3.42287
1
1
1
1
1
1
1
1
1
1
1
1
1
1
0.999999
1
1.00001
1.00008
1.00016
1.00058
1.00105
1.0031
1.00505
1.01706
1.037
1.09963
1.27815
1.86853
2.46103
2.92187
2.8887
2.85412
2.86236
2.89361
2.89194
2.88255
2.88759
2.92053
2.93033
2.95257
2.97116
2.97024
2.99085
3.08013
3.2469
3.35339
3.43914
3.46414
3.57028
3.42239
1
1
1
1
1
1
1
1
1
1
1
1
1
1
1
1
1.00001
1.00007
1.00015
1.00053
1.00096
1.00277
1.00465
1.01547
1.03464
1.09164
1.26519
1.79006
2.43832
2.93056
2.87963
2.85249
2.86121
2.89087
2.88843
2.8794
2.88431
2.91829
2.92824
2.94964
2.96898
2.96917
2.98789
3.07323
3.24184
3.35032
3.43466
3.46089
3.56656
3.42131
1
1
1
1
1
1
1
1
1
1
1
1
1
1
1
1
1.00001
1.00006
1.00014
1.00047
1.00087
1.00236
1.0043
1.01356
1.03208
1.08409
1.24846
1.70847
2.39963
2.93568
2.87337
2.84913
2.85986
2.8873
2.88419
2.87552
2.8804
2.91559
2.92569
2.94605
2.96584
2.96732
2.98426
3.06467
3.23257
3.34348
3.43193
3.46043
3.5643
3.42026
1
1
1
1
1
1
1
1
1
1
1
1
1
1
1
1
1.00001
1.00006
1.00013
1.00042
1.00078
1.00201
1.00401
1.01128
1.02998
1.07516
1.22842
1.62653
2.33872
2.93595
2.86726
2.84773
2.85935
2.88329
2.87935
2.87108
2.87595
2.91189
2.92334
2.94151
2.96183
2.96563
2.97981
3.05233
3.22164
3.33295
3.42432
3.45636
3.55691
3.41732
1
1
1
1
1
1
1
1
1
1
1
1
1
1
1
1
1.00001
1.00006
1.00012
1.00039
1.00072
1.00182
1.00363
1.00961
1.02717
1.06428
1.20919
1.53324
2.26187
2.923
2.86138
2.85128
2.86083
2.87937
2.87391
2.86555
2.87124
2.90795
2.91964
2.93696
2.95665
2.9617
2.97435
3.03845
3.20602
3.32271
3.41892
3.45265
3.55624
3.41722
1
1
1
1
1
1
1
1
1
1
1
1
1
1
1
1
1.00001
1.00005
1.00011
1.00036
1.00066
1.00175
1.00321
1.00872
1.02379
1.05512
1.18283
1.43637
2.16233
2.87483
2.86168
2.86074
2.86284
2.87463
2.86723
2.85842
2.86571
2.90345
2.91604
2.93092
2.95088
2.95733
2.96822
3.02242
3.18382
3.30545
3.40553
3.44469
3.54381
3.41222
1
1
1
1
1
1
1
1
1
1
1
1
1
1
1
1
1.00001
1.00005
1.0001
1.00034
1.00062
1.00169
1.00282
1.00874
1.01973
1.04898
1.15065
1.359
1.99711
2.77679
2.87342
2.87031
2.86381
2.86732
2.858
2.85114
2.85953
2.8975
2.91261
2.92364
2.94326
2.95244
2.96193
3.00648
3.15897
3.28934
3.39053
3.43179
3.54389
3.41175
1
1
1
1
1
1
1
1
1
1
1
1
1
1
1
1
1.00001
1.00005
1.0001
1.00031
1.00056
1.00154
1.00254
1.0082
1.01711
1.04491
1.12567
1.308
1.82258
2.70068
2.88111
2.87113
2.85734
2.85748
2.85083
2.84488
2.85187
2.88844
2.90788
2.91552
2.93404
2.94486
2.95328
2.98873
3.12514
3.26702
3.37692
3.41957
3.52143
3.40585
1
1
1
1
1
1
1
1
1
1
1
1
1
1
1
1
1.00001
1.00004
1.00008
1.00027
1.00049
1.00135
1.00223
1.00751
1.0146
1.04133
1.10826
1.26879
1.75168
2.65134
2.8654
2.85987
2.85401
2.84963
2.84288
2.83539
2.84258
2.87868
2.90235
2.90749
2.9228
2.93544
2.94336
2.97065
3.09352
3.23312
3.34779
3.40204
3.52249
3.40155
1
1
1
1
1
1
1
1
1
1
1
1
1
1
1
1
1.00001
1.00004
1.00007
1.00022
1.00041
1.00109
1.00188
1.00593
1.01285
1.0344
1.09838
1.22902
1.68802
2.56161
2.82901
2.8512
2.85169
2.83812
2.82876
2.82311
2.83247
2.86839
2.89431
2.89877
2.90976
2.92428
2.93223
2.95317
3.04765
3.20275
3.32818
3.37777
3.48592
3.39068
1
1
1
1
1
1
1
1
1
1
1
1
1
1
1
1
1.00001
1.00003
1.00006
1.00018
1.00033
1.00079
1.00165
1.00433
1.01156
1.02766
1.08552
1.18504
1.61931
2.43947
2.8056
2.84927
2.84225
2.81619
2.8104
2.80893
2.82065
2.85588
2.88293
2.89045
2.89498
2.91037
2.91837
2.93301
3.00691
3.1462
3.28789
3.36029
3.47963
3.37636
1
1
1
1
1
1
1
1
1
1
1
1
1
1
1
1
1.00001
1.00003
1.00005
1.00016
1.00028
1.00076
1.00137
1.0039
1.0095
1.0221
1.07008
1.14836
1.53155
2.24953
2.78076
2.8374
2.81277
2.78597
2.79003
2.79502
2.81269
2.84653
2.87124
2.87894
2.88038
2.89014
2.90276
2.91448
2.96318
3.10371
3.24862
3.30931
3.43101
3.36258
1
1
1
1
1
1
1
1
1
1
1
1
1
1
1
1
1.00001
1.00002
1.00004
1.00013
1.00021
1.00064
1.00109
1.00377
1.00693
1.0209
1.04984
1.12289
1.37364
2.04396
2.68686
2.78924
2.77078
2.76907
2.77723
2.78869
2.80873
2.83845
2.85604
2.86032
2.85923
2.8633
2.88057
2.89105
2.91959
3.02006
3.17772
3.26783
3.40209
3.32698
1
1
1
1
1
1
1
1
1
1
1
1
1
1
1
1
1.00001
1.00002
1.00003
1.00008
1.00014
1.00045
1.00081
1.00256
1.00538
1.01472
1.03931
1.09616
1.28498
1.81663
2.47141
2.75876
2.7643
2.77642
2.78023
2.79022
2.79876
2.81473
2.83146
2.83905
2.84105
2.84322
2.85511
2.86251
2.87816
2.94187
3.10829
3.18459
3.31655
3.28168
1
1
1
1
1
1
1
1
1
1
1
1
1
1
1
1
1
1.00001
1.00002
1.00005
1.0001
1.00032
1.0006
1.00171
1.00407
1.00995
1.02921
1.06965
1.214
1.56489
2.2629
2.74157
2.79632
2.79226
2.77785
2.777
2.77865
2.7917
2.81459
2.82501
2.82563
2.82543
2.82961
2.83528
2.84127
2.86716
2.99707
3.09999
3.22531
3.0932
1
1
1
1
1
1
1
1
1
1
1
1
1
1
1
1
1
1.00001
1.00001
1.00004
1.00006
1.00022
1.00039
1.00139
1.00247
1.00833
1.01628
1.04759
1.1168
1.32389
1.77832
2.62638
2.76342
2.75313
2.75408
2.75977
2.76842
2.78243
2.79676
2.7994
2.79157
2.77992
2.77772
2.78062
2.77767
2.77386
2.80306
2.85496
2.96468
2.90317
1
1
1
1
1
1
1
1
1
1
1
1
1
1
1
1
1
1
1.00001
1.00002
1.00004
1.0001
1.00024
1.00054
1.00163
1.00363
1.01161
1.02676
1.08673
1.19227
1.62495
2.42741
2.74448
2.7735
2.76516
2.746
2.73752
2.73861
2.73913
2.73743
2.7286
2.71225
2.70645
2.71008
2.70883
2.69598
2.68138
2.64487
2.63222
2.59797
1
1
1
1
1
1
1
1
1
1
1
1
1
1
1
1
1
1
1
1.00001
1.00002
1.00008
1.00015
1.0005
1.00093
1.00285
1.0063
1.01682
1.04856
1.11082
1.35637
1.94363
2.62009
2.72752
2.70561
2.69193
2.68844
2.68952
2.68731
2.68162
2.67547
2.66277
2.64863
2.63934
2.6296
2.60986
2.58534
2.53667
2.47364
2.41706
1
1
1
1
1
1
1
1
1
1
1
1
1
1
1
1
1
1
1
1.00001
1.00002
1.00005
1.00009
1.00028
1.00057
1.00133
1.00401
1.00894
1.02822
1.06913
1.2071
1.56089
2.1738
2.67115
2.69104
2.67597
2.65708
2.64438
2.64297
2.64068
2.63436
2.61857
2.60041
2.58867
2.57587
2.55376
2.52947
2.48399
2.42595
2.35587
1
1
1
1
1
1
1
1
1
1
1
1
1
1
1
1
1
1
1
1
1.00001
1.00002
1.00005
1.00011
1.00037
1.00072
1.00244
1.00502
1.01515
1.03648
1.09709
1.26067
1.77438
2.33554
2.60086
2.63599
2.63431
2.6272
2.61243
2.60591
2.60157
2.59371
2.57766
2.55278
2.53517
2.50648
2.48018
2.43614
2.38621
2.32477
1
1
1
1
1
1
1
1
1
1
1
1
1
1
1
1
1
1
1
1
1
1.00001
1.00002
1.00005
1.0002
1.00034
1.00134
1.00232
1.00808
1.01592
1.0466
1.11487
1.32123
1.75674
2.46865
2.57817
2.58356
2.58661
2.58555
2.58048
2.57041
2.55473
2.54351
2.52124
2.50123
2.47331
2.451
2.41547
2.37209
2.32126
1
1
1
1
1
1
1
1
1
1
1
1
1
1
1
1
1
1
1
1
1
1
1.00001
1.00004
1.00007
1.00025
1.00044
1.00151
1.00291
1.00824
1.02132
1.05151
1.1548
1.39604
1.92505
2.49172
2.55896
2.55842
2.55167
2.54935
2.54528
2.53374
2.51963
2.49881
2.47915
2.44986
2.42127
2.38719
2.34543
2.30768
1
1
1
1
1
1
1
1
1
1
1
1
1
1
1
1
1
1
1
1
1
1
1.00001
1.00002
1.00003
1.00009
1.00019
1.00039
1.00123
1.00234
1.00881
1.01885
1.06678
1.1418
1.4818
2.07636
2.47416
2.52275
2.51962
2.50493
2.49726
2.48624
2.4687
2.44744
2.43001
2.4071
2.38263
2.3531
2.31325
2.27644
1
1
1
1
1
1
1
1
1
1
1
1
1
1
1
1
1
1
1
1
1
1
1
1.00001
1.00001
1.00005
1.00008
1.00028
1.0005
1.00162
1.00337
1.01008
1.02374
1.06689
1.17239
1.51397
1.93396
2.39934
2.45714
2.45719
2.44762
2.43768
2.42521
2.40283
2.38419
2.36195
2.34309
2.32273
2.29466
2.26394
1
1
1
1
1
1
1
1
1
1
1
1
1
1
1
1
1
1
1
1
1
1
1
1
1.00001
1.00002
1.00003
1.00008
1.00017
1.00032
1.00112
1.00193
1.00834
1.01761
1.06367
1.13709
1.44701
1.96484
2.34986
2.39508
2.3986
2.39342
2.38733
2.37478
2.36089
2.3388
2.31245
2.29216
2.26043
2.23509
1
1
1
1
1
1
1
1
1
1
1
1
1
1
1
1
1
1
1
1
1
1
1
1
1
1
1.00002
1.00003
1.00009
1.00015
1.00041
1.00103
1.00192
1.00727
1.01464
1.05393
1.1157
1.38307
1.83686
2.24744
2.32925
2.33444
2.32527
2.31979
2.30737
2.29633
2.27954
2.25835
2.23728
2.20971
1
1
1
1
1
1
1
1
1
1
1
1
1
1
1
1
1
1
1
1
1
1
1
1
1
1
1
1
1.00001
1.00003
1.00004
1.00025
1.00028
1.00184
1.00594
1.01272
1.04101
1.09564
1.27119
1.57102
2.09585
2.27237
2.28493
2.27715
2.27408
2.26576
2.25485
2.23584
2.22001
2.19681
1
1
1
1
1
1
1
1
1
1
1
1
1
1
1
1
1
1
1
1
1
1
1
1
1
1
1
1
1
1.00001
1.00003
1.00004
1.00016
1.00019
1.00119
1.00108
1.0095
1.02219
1.0744
1.18117
1.47841
1.95442
2.22607
2.25838
2.25816
2.24609
2.22923
2.20444
2.17998
2.1649
1
1
1
1
1
1
1
1
1
1
1
1
1
1
1
1
1
1
1
1
1
1
1
1
1
1
1
1
1
1
1.00001
1.00002
1.00006
1.00011
1.00025
1.0008
1.00121
1.00628
1.01253
1.04703
1.10816
1.3228
1.69364
2.04632
2.19246
2.19062
2.17949
2.16615
2.14962
2.1334
1
1
1
1
1
1
1
1
1
1
1
1
1
1
1
1
1
1
1
1
1
1
1
1
1
1
1
1
1
1
1
1
1.00001
1.00002
1.00004
1.00016
1.00012
1.00116
1.00203
1.00828
1.02553
1.0621
1.16711
1.39833
1.81879
2.07995
2.13854
2.13268
2.10476
2.08708
1
1
1
1
1
1
1
1
1
1
1
1
1
1
1
1
1
1
1
1
1
1
1
1
1
1
1
1
1
1
1
1
1
1
1.00001
1.00005
1.00008
1.00024
1.00064
1.00116
1.00492
1.00855
1.03358
1.0763
1.22066
1.49852
1.73155
1.99077
2.04104
2.03846
1
1
1
1
1
1
1
1
1
1
1
1
1
1
1
1
1
1
1
1
1
1
1
1
1
1
1
1
1
1
1
1
1
1
1
1.00001
1.00001
1.00004
1.00006
1.00025
1.00032
1.00183
1.00269
1.01226
1.0345
1.07708
1.21353
1.37937
1.66089
1.88213
1
1
1
1
1
1
1
1
1
1
1
1
1
1
1
1
1
1
1
1
1
1
1
1
1
1
1
1
1
1
1
1
1
1
1
1
1
1
1.00001
1.00002
1.00011
1.00016
1.00073
1.00081
1.00478
1.00804
1.03025
1.07017
1.19387
1.37754
1
1
1
1
1
1
1
1
1
1
1
1
1
1
1
1
1
1
1
1
1
1
1
1
1
1
1
1
1
1
1
1
1
1
1
1
1
1
1
1
1.00002
1.00002
1.00013
1.00018
1.00127
1.00061
1.00721
1.01321
1.0475
1.08993
1
1
1
1
1
1
1
1
1
1
1
1
1
1
1
1
1
1
1
1
1
1
1
1
1
1
1
1
1
1
1
1
1
1
1
1
1
1
1
1
1
1.00002
1.00002
1.00016
1.00008
1.00083
1.00155
1.0062
1.01689
1.03796
1
1
1
1
1
1
1
1
1
1
1
1
1
1
1
1
1
1
1
1
1
1
1
1
1
1
1
1
1
1
1
1
1
1
1
1
1
1
1
1
1
1
1.00002
1.00003
1.0002
1.00018
1.00087
1.00118
1.00664
1.01187
1
1
1
1
1
1
1
1
1
1
1
1
1
1
1
1
1
1
1
1
1
1
1
1
1
1
1
1
1
1
1
1
1
1
1
1
1
1
1
1
1
1
1
1.00003
1.00002
1.0002
1.00003
1.00093
1.00225
1.00613
1
1
1
1
1
1
1
1
1
1
1
1
1
1
1
1
1
1
1
1
1
1
1
1
1
1
1
1
1
1
1
1
1
1
1
1
1
1
1
1
1
1
1
1.00001
1.00001
1.00007
1.00002
1.00035
1.00082
1.00227
1
1
1
1
1
1
1
1
1
1
1
1
1
1
1
1
1
1
1
1
1
1
1
1
1
1
1
1
1
1
1
1
1
1
1
1
1
1
1
1
1
1
1
1
1.00001
1.00001
1.00004
1.00006
1.00032
1.0006
1
1
1
1
1
1
1
1
1
1
1
1
1
1
1
1
1
1
1
1
1
1
1
1
1
1
1
1
1
1
1
1
1
1
1
1
1
1
1
1
1
1
1
1
1
1
1.00001
1.00002
1.00011
1.00021
1
1
1
1
1
1
1
1
1
1
1
1
1
1
1
1
1
1
1
1
1
1
1
1
1
1
1
1
1
1
1
1
1
1
1
1
1
1
1
1
1
1
1
1
1
1
1
1.00001
1.00003
1.00009
1
1
1
1
1
1
1
1
1
1
1
1
1
1
1
1
1
1
1
1
1
1
1
1
1
1
1
1
1
1
1
1
1
1
1
1
1
1
1
1
1
1
1
1
1
1
1
1
1.00001
1.00003
1
1
1
1
1
1
1
1
1
1
1
1
1
1
1
1
1
1
1
1
1
1
1
1
1
1
1
1
1
1
1
1
1
1
1
1
1
1
1
1
1
1
1
1
1
1
1
1
1
1.00001
1
1
1
1
1
1
1
1
1
1
1
1
1
1
1
1
1
1
1
1
1
1
1
1
1
1
1
1
1
1
1
1
1
1
1
1
1
1
1
1
1
1
1
1
1
1
1
1
1
1
1
1
1
1
1
1
1
1
1
1
1
1
1
1
1
1
1
1
1
1
1
1
1
1
1
1
1
1
1
1
1
1
1
1
1
1
1
1
1
1
1
1
1
1
1
1
1
1
1
1
1
1
1
1
1
1
1
1
1
1
1
1
1
1
1
1
1
1
1
1
1
1
1
1
1
1
1
1
1
1
1
1
1
1
1
1
1
1
1
1
1
1
1
1
1
1
1
1
1
1
1
1
1
1
1
1
1
1
1
1
1
1
1
1
1
1
1
1
1
1
1
1
1
1
1
1
1
1
1
1
1
1
1
1
1
1
1
1
1
1
1
1
1
1
1
1
1
1
1
1
1
1
1
1
1
1
1
1
1
1
1
1
1
1
1
1
1
1
1
1
1
1
1
1
1
1
1
1
1
1
1
1
1
1
1
1
1
1
1
1
1
1
1
1
1
1
1
1
1
1
1
1
1
1
1
1
1
1
1
1
1
1
1
1
1
1
1
1
1
1
1
1
1
1
1
1
1
1
1
1
1
1
1
1
1
1
1
1
1
1
1
1
1
1
1
1
1
1
1
1
1
1
1
1
1
1
1
1
1
1
1
1
1
1
1
1
1
1
1
1
1
1
1
1
1
1
1
1
1
1
1
1
1
1
1
1
1
1
1
1
1
1
1
1
1
1
1
1
1
1
1
1
1
1
1
1
1
1
1
1
1
1
1
1
1
1
1
1
1
1
1
1
1
1
1
1
1
1
1
1
1
1
1
1
1
1
1
1
1
1
1
1
1
1
1
1
1
1
1
1
1
1
1
1
1
1
1
1
1
1
1
1
1
1
1
1
1
1
1
1
1
1
1
1
1
1
1
1
1
1
1
1
1
1
1
1
1
1
1
1
1
1
1
1
1
1
1
1
1
1
1
1
1
1
1
1
1
1
1
1
1
1
1
1
1
1
1
1
1
1
1
1
1
1
1
1
1
1
1
1
1
1
1
1
1
1
1
1
1
1
1
1
1
1
1
1
1
1
1
1
1
1
1
1
1
1
1
1
1
1
1
1
1
1
1
1
1
1
1
1
1
1
1
1
1
1
1
1
1
1
1
1
1
1
1
1
1
1
1
1
1
1
1
1
1
1
1
1
1
1
1
1
1
1
1
1
1
1
1
1
1
1
1
1
1
1
1
1
1
1
1
1
1
1
1
1
1
1
1
1
1
1
1
1
1
1
1
1
1
1
1
1
1
1
1
1
1
1
1
1
2.50797
2.39012
2.39441
2.44149
2.54812
2.63965
2.70279
2.78213
2.7988
2.79104
2.77482
2.76059
2.74261
2.72716
2.71919
2.71193
2.70326
2.69379
2.68269
2.66945
2.65373
2.63675
2.62041
2.6057
2.59287
2.58205
2.57296
2.56491
2.55723
2.54982
2.54231
2.53384
2.52325
2.50881
2.49022
2.4702
2.45086
2.4309
2.41013
2.39227
2.3804
2.37397
2.3698
2.36532
2.36074
2.35588
2.34214
2.29545
2.18949
2.05748
1.91892
1.78392
1.65909
1.54757
1.45041
1.36754
1.29823
1.24138
1.19569
1.15979
1.13228
1.1116
1.09618
1.0847
1.07609
1.0696
1.06456
1.06045
1.05686
1.05354
1.05036
1.04716
1.0438
1.04009
1.03593
1.03144
1.02698
1.02296
1.01958
1.01679
1.01436
1.01205
1.00966
1.00705
1.00476
1.00208
1.00031
0.999348
0.998936
0.998834
0.998862
0.999034
0.999324
0.999548
0.999705
0.999813
0.999881
0.999932
0.99995
0.999975
2.42149
2.36844
2.34837
2.33627
2.3125
2.28078
2.22557
2.20689
2.19839
2.20322
2.21858
2.23558
2.24907
2.24528
2.23945
2.22998
2.2178
2.20727
2.19894
2.19245
2.18607
2.17868
2.17089
2.16173
2.15204
2.14311
2.13476
2.1277
2.12218
2.1168
2.11105
2.10549
2.09944
2.09114
2.07905
2.0641
2.04825
2.0313
2.01349
1.99844
1.98891
1.9846
1.98323
1.98163
1.97941
1.97858
1.97778
1.97448
1.96238
1.93002
1.8671
1.79042
1.70623
1.61936
1.53397
1.45342
1.38007
1.31503
1.25855
1.21034
1.16997
1.1369
1.11052
1.08995
1.07406
1.0618
1.05227
1.04495
1.03951
1.03564
1.0329
1.0307
1.02854
1.0261
1.02333
1.02042
1.01765
1.01523
1.0132
1.0115
1.00999
1.00854
1.00702
1.0053
1.00282
1.00056
0.999237
0.998598
0.998388
0.998383
0.998509
0.998862
0.999203
0.999457
0.999639
0.999768
0.99985
0.999912
0.999937
0.999965
2.31992
2.31259
2.29213
2.24505
2.17607
2.09725
2.03774
2.00575
2.00487
2.00556
2.01321
2.03055
2.04271
2.05209
2.04954
2.04703
2.04354
2.03751
2.02977
2.02349
2.01821
2.01234
2.00594
1.99915
1.99284
1.98725
1.98127
1.97481
1.96795
1.96004
1.9515
1.94364
1.93642
1.92831
1.91803
1.90639
1.89503
1.88336
1.87073
1.86009
1.85358
1.85062
1.84982
1.84905
1.84768
1.8469
1.84424
1.83246
1.80016
1.74762
1.68829
1.62609
1.56316
1.50045
1.43862
1.37867
1.32182
1.26912
1.2214
1.17912
1.14256
1.11188
1.08692
1.06719
1.05206
1.04071
1.03236
1.02642
1.02247
1.02024
1.01928
1.01893
1.01856
1.01775
1.01639
1.01474
1.01311
1.01169
1.01053
1.0095
1.0085
1.00745
1.00627
1.00461
1.00203
1.00007
0.998952
0.99843
0.998278
0.998297
0.998483
0.99888
0.999215
0.999465
0.999644
0.999771
0.999853
0.999914
0.999939
0.999966
2.24436
2.2276
2.19981
2.16604
2.12538
2.083
2.03562
1.99664
1.95955
1.93545
1.91967
1.91999
1.92239
1.92493
1.93399
1.93817
1.94328
1.94131
1.93976
1.93652
1.93058
1.92279
1.9143
1.90506
1.89628
1.88854
1.88054
1.87104
1.8603
1.84919
1.8384
1.82866
1.82049
1.81299
1.80462
1.79597
1.78858
1.78118
1.77246
1.7649
1.7605
1.75864
1.75762
1.75567
1.75087
1.73864
1.71442
1.68164
1.64164
1.59589
1.54664
1.49631
1.44665
1.39856
1.35237
1.30812
1.26582
1.22578
1.18864
1.15504
1.12535
1.09962
1.07776
1.05964
1.04507
1.0338
1.02543
1.01955
1.01573
1.01354
1.01257
1.01231
1.01219
1.01191
1.01116
1.00995
1.00879
1.00798
1.00743
1.00698
1.00647
1.00582
1.00493
1.00312
1.00077
0.999167
0.998292
0.997939
0.997882
0.997973
0.998338
0.998802
0.999159
0.999425
0.999614
0.999749
0.999836
0.999902
0.99993
0.99996
2.20416
2.16729
2.13736
2.1099
2.07476
2.03964
2.00188
1.96021
1.92067
1.88444
1.85761
1.84362
1.83913
1.84004
1.84244
1.84491
1.84944
1.85765
1.85725
1.85646
1.85458
1.85039
1.84322
1.8336
1.82258
1.8104
1.79761
1.78475
1.77224
1.76083
1.75143
1.74404
1.73785
1.73134
1.72324
1.71493
1.70872
1.70404
1.70004
1.69779
1.69689
1.69564
1.69234
1.68191
1.65921
1.62978
1.5946
1.55552
1.5147
1.47358
1.43309
1.39395
1.35649
1.32075
1.28659
1.25375
1.22187
1.19087
1.16109
1.13314
1.10761
1.08496
1.06538
1.04887
1.03536
1.02471
1.0167
1.01114
1.00784
1.00642
1.00616
1.00627
1.00669
1.007
1.007
1.00666
1.00591
1.00544
1.00528
1.00527
1.00534
1.00519
1.00428
1.0025
1.00029
0.998837
0.998093
0.997823
0.997804
0.997949
0.998392
0.998847
0.999194
0.99945
0.999633
0.999762
0.999845
0.999908
0.999933
0.999962
2.20271
2.14314
2.09916
2.06435
2.02831
1.99328
1.95646
1.92283
1.89102
1.86212
1.83666
1.81195
1.78976
1.7751
1.7658
1.76316
1.76372
1.76503
1.76671
1.7689
1.76776
1.76486
1.75962
1.75328
1.74323
1.73043
1.71756
1.70687
1.6981
1.69039
1.68358
1.67752
1.6714
1.66412
1.65575
1.64834
1.64354
1.64058
1.63837
1.6367
1.6344
1.62891
1.61476
1.59085
1.56179
1.52949
1.49467
1.4588
1.42332
1.38908
1.35606
1.32389
1.29245
1.26211
1.23343
1.20667
1.18159
1.15765
1.13454
1.11238
1.09164
1.07288
1.05641
1.04224
1.0303
1.0205
1.0128
1.00733
1.00423
1.00312
1.00304
1.00326
1.00389
1.00429
1.00434
1.00415
1.00374
1.00359
1.00368
1.00399
1.00409
1.00402
1.00322
1.00118
0.999353
0.998218
0.997665
0.997503
0.997537
0.997809
0.998362
0.998823
0.999176
0.999437
0.999623
0.999755
0.99984
0.999904
0.99993
0.99996
2.20153
2.13224
2.07835
2.03516
1.99715
1.96334
1.93109
1.90112
1.87196
1.84287
1.81373
1.78575
1.75987
1.73643
1.71761
1.70536
1.69885
1.69523
1.69426
1.69346
1.69197
1.68871
1.68519
1.68151
1.67774
1.67223
1.66519
1.65806
1.65141
1.64463
1.63744
1.62951
1.62107
1.61189
1.6027
1.59561
1.59202
1.59052
1.58874
1.58502
1.57617
1.55825
1.53404
1.505
1.47341
1.44095
1.4089
1.378
1.34854
1.3205
1.29363
1.26751
1.24189
1.21689
1.19304
1.17085
1.15037
1.13117
1.11261
1.09457
1.0774
1.06153
1.04741
1.03517
1.02473
1.01608
1.00921
1.00416
1.00123
1.00023
1.0002
1.00051
1.00127
1.00178
1.00196
1.00198
1.00203
1.00241
1.00287
1.00321
1.00341
1.00337
1.00267
1.00067
0.998912
0.997908
0.997473
0.997383
0.997469
0.997865
0.998431
0.998879
0.999218
0.999468
0.999646
0.999772
0.999852
0.999912
0.999936
0.999963
2.19017
2.12789
2.07447
2.03048
1.99245
1.95707
1.9236
1.89175
1.86058
1.82915
1.79891
1.76997
1.74406
1.72079
1.699
1.67984
1.66379
1.65203
1.64324
1.63772
1.63504
1.63274
1.63022
1.62778
1.62646
1.62447
1.6215
1.61759
1.61325
1.60707
1.59851
1.58839
1.57855
1.57013
1.56255
1.55571
1.55101
1.54702
1.54007
1.52756
1.50836
1.48439
1.45819
1.43008
1.40176
1.37393
1.34728
1.32217
1.29799
1.27416
1.25041
1.22671
1.20349
1.18126
1.16034
1.1411
1.12374
1.10805
1.09336
1.07912
1.06538
1.05241
1.04057
1.0302
1.02134
1.0139
1.0078
1.00316
1.0003
0.999263
0.999225
0.999542
1.00034
1.00081
1.00092
1.00091
1.00119
1.00172
1.00226
1.00273
1.00295
1.00282
1.00186
0.999718
0.998243
0.997474
0.997185
0.997166
0.997342
0.997886
0.998459
0.998902
0.999235
0.999479
0.999652
0.999774
0.999853
0.999912
0.999936
0.999963
2.19084
2.13262
2.07917
2.03431
1.99552
1.95933
1.92418
1.88882
1.85413
1.82162
1.79147
1.76393
1.739
1.71533
1.6932
1.67174
1.65271
1.63603
1.62078
1.60855
1.5995
1.59328
1.58875
1.58507
1.58327
1.58232
1.5802
1.57655
1.5725
1.56738
1.55968
1.55101
1.5431
1.53637
1.5295
1.5211
1.51148
1.50078
1.48616
1.4663
1.44278
1.41739
1.39223
1.36723
1.34198
1.31773
1.29505
1.27383
1.25316
1.23204
1.21037
1.18882
1.16812
1.14885
1.13142
1.11574
1.10161
1.08882
1.0771
1.06587
1.05463
1.04381
1.03359
1.0252
1.0178
1.01151
1.00631
1.00244
0.999868
0.998719
0.998585
0.998762
0.999244
0.99954
0.999702
1.00016
1.00062
1.00126
1.00201
1.00256
1.00276
1.00248
1.00094
0.999012
0.997823
0.997225
0.997035
0.997064
0.997353
0.997988
0.99854
0.998966
0.999284
0.999514
0.999677
0.999791
0.999864
0.999919
0.999941
0.999966
2.17981
2.13653
2.09045
2.04746
2.00775
1.9686
1.92898
1.89095
1.8552
1.82271
1.79284
1.76579
1.74098
1.71714
1.69447
1.67243
1.65196
1.63276
1.6158
1.59941
1.58398
1.57155
1.56267
1.55553
1.55008
1.54719
1.54407
1.53863
1.53262
1.52783
1.52298
1.51722
1.51137
1.50505
1.49621
1.48361
1.46796
1.45078
1.43168
1.40964
1.38637
1.36329
1.34081
1.31881
1.29654
1.27469
1.25457
1.23535
1.21622
1.19656
1.17636
1.15649
1.13807
1.12175
1.1076
1.09535
1.08401
1.07329
1.0635
1.0544
1.04567
1.03704
1.02867
1.0211
1.01466
1.00934
1.00535
1.00252
1.0001
0.998645
0.998384
0.998442
0.998617
0.99888
0.999537
0.99993
1.0002
1.00086
1.00166
1.00223
1.00239
1.00182
0.999998
0.998326
0.997349
0.996912
0.996822
0.996925
0.997394
0.998064
0.998601
0.999012
0.999318
0.99954
0.999695
0.999802
0.999871
0.999922
0.999942
0.999966
2.15699
2.12646
2.09476
2.05696
2.01748
1.97581
1.93471
1.89552
1.85901
1.82668
1.79751
1.77153
1.74678
1.72312
1.6998
1.67714
1.65562
1.63532
1.61623
1.59833
1.58134
1.56536
1.55137
1.53996
1.52966
1.52012
1.51284
1.50498
1.49678
1.49065
1.48693
1.48249
1.47623
1.46814
1.45639
1.43986
1.42067
1.40118
1.38134
1.36037
1.33939
1.31915
1.29929
1.27912
1.25856
1.2381
1.2191
1.20122
1.18323
1.16486
1.14638
1.12875
1.11285
1.09954
1.0888
1.07885
1.06948
1.06073
1.05259
1.04495
1.03775
1.03086
1.02408
1.01757
1.01192
1.00743
1.00397
1.0016
1.00028
0.999312
0.998521
0.998295
0.998288
0.998581
0.998973
0.999204
0.999802
1.00064
1.00143
1.00196
1.00203
1.0013
0.999361
0.99783
0.997023
0.996726
0.996711
0.996915
0.997534
0.998184
0.998694
0.999082
0.99937
0.999578
0.999722
0.999822
0.999884
0.99993
0.999948
0.99997
2.144
2.1162
2.08457
2.05397
2.01671
1.97644
1.93573
1.89818
1.8646
1.83469
1.8077
1.78261
1.75813
1.73406
1.70987
1.68707
1.66434
1.64333
1.62327
1.603
1.58427
1.56615
1.54925
1.53386
1.51987
1.50512
1.49016
1.47921
1.46984
1.46109
1.45573
1.44981
1.43973
1.42624
1.41096
1.3929
1.37268
1.35354
1.33612
1.31829
1.29954
1.28127
1.2637
1.24546
1.22628
1.207
1.18864
1.17149
1.15499
1.13843
1.12189
1.10662
1.0941
1.08419
1.07509
1.06701
1.05967
1.05263
1.04578
1.03917
1.03298
1.02721
1.02171
1.01633
1.01126
1.00705
1.004
1.00204
1.00092
1.00029
0.999691
0.999122
0.998745
0.998503
0.998535
0.998902
0.999886
1.00088
1.0016
1.00199
1.00194
1.00085
0.998702
0.997377
0.996767
0.996601
0.99665
0.996998
0.997707
0.998314
0.998792
0.999154
0.999421
0.999613
0.999746
0.999838
0.999895
0.999936
0.999952
0.999972
2.1208
2.09271
2.06834
2.03534
2.00471
1.9691
1.93261
1.89755
1.86685
1.83976
1.81469
1.79012
1.76546
1.74066
1.71633
1.69291
1.67045
1.64893
1.62771
1.60722
1.58615
1.56643
1.54837
1.53026
1.5126
1.49581
1.47877
1.46283
1.45073
1.44004
1.42811
1.41661
1.40266
1.38368
1.36471
1.34653
1.32723
1.30864
1.29271
1.27769
1.26113
1.24433
1.22821
1.21178
1.1945
1.17644
1.15898
1.14363
1.12952
1.11502
1.10054
1.08829
1.07911
1.07088
1.06373
1.0576
1.05201
1.04656
1.04105
1.03552
1.03021
1.02529
1.02077
1.01639
1.01206
1.00817
1.00525
1.00349
1.0026
1.00222
1.00174
1.00074
0.999501
0.998642
0.998572
0.999002
1.00031
1.00153
1.00223
1.00242
1.00202
1.0001
0.998125
0.997077
0.996649
0.996575
0.996691
0.997194
0.997896
0.998463
0.998903
0.999235
0.999479
0.999653
0.999774
0.999856
0.999907
0.999944
0.999958
0.999975
2.10134
2.06988
2.04279
2.01604
1.9804
1.94973
1.91965
1.89221
1.86558
1.84039
1.81638
1.79215
1.76745
1.74246
1.71808
1.6948
1.67271
1.65126
1.63001
1.6086
1.58769
1.56724
1.54774
1.52901
1.50962
1.49023
1.47268
1.4557
1.43872
1.42314
1.40557
1.38579
1.36571
1.34537
1.32365
1.30435
1.28819
1.27097
1.25504
1.24122
1.22579
1.20885
1.19287
1.17767
1.1619
1.14492
1.12847
1.11537
1.10393
1.09144
1.07978
1.0714
1.06417
1.05812
1.05334
1.04917
1.04515
1.04101
1.03667
1.03223
1.02779
1.02356
1.0197
1.0162
1.01283
1.00963
1.00707
1.00552
1.00481
1.0045
1.00407
1.00289
1.0008
0.999363
0.999086
0.999565
1.00108
1.00244
1.00308
1.00297
1.00147
0.99914
0.997655
0.996867
0.996576
0.996568
0.996787
0.997432
0.998093
0.998615
0.999016
0.999317
0.999536
0.999692
0.999799
0.999872
0.999918
0.99995
0.999962
0.999977
2.06031
2.04906
2.02368
1.9967
1.96741
1.93417
1.90842
1.88376
1.85992
1.83669
1.81342
1.78956
1.76524
1.74083
1.71706
1.69433
1.67264
1.65151
1.63032
1.6091
1.58811
1.56767
1.54757
1.52746
1.50769
1.4872
1.46714
1.44719
1.4268
1.40529
1.38362
1.36076
1.33628
1.31392
1.293
1.27268
1.25552
1.23997
1.22355
1.20886
1.19514
1.17859
1.16153
1.14705
1.13206
1.11566
1.10003
1.08813
1.07898
1.06829
1.05902
1.05294
1.04732
1.04306
1.04008
1.03769
1.03526
1.03255
1.02955
1.02641
1.02328
1.02028
1.01747
1.01492
1.01251
1.01018
1.00813
1.00682
1.00631
1.00612
1.00578
1.00466
1.00201
1.00009
0.999606
1.00013
1.00178
1.00306
1.00332
1.00262
1.00059
0.998594
0.997317
0.996691
0.996519
0.99658
0.996975
0.997694
0.998295
0.998767
0.999128
0.999397
0.999592
0.999731
0.999825
0.999889
0.999928
0.999956
0.999966
0.99998
2.03043
2.02157
2.01023
1.98494
1.95573
1.92484
1.89297
1.86687
1.84502
1.82281
1.7995
1.77596
1.75299
1.73051
1.70918
1.68854
1.66854
1.64859
1.62828
1.60769
1.58707
1.56676
1.54624
1.52552
1.50413
1.48206
1.4589
1.43515
1.41176
1.38758
1.36395
1.34014
1.31674
1.29353
1.27184
1.25217
1.23326
1.21637
1.20025
1.1834
1.16835
1.15317
1.13588
1.12002
1.10673
1.09192
1.07705
1.06676
1.05936
1.05061
1.04214
1.03691
1.03225
1.02887
1.02673
1.02528
1.02383
1.02206
1.02005
1.01806
1.01621
1.01452
1.01296
1.01159
1.01039
1.00925
1.00817
1.00735
1.00699
1.00687
1.00661
1.00555
1.00272
1.00048
0.999852
1.00031
1.00194
1.0031
1.00303
1.00221
1.00004
0.998123
0.997012
0.996559
0.996501
0.996673
0.997271
0.997958
0.998501
0.998922
0.999241
0.999477
0.999648
0.999768
0.99985
0.999905
0.999939
0.999962
0.999971
0.999983
1.97124
1.99501
1.99094
1.97672
1.9422
1.91421
1.88746
1.85958
1.83209
1.80598
1.78131
1.7572
1.73407
1.71245
1.69242
1.67362
1.65556
1.63741
1.61907
1.60042
1.58122
1.56138
1.54069
1.51892
1.49562
1.47123
1.44607
1.42103
1.39622
1.37209
1.34841
1.32497
1.30233
1.27985
1.2589
1.2385
1.21935
1.20118
1.18324
1.16638
1.14977
1.13352
1.1171
1.1004
1.08726
1.07484
1.06099
1.0503
1.04426
1.03771
1.02984
1.02542
1.02168
1.0189
1.01718
1.01604
1.01487
1.01339
1.01181
1.01048
1.00949
1.00875
1.00821
1.00787
1.00773
1.00763
1.00747
1.00722
1.00705
1.00697
1.00674
1.00565
1.0028
1.00053
0.999786
1.00013
1.00171
1.00296
1.00288
1.0019
0.999543
0.997724
0.996812
0.996543
0.996582
0.996932
0.997644
0.998245
0.998719
0.999083
0.999357
0.999559
0.999704
0.999805
0.999875
0.999921
0.999949
0.999968
0.999976
0.999986
1.88075
1.95455
1.95297
1.94595
1.92627
1.89793
1.87569
1.85063
1.82373
1.79691
1.77057
1.74519
1.72067
1.69743
1.67617
1.65683
1.63874
1.62089
1.60328
1.58536
1.56704
1.54742
1.52645
1.50404
1.48069
1.45649
1.43186
1.40731
1.3833
1.35998
1.3371
1.31456
1.29224
1.27061
1.24954
1.22961
1.21067
1.19218
1.17444
1.15614
1.13886
1.12204
1.10485
1.08925
1.07573
1.06387
1.05318
1.04298
1.0362
1.03123
1.02384
1.01801
1.01509
1.0121
1.0103
1.0094
1.00859
1.00741
1.00622
1.00545
1.0051
1.00498
1.00498
1.00517
1.00584
1.0066
1.00707
1.00728
1.00733
1.00732
1.007
1.00552
1.00271
1.00078
1.0001
1.00033
1.00172
1.00304
1.00297
1.00176
0.999162
0.997494
0.996818
0.996714
0.99686
0.997402
0.998045
0.998553
0.998948
0.99925
0.999476
0.999641
0.999759
0.999842
0.999898
0.999936
0.999959
0.999975
0.999981
0.999989
1.47178
1.84916
1.89137
1.90187
1.89516
1.87853
1.85961
1.83988
1.81284
1.78417
1.75768
1.73324
1.70994
1.68694
1.66445
1.64302
1.62314
1.60476
1.58694
1.56865
1.54955
1.52953
1.50883
1.48745
1.46541
1.44256
1.41926
1.39587
1.37302
1.35064
1.32866
1.30671
1.2848
1.26321
1.24244
1.22286
1.20411
1.18618
1.16876
1.15109
1.13352
1.11643
1.09997
1.0847
1.07144
1.06068
1.05057
1.04199
1.03509
1.0296
1.02441
1.01816
1.01365
1.01048
1.00815
1.00707
1.00627
1.00505
1.00383
1.00325
1.0032
1.00329
1.00364
1.00459
1.00599
1.00725
1.00814
1.00862
1.00877
1.00868
1.00789
1.00561
1.00315
1.00167
1.00123
1.00147
1.00259
1.00364
1.00357
1.00175
0.99891
0.997498
0.99709
0.997106
0.997381
0.997964
0.998465
0.998864
0.999176
0.999414
0.999591
0.99972
0.999812
0.999876
0.99992
0.99995
0.999968
0.999981
0.999986
0.999991
1.22057
1.49913
1.79672
1.8375
1.85795
1.8491
1.83813
1.82358
1.80279
1.7731
1.74398
1.7189
1.69663
1.67529
1.65386
1.6329
1.61287
1.59331
1.57386
1.55414
1.5341
1.51382
1.49346
1.47293
1.45205
1.43061
1.4088
1.38687
1.36518
1.34359
1.322
1.3001
1.27837
1.25712
1.23698
1.21807
1.20006
1.18252
1.16529
1.14782
1.13061
1.11459
1.09963
1.08596
1.07416
1.06397
1.05521
1.0468
1.03956
1.03423
1.02867
1.02356
1.0189
1.01423
1.01121
1.00996
1.00928
1.00794
1.00644
1.00574
1.00571
1.00587
1.00643
1.0077
1.00922
1.01056
1.01149
1.01192
1.01193
1.01139
1.00949
1.00688
1.0048
1.00372
1.0035
1.00381
1.00461
1.00503
1.0044
1.00124
0.99867
0.997769
0.997626
0.997712
0.998052
0.998493
0.998858
0.999152
0.999384
0.999561
0.999694
0.999791