/*--------------------------------*- C++ -*----------------------------------*\
| =========                 |                                                 |
| \\      /  F ield         | OpenFOAM: The Open Source CFD Toolbox           |
|  \\    /   O peration     | Version:  2112                                  |
|   \\  /    A nd           | Website:  www.openfoam.com                      |
|    \\/     M anipulation  |                                                 |
\*---------------------------------------------------------------------------*/
FoamFile
{
    version     2.0;
    format      ascii;
    arch        "LSB;label=32;scalar=64";
    class       volVectorField;
    location    "0.5";
    object      U;
}
// * * * * * * * * * * * * * * * * * * * * * * * * * * * * * * * * * * * * * //

dimensions      [0 1 -1 0 0 0 0];

internalField   nonuniform List<vector> 
7000
(
(3 -4.40074e-07 0.000576052)
(3 -1.04809e-06 0.00054746)
(3 -1.44784e-06 0.000518982)
(3 -1.61639e-06 0.00049062)
(3 -1.41823e-06 0.000462375)
(3 -1.20179e-06 0.00043425)
(3 -9.93308e-07 0.000406252)
(3 -8.04617e-07 0.000378382)
(3 -6.42089e-07 0.000350642)
(3 -5.04751e-07 0.000323034)
(3 -3.92016e-07 0.000295562)
(3 -3.0165e-07 0.000268227)
(3 -2.30894e-07 0.000241032)
(3 -1.76606e-07 0.00021398)
(3 -1.33075e-07 0.000187071)
(3 -2.6578e-07 0.000160444)
(2.99998 -6.14993e-07 0.000134204)
(2.99994 -1.23317e-06 0.000108732)
(2.99984 -1.31201e-06 8.42205e-05)
(2.99959 -2.93821e-06 6.34943e-05)
(2.99909 -8.47179e-07 4.66562e-05)
(2.99757 -1.76902e-05 5.56991e-05)
(2.99467 -8.85963e-06 8.02907e-05)
(2.98486 -0.000164375 0.00028759)
(2.96565 -0.000243649 0.000585356)
(2.89724 -0.00117136 0.0021413)
(2.72033 -0.00367031 0.00471817)
(2.23243 -0.0105293 0.0140963)
(0.981389 -0.0231464 0.0181239)
(0.330401 -0.0159437 0.00541685)
(0.496736 -0.00222153 -0.00231086)
(0.550197 -0.0012382 -0.00158414)
(0.535519 -0.00246884 -0.000980364)
(0.50219 -0.00296197 -0.000872318)
(0.45826 -0.00242297 -0.000891239)
(0.422152 -0.000853492 -0.00101583)
(0.394681 0.00117845 -0.00116889)
(0.36739 0.00283991 -0.00130461)
(0.339584 0.00411814 -0.00142934)
(0.312491 0.00513269 -0.0015526)
(0.286033 0.00611696 -0.00165987)
(0.260416 0.00720957 -0.00175527)
(0.235351 0.00849495 -0.00185238)
(0.209815 0.0100139 -0.00200231)
(0.17912 0.0115213 -0.00223105)
(0.146029 0.0128493 -0.00243847)
(0.11128 0.0134147 -0.00264994)
(0.082747 0.0127772 -0.00280336)
(0.0493035 0.0137276 -0.00302103)
(0.0125118 0.0182064 -0.00306822)
(3 -4.67248e-07 0.000556207)
(3 -1.07708e-06 0.000528561)
(3 -1.44329e-06 0.000501029)
(3 -1.54374e-06 0.000473614)
(3 -1.25147e-06 0.000446316)
(3 -9.47144e-07 0.00041914)
(3 -6.61722e-07 0.000392089)
(3 -4.10531e-07 0.000365165)
(3 -2.04953e-07 0.00033837)
(3 -4.92781e-08 0.000311707)
(3 5.71054e-08 0.000285179)
(3 1.20663e-07 0.000258786)
(3 1.49128e-07 0.000232533)
(3 1.50462e-07 0.000206421)
(3 1.31119e-07 0.00018045)
(3 -7.94429e-08 0.000154751)
(2.99998 -3.02676e-07 0.000129418)
(2.99994 4.93433e-08 0.000104803)
(2.99985 3.24228e-06 8.10864e-05)
(2.99961 9.5183e-06 6.08913e-05)
(2.99913 3.1625e-05 4.43155e-05)
(2.99767 5.63226e-05 5.17852e-05)
(2.9949 0.000169356 7.37505e-05)
(2.98543 0.000224189 0.000266216)
(2.96723 0.000658675 0.000533666)
(2.90103 0.00106764 0.00200054)
(2.73147 0.00155349 0.00435947)
(2.26132 0.00216304 0.0131519)
(1.01481 0.0116034 0.0177854)
(0.336326 0.0426992 0.00546032)
(0.483056 0.0540449 -0.00205706)
(0.53728 0.0452525 -0.00150926)
(0.527705 0.0380506 -0.000953104)
(0.496414 0.0341121 -0.000839621)
(0.451862 0.0326959 -0.000853492)
(0.414357 0.0332454 -0.000972687)
(0.385737 0.0346948 -0.00112264)
(0.357737 0.0357287 -0.00125306)
(0.329553 0.036025 -0.00137461)
(0.30215 0.0360061 -0.00149269)
(0.275354 0.0359122 -0.00159515)
(0.24939 0.0359305 -0.00168784)
(0.22415 0.0362963 -0.00178484)
(0.198685 0.0369696 -0.00193659)
(0.168559 0.0376258 -0.00215808)
(0.137098 0.0381456 -0.00235134)
(0.104204 0.0380056 -0.00254816)
(0.077763 0.0367771 -0.00269623)
(0.043429 0.0375825 -0.0029072)
(0.00940872 0.0402129 -0.00292129)
(3 -5.6982e-08 0.000535563)
(3 -1.29965e-07 0.000508905)
(3 -1.83152e-07 0.000482361)
(3 -2.61759e-07 0.000455933)
(3 -1.87313e-07 0.000429623)
(3 -9.62829e-08 0.000403433)
(3 -3.21383e-09 0.000377369)
(3 8.34595e-08 0.00035143)
(3 1.55923e-07 0.00032562)
(3 2.07797e-07 0.00029994)
(3 2.37096e-07 0.000274393)
(3 2.45241e-07 0.000248981)
(3 2.34196e-07 0.000223707)
(3 2.04797e-07 0.000198572)
(3 1.54176e-07 0.000173578)
(3 -1.03028e-07 0.000148844)
(2.99998 -2.76877e-07 0.000124454)
(2.99994 1.88975e-07 0.000100739)
(2.99986 3.63291e-06 7.7864e-05)
(2.99962 1.05048e-05 5.82774e-05)
(2.99916 3.3808e-05 4.2063e-05)
(2.99775 6.19341e-05 4.83934e-05)
(2.99508 0.000176406 6.82696e-05)
(2.98584 0.000246502 0.000249251)
(2.96833 0.000631487 0.000495611)
(2.90341 0.00091933 0.0018882)
(2.73781 0.000838283 0.00410756)
(2.27762 -0.000710368 0.0124069)
(1.03835 0.00469825 0.0172179)
(0.34719 0.0472863 0.00539558)
(0.472898 0.0601765 -0.00186864)
(0.52723 0.0466278 -0.00145668)
(0.523922 0.0386548 -0.00092761)
(0.495293 0.0364408 -0.000802553)
(0.451205 0.0376644 -0.000814025)
(0.413497 0.0413752 -0.000930485)
(0.384502 0.0457901 -0.00107496)
(0.355993 0.0492774 -0.00120074)
(0.327499 0.0513078 -0.00131615)
(0.299956 0.0528558 -0.00143017)
(0.272937 0.0543086 -0.00152818)
(0.246842 0.0558572 -0.00161605)
(0.221503 0.0578974 -0.00171133)
(0.195838 0.0601499 -0.00185887)
(0.16566 0.0621224 -0.00206959)
(0.134451 0.0634303 -0.00225367)
(0.101853 0.0637122 -0.0024377)
(0.0763838 0.0628633 -0.00257842)
(0.041674 0.0640877 -0.00278179)
(0.00872636 0.0654016 -0.00278265)
(3 -4.47586e-08 0.000514086)
(3 -4.80164e-08 0.000488459)
(3 -4.45859e-08 0.000462946)
(3 -6.06615e-08 0.000437547)
(3 -2.65174e-09 0.000412266)
(3 6.55676e-08 0.000387106)
(3 1.38095e-07 0.000362068)
(3 2.09774e-07 0.000337156)
(3 2.76938e-07 0.000312371)
(3 3.37203e-07 0.000287714)
(3 3.87152e-07 0.000263189)
(3 4.23111e-07 0.000238797)
(3 4.40988e-07 0.000214541)
(3 4.35173e-07 0.000190423)
(3 3.97858e-07 0.000166443)
(3 1.46915e-07 0.000142711)
(2.99998 1.8579e-07 0.000119299)
(2.99995 1.14973e-06 9.65147e-05)
(2.99986 5.96106e-06 7.4504e-05)
(2.99964 1.57456e-05 5.55166e-05)
(2.9992 4.67333e-05 3.96172e-05)
(2.99786 9.16519e-05 4.45196e-05)
(2.99532 0.000252054 6.17407e-05)
(2.9864 0.000430011 0.000229696)
(2.96985 0.00107789 0.000450384)
(2.90687 0.00207844 0.00175734)
(2.74734 0.00375065 0.00381542)
(2.30254 0.00682188 0.0115119)
(1.07682 0.0243733 0.0166486)
(0.369718 0.0836509 0.00536852)
(0.465923 0.0931911 -0.00164942)
(0.520448 0.0728293 -0.00139855)
(0.524244 0.0640947 -0.000888265)
(0.497145 0.0619643 -0.000755214)
(0.452274 0.0633499 -0.000767516)
(0.41381 0.067208 -0.000883683)
(0.384266 0.0717676 -0.00102278)
(0.355169 0.0752976 -0.00114449)
(0.326297 0.0772397 -0.00125366)
(0.298631 0.0786223 -0.0013641)
(0.271411 0.080047 -0.00145852)
(0.245314 0.0816452 -0.00154132)
(0.220138 0.0838702 -0.00163437)
(0.194525 0.086432 -0.00177607)
(0.164502 0.0887067 -0.00197502)
(0.133456 0.0900235 -0.00215045)
(0.100842 0.0902071 -0.00232331)
(0.0758627 0.0894748 -0.002457)
(0.0411841 0.0907495 -0.00265099)
(0.00876431 0.0906463 -0.00264851)
(3 -2.68129e-08 0.00049174)
(3 8.65155e-08 0.000467189)
(3 2.27267e-07 0.000442751)
(3 4.14118e-07 0.000418427)
(3 4.96128e-07 0.000394219)
(3 5.66088e-07 0.000370131)
(3 6.2554e-07 0.000346164)
(3 6.75123e-07 0.000322321)
(3 7.13879e-07 0.000298603)
(3 7.402e-07 0.000275012)
(3 7.52027e-07 0.00025155)
(3 7.47567e-07 0.00022822)
(3 7.24079e-07 0.000205022)
(3 6.76475e-07 0.00018196)
(3 5.98485e-07 0.000159035)
(3 3.22807e-07 0.000136343)
(2.99998 4.69838e-07 0.000113948)
(2.99995 1.72758e-06 9.21288e-05)
(2.99987 7.54885e-06 7.10145e-05)
(2.99967 1.96342e-05 5.26452e-05)
(2.99925 5.68179e-05 3.70644e-05)
(2.99798 0.000116245 4.04406e-05)
(2.9956 0.000310143 5.4643e-05)
(2.98706 0.000577169 0.00020948)
(2.97162 0.00143809 0.000400905)
(2.91082 0.00286725 0.00162506)
(2.75832 0.00605282 0.00351908)
(2.33072 0.0125297 0.0105721)
(1.12297 0.0375752 0.0160342)
(0.399142 0.116246 0.00534047)
(0.455653 0.116558 -0.00140814)
(0.512391 0.0870385 -0.00132355)
(0.527283 0.0788763 -0.000849833)
(0.502283 0.0780078 -0.000712592)
(0.456749 0.0816263 -0.000724775)
(0.417375 0.0876643 -0.000837751)
(0.387081 0.0939513 -0.000970498)
(0.357145 0.0985893 -0.00108721)
(0.327611 0.101273 -0.0011901)
(0.29961 0.103147 -0.00129591)
(0.272037 0.105078 -0.00138743)
(0.245702 0.107252 -0.0014651)
(0.220463 0.109988 -0.00155493)
(0.194734 0.113116 -0.00168919)
(0.164667 0.115879 -0.00187688)
(0.133572 0.117298 -0.00204433)
(0.10077 0.117396 -0.00220711)
(0.0758551 0.116712 -0.00233378)
(0.0412127 0.118017 -0.00251706)
(0.00899187 0.116713 -0.00251466)
(3 -2.48466e-08 0.000468487)
(3 8.88436e-08 0.00044506)
(3 2.40454e-07 0.000421744)
(3 4.56728e-07 0.000398541)
(3 5.74516e-07 0.000375453)
(3 6.77484e-07 0.000352482)
(3 7.63429e-07 0.000329631)
(3 8.32102e-07 0.000306901)
(3 8.83047e-07 0.000284295)
(3 9.16167e-07 0.000261813)
(3 9.30845e-07 0.000239458)
(3 9.26363e-07 0.000217232)
(3 9.00012e-07 0.000195136)
(3 8.4611e-07 0.000173173)
(3 7.58551e-07 0.000151343)
(3 4.87292e-07 0.000129731)
(2.99999 6.9018e-07 0.000108393)
(2.99995 2.05736e-06 8.7575e-05)
(2.99988 8.53939e-06 6.73888e-05)
(2.99969 2.22879e-05 4.96564e-05)
(2.99931 6.52454e-05 3.43984e-05)
(2.99813 0.000140241 3.61633e-05)
(2.99593 0.000362524 4.70602e-05)
(2.98783 0.00072622 0.000187701)
(2.97362 0.0018078 0.000348516)
(2.9156 0.00351595 0.00148214)
(2.77168 0.00886037 0.00319468)
(2.36403 0.0185245 0.00957864)
(1.17987 0.0542647 0.0154129)
(0.434782 0.155237 0.00529398)
(0.440506 0.135661 -0.00111475)
(0.505433 0.104079 -0.00120598)
(0.533768 0.0974224 -0.000838707)
(0.509495 0.0978525 -0.000676905)
(0.462804 0.103306 -0.000682888)
(0.422379 0.111117 -0.000788186)
(0.391362 0.11858 -0.000915486)
(0.360685 0.123819 -0.0010272)
(0.330555 0.126883 -0.0011246)
(0.302238 0.129051 -0.00122512)
(0.274348 0.131328 -0.00131372)
(0.247675 0.133997 -0.00138777)
(0.222252 0.137184 -0.0014725)
(0.196352 0.140859 -0.00159824)
(0.166086 0.144154 -0.00177499)
(0.134711 0.145775 -0.00193376)
(0.101508 0.14583 -0.00208812)
(0.0762732 0.145091 -0.00220841)
(0.0415601 0.146414 -0.00238101)
(0.00929575 0.14406 -0.00237879)
(3 -2.43998e-08 0.000444287)
(3 9.94083e-08 0.000422033)
(3 2.89469e-07 0.000399888)
(3 5.80391e-07 0.000377855)
(3 7.81088e-07 0.000355935)
(3 9.54541e-07 0.000334129)
(3 1.09718e-06 0.000312442)
(3 1.20667e-06 0.000290873)
(3 1.28241e-06 0.000269424)
(3 1.32513e-06 0.000248098)
(3 1.33507e-06 0.000226895)
(3 1.3119e-06 0.000205818)
(3 1.25198e-06 0.000184868)
(3 1.14823e-06 0.000164047)
(3 9.92833e-07 0.000143357)
(3 6.50478e-07 0.000122868)
(2.99999 7.30333e-07 0.000102629)
(2.99996 1.8507e-06 8.28503e-05)
(2.99989 8.01915e-06 6.36241e-05)
(2.99972 2.13625e-05 4.65422e-05)
(2.99938 6.64049e-05 3.15945e-05)
(2.99828 0.000151394 3.17755e-05)
(2.9963 0.000386508 3.91418e-05)
(2.98871 0.000853232 0.000164409)
(2.97577 0.00203903 0.000298503)
(2.92128 0.00410962 0.00132097)
(2.78698 0.0111916 0.00286294)
(2.40363 0.0242335 0.00852853)
(1.25281 0.0717982 0.0147072)
(0.475891 0.198683 0.00533201)
(0.420865 0.152033 -0.000767262)
(0.503683 0.121449 -0.001137)
(0.542738 0.115739 -0.00083275)
(0.518333 0.118068 -0.00063388)
(0.470374 0.126173 -0.000635414)
(0.428841 0.136223 -0.000736628)
(0.396953 0.144898 -0.000859471)
(0.36552 0.15066 -0.00096571)
(0.334822 0.154003 -0.00105736)
(0.306192 0.156419 -0.00115262)
(0.278051 0.159012 -0.00123744)
(0.251001 0.16213 -0.00130823)
(0.225287 0.165752 -0.00138717)
(0.199179 0.16995 -0.00150345)
(0.16863 0.173831 -0.00167044)
(0.136887 0.175688 -0.00182049)
(0.103179 0.175661 -0.00196456)
(0.0772421 0.174729 -0.00207807)
(0.0421821 0.176051 -0.00223987)
(0.00959392 0.172762 -0.00223934)
(3 -1.72325e-08 0.000419098)
(3 8.73927e-08 0.000398069)
(3 2.8937e-07 0.000377148)
(3 5.51331e-07 0.000356336)
(3 8.21588e-07 0.000335634)
(3 1.00767e-06 0.000315044)
(3 1.16418e-06 0.000294569)
(3 1.28728e-06 0.00027421)
(3 1.37434e-06 0.000253967)
(3 1.4232e-06 0.000233844)
(3 1.431e-06 0.000213841)
(3 1.39279e-06 0.00019396)
(3 1.30083e-06 0.000174203)
(3 1.14409e-06 0.000154571)
(3 9.09364e-07 0.000135064)
(3 4.66212e-07 0.000115745)
(2.99999 3.36931e-07 9.66526e-05)
(2.99996 1.05354e-06 7.79606e-05)
(2.9999 6.02402e-06 5.97405e-05)
(2.99975 1.67323e-05 4.3322e-05)
(2.99944 5.7016e-05 2.85924e-05)
(2.99844 0.000133168 2.7335e-05)
(2.99672 0.000365825 3.06691e-05)
(2.98965 0.000883668 0.000140996)
(2.97812 0.00208918 0.000249546)
(2.92762 0.00471787 0.00115262)
(2.80468 0.0125911 0.00251584)
(2.44973 0.0309678 0.00746557)
(1.34439 0.0884458 0.0138253)
(0.526271 0.244435 0.00550837)
(0.39762 0.169935 -0.000364885)
(0.506485 0.137027 -0.00114594)
(0.554669 0.133707 -0.000810088)
(0.529229 0.139178 -0.000586085)
(0.479632 0.150947 -0.000585548)
(0.436612 0.163366 -0.000684164)
(0.403648 0.173004 -0.000803141)
(0.371461 0.179043 -0.000903609)
(0.340263 0.18252 -0.000988529)
(0.311354 0.185155 -0.00107823)
(0.283003 0.188076 -0.0011589)
(0.25557 0.191644 -0.00122637)
(0.229499 0.195765 -0.00129954)
(0.203211 0.200505 -0.00140611)
(0.172335 0.205071 -0.00156166)
(0.140016 0.207306 -0.00170256)
(0.105643 0.207236 -0.00183905)
(0.0787867 0.206011 -0.00194624)
(0.0432126 0.207255 -0.00209641)
(0.00998572 0.203055 -0.00209659)
(3 -1.15187e-08 0.000392877)
(3 7.59005e-08 0.000373128)
(3 2.88085e-07 0.000353484)
(3 5.27044e-07 0.000333946)
(3 8.78551e-07 0.000314516)
(3 1.09129e-06 0.000295194)
(3 1.27841e-06 0.000275984)
(3 1.43238e-06 0.000256886)
(3 1.547e-06 0.000237901)
(3 1.61579e-06 0.000219031)
(3 1.63251e-06 0.000200277)
(3 1.5884e-06 0.000181641)
(3 1.47527e-06 0.000163124)
(3 1.28754e-06 0.000144728)
(3 9.31093e-07 0.000126453)
(3 3.75894e-07 0.000108352)
(2.99999 3.48044e-08 9.04571e-05)
(2.99996 3.7115e-07 7.29122e-05)
(2.99991 3.89644e-06 5.57739e-05)
(2.99977 1.12469e-05 4.01162e-05)
(2.9995 4.18594e-05 2.57036e-05)
(2.99859 9.0117e-05 2.31211e-05)
(2.99713 0.000315799 2.1194e-05)
(2.99058 0.000686348 0.00011941)
(2.98071 0.00211336 0.000197693)
(2.93431 0.00475186 0.00098501)
(2.82546 0.0133921 0.00214787)
(2.50202 0.0382529 0.0064182)
(1.45758 0.103184 0.0127243)
(0.592041 0.290395 0.00581922)
(0.373813 0.188912 0.000117636)
(0.513632 0.153041 -0.00119167)
(0.569803 0.153835 -0.000797319)
(0.541913 0.163006 -0.000541965)
(0.490362 0.178677 -0.000539234)
(0.445399 0.193042 -0.000633375)
(0.411194 0.203106 -0.000747131)
(0.378346 0.209021 -0.000840754)
(0.346784 0.212471 -0.000918588)
(0.317682 0.215289 -0.00100191)
(0.289173 0.218577 -0.00107816)
(0.261388 0.222641 -0.00114254)
(0.234903 0.227332 -0.00120952)
(0.208416 0.232614 -0.00130545)
(0.177265 0.238029 -0.00145025)
(0.144318 0.240768 -0.0015804)
(0.109119 0.240779 -0.0017081)
(0.0810203 0.239241 -0.00180917)
(0.0446151 0.240292 -0.00194679)
(0.0104028 0.235178 -0.00194935)
(3 -1.07185e-08 0.000365576)
(3 6.88679e-08 0.000347165)
(3 2.67862e-07 0.000328856)
(3 4.92244e-07 0.000310649)
(3 8.28753e-07 0.000292546)
(3 1.05476e-06 0.000274548)
(3 1.25151e-06 0.000256656)
(3 1.41877e-06 0.000238872)
(3 1.54857e-06 0.000221198)
(3 1.63379e-06 0.000203634)
(3 1.67027e-06 0.000186181)
(3 1.65339e-06 0.000168841)
(3 1.58242e-06 0.000151615)
(3 1.4589e-06 0.000134506)
(3 1.14132e-06 0.000117512)
(3 5.16199e-07 0.000100677)
(2.99999 -3.65422e-08 8.40315e-05)
(2.99997 -8.1608e-08 6.76947e-05)
(2.99992 2.23516e-06 5.17163e-05)
(2.99979 6.92337e-06 3.69685e-05)
(2.99954 2.81799e-05 2.32401e-05)
(2.99872 4.80933e-05 1.92367e-05)
(2.99743 0.00025852 1.45431e-05)
(2.99158 0.000369157 9.58383e-05)
(2.98323 0.00206119 0.000146707)
(2.94112 0.0038446 0.000831492)
(2.8498 0.0147548 0.00171798)
(2.5587 0.0412067 0.00544757)
(1.60023 0.117886 0.0113873)
(0.680896 0.331728 0.00625782)
(0.355491 0.209062 0.000682905)
(0.524944 0.173596 -0.00124966)
(0.586623 0.179301 -0.000803339)
(0.554936 0.191601 -0.00051257)
(0.501692 0.210196 -0.000504159)
(0.454647 0.225503 -0.000584903)
(0.419269 0.235178 -0.000691244)
(0.386049 0.240505 -0.000776784)
(0.3544 0.243802 -0.000847159)
(0.325223 0.246798 -0.000924085)
(0.296631 0.250521 -0.00099522)
(0.26852 0.25517 -0.0010557)
(0.241508 0.260527 -0.00111672)
(0.2149 0.266465 -0.00120287)
(0.183534 0.272942 -0.00133534)
(0.149705 0.276446 -0.00145563)
(0.113558 0.276706 -0.00157519)
(0.0839998 0.274912 -0.001669)
(0.0464988 0.27584 -0.00179734)
(0.0109477 0.269755 -0.00180011)
(3 -1.38201e-08 0.000337147)
(3 6.546e-08 0.000320135)
(3 2.39676e-07 0.00030322)
(3 4.65835e-07 0.000286403)
(3 7.58506e-07 0.000269686)
(3 1.05121e-06 0.000253069)
(3 1.25653e-06 0.000236553)
(3 1.438e-06 0.000220141)
(3 1.59022e-06 0.000203833)
(3 1.70876e-06 0.000187629)
(3 1.79208e-06 0.000171531)
(3 1.84032e-06 0.000155541)
(3 1.85746e-06 0.000139658)
(3 1.8425e-06 0.000123887)
(3 1.74436e-06 0.000108226)
(3 1.23925e-06 9.27119e-05)
(2.99999 7.31274e-07 7.73687e-05)
(2.99997 6.76071e-07 6.23001e-05)
(2.99992 2.70592e-06 4.75524e-05)
(2.9998 6.94518e-06 3.38429e-05)
(2.99957 2.36629e-05 2.10843e-05)
(2.99884 3.4512e-05 1.58018e-05)
(2.99762 0.000205003 1.0932e-05)
(2.99252 0.000152048 7.3117e-05)
(2.98529 0.00188312 0.000107541)
(2.9488 0.00240544 0.000661325)
(2.87391 0.0154968 0.00130803)
(2.62132 0.0371049 0.00444192)
(1.78408 0.127289 0.00982405)
(0.797019 0.355446 0.00685689)
(0.348612 0.230948 0.00128624)
(0.537528 0.20374 -0.00130092)
(0.60089 0.212289 -0.000820974)
(0.565351 0.226251 -0.00049455)
(0.51215 0.245391 -0.000479586)
(0.463773 0.260305 -0.000539119)
(0.427625 0.268841 -0.000633638)
(0.394551 0.273277 -0.000710877)
(0.363201 0.276367 -0.000774469)
(0.334105 0.279615 -0.000844189)
(0.305512 0.283893 -0.000910232)
(0.277135 0.289277 -0.00096682)
(0.249556 0.295483 -0.00102232)
(0.222828 0.302262 -0.00109743)
(0.191393 0.309821 -0.00121548)
(0.156537 0.314445 -0.00132605)
(0.119177 0.315312 -0.00143601)
(0.0879764 0.313445 -0.00152365)
(0.0490368 0.314225 -0.00163883)
(0.0115326 0.30718 -0.00164477)
(3 -1.64297e-08 0.000307539)
(3 6.20166e-08 0.00029199)
(3 2.10595e-07 0.000276532)
(3 4.32521e-07 0.000261168)
(3 6.79408e-07 0.000245898)
(3 9.9228e-07 0.000230723)
(3 1.2109e-06 0.000215643)
(3 1.39014e-06 0.000200661)
(3 1.5467e-06 0.000185776)
(3 1.67904e-06 0.000170991)
(3 1.78592e-06 0.000156305)
(3 1.86749e-06 0.000141719)
(3 1.92582e-06 0.000127236)
(3 1.95534e-06 0.000112856)
(3 1.98302e-06 9.85812e-05)
(3 1.68424e-06 8.44403e-05)
(2.99999 1.49787e-06 7.04518e-05)
(2.99997 1.96524e-06 5.67063e-05)
(2.99993 4.84524e-06 4.32456e-05)
(2.99981 1.10144e-05 3.0674e-05)
(2.99959 2.97712e-05 1.90159e-05)
(2.99894 5.23001e-05 1.30862e-05)
(2.99775 0.000187427 9.58276e-06)
(2.99342 0.000181265 5.19343e-05)
(2.98667 0.0015895 8.41709e-05)
(2.95637 0.00162983 0.000487907)
(2.89504 0.012782 0.000964763)
(2.68672 0.0287021 0.00336512)
(2.00189 0.106465 0.00782389)
(0.939794 0.318684 0.0076779)
(0.353871 0.246137 0.00191848)
(0.543345 0.243615 -0.00126567)
(0.605096 0.251823 -0.000812173)
(0.570051 0.266114 -0.000481077)
(0.520311 0.282937 -0.000458407)
(0.472677 0.296645 -0.000493598)
(0.436494 0.303435 -0.00057383)
(0.404108 0.306968 -0.000643169)
(0.373424 0.309978 -0.000700173)
(0.344585 0.313667 -0.000762024)
(0.316101 0.318721 -0.000822692)
(0.287527 0.325093 -0.000875657)
(0.25932 0.332397 -0.000925683)
(0.232294 0.340273 -0.000990174)
(0.200827 0.349051 -0.0010931)
(0.164984 0.355091 -0.00119484)
(0.126227 0.356958 -0.00129374)
(0.0929602 0.355445 -0.00137325)
(0.0521888 0.356371 -0.00148245)
(0.0123876 0.348365 -0.00148786)
(3 -1.40721e-08 0.000276698)
(3 5.33282e-08 0.000262678)
(3 1.90066e-07 0.000248745)
(3 3.82661e-07 0.000234899)
(3 6.16186e-07 0.00022114)
(3 8.77219e-07 0.000207471)
(3 1.1394e-06 0.00019389)
(3 1.33342e-06 0.0001804)
(3 1.4997e-06 0.000167)
(3 1.64501e-06 0.000153693)
(3 1.76879e-06 0.000140478)
(3 1.87135e-06 0.000127356)
(3 1.95461e-06 0.000114328)
(3 2.01297e-06 0.000101396)
(3 2.0933e-06 8.85632e-05)
(3 1.9544e-06 7.58502e-05)
(2.99999 2.12902e-06 6.32708e-05)
(2.99997 3.26793e-06 5.0902e-05)
(2.99993 7.62078e-06 3.87778e-05)
(2.99983 1.69503e-05 2.73937e-05)
(2.99963 4.24314e-05 1.67848e-05)
(2.99904 8.43309e-05 1.07486e-05)
(2.99793 0.000225426 7.26279e-06)
(2.99415 0.000366543 3.76606e-05)
(2.98791 0.00141909 6.65666e-05)
(2.96191 0.00181256 0.000360098)
(2.91058 0.00930703 0.000709472)
(2.73421 0.0211971 0.0024675)
(2.17535 0.0652425 0.00566703)
(1.08764 0.221719 0.00852195)
(0.380985 0.266987 0.00242564)
(0.541427 0.292095 -0.00107733)
(0.59609 0.293399 -0.000748644)
(0.568561 0.307192 -0.000464798)
(0.526296 0.321266 -0.000429939)
(0.482146 0.332924 -0.000449702)
(0.446339 0.337815 -0.000511599)
(0.415273 0.340835 -0.000574002)
(0.385524 0.344269 -0.000624246)
(0.357081 0.348823 -0.000677852)
(0.328829 0.354984 -0.00073262)
(0.300163 0.362675 -0.000781454)
(0.271308 0.371392 -0.000826262)
(0.243762 0.38069 -0.000880679)
(0.212174 0.391013 -0.000966568)
(0.175356 0.399073 -0.00105952)
(0.135098 0.402601 -0.00114958)
(0.0997034 0.401797 -0.00122049)
(0.0565296 0.40303 -0.00131392)
(0.0133924 0.394268 -0.00132488)
(3 -1.20532e-08 0.000244567)
(3 4.52406e-08 0.000232148)
(3 1.67428e-07 0.000219809)
(3 3.34316e-07 0.00020755)
(3 5.44096e-07 0.000195371)
(3 7.72302e-07 0.000183273)
(3 1.02631e-06 0.000171257)
(3 1.24954e-06 0.000159324)
(3 1.42133e-06 0.000147474)
(3 1.56454e-06 0.000135707)
(3 1.68973e-06 0.000124025)
(3 1.7968e-06 0.000112428)
(3 1.88773e-06 0.000100916)
(3 1.95835e-06 8.94917e-05)
(3 2.07807e-06 7.8157e-05)
(3 2.07348e-06 6.6928e-05)
(2.99999 2.52088e-06 5.58136e-05)
(2.99998 4.08801e-06 4.48752e-05)
(2.99994 9.53402e-06 3.41385e-05)
(2.99986 2.12674e-05 2.3998e-05)
(2.99968 5.32013e-05 1.44874e-05)
(2.99916 0.000112091 8.59397e-06)
(2.99818 0.000278554 5.05942e-06)
(2.99488 0.00056118 2.6583e-05)
(2.98921 0.00147739 5.17438e-05)
(2.96645 0.00268662 0.000271761)
(2.92329 0.00783583 0.000519388)
(2.76359 0.0189157 0.00196725)
(2.28513 0.0452636 0.0043211)
(1.26815 0.150326 0.00812165)
(0.454077 0.30639 0.00256896)
(0.526203 0.336069 -0.000683207)
(0.572038 0.332811 -0.000651525)
(0.564962 0.347188 -0.000441524)
(0.532911 0.358963 -0.000389784)
(0.493255 0.367272 -0.000398057)
(0.458505 0.370926 -0.000445078)
(0.429093 0.374207 -0.000503164)
(0.400384 0.378841 -0.000547642)
(0.372301 0.384897 -0.000592998)
(0.344285 0.39264 -0.00064063)
(0.315597 0.402072 -0.000684675)
(0.286061 0.412632 -0.000724194)
(0.257755 0.423853 -0.000769371)
(0.226042 0.436078 -0.000840213)
(0.188452 0.446656 -0.00091979)
(0.146308 0.452757 -0.000998438)
(0.107936 0.453724 -0.0010631)
(0.0619627 0.45588 -0.00115058)
(0.0151548 0.44649 -0.00115885)
(3 -1.13208e-08 0.000211086)
(3 3.87689e-08 0.000200343)
(3 1.42037e-07 0.000189671)
(3 2.88512e-07 0.000179071)
(3 4.65361e-07 0.000168544)
(3 6.68464e-07 0.000158089)
(3 8.8232e-07 0.000147707)
(3 1.10669e-06 0.000137399)
(3 1.2977e-06 0.000127164)
(3 1.45378e-06 0.000117005)
(3 1.58003e-06 0.000106921)
(3 1.68092e-06 9.69118e-05)
(3 1.76973e-06 8.69792e-05)
(3 1.84386e-06 7.71234e-05)
(3 1.9829e-06 6.73477e-05)
(3 1.99594e-06 5.76626e-05)
(2.99999 2.36951e-06 4.80733e-05)
(2.99998 3.62265e-06 3.86245e-05)
(2.99995 8.37397e-06 2.93338e-05)
(2.99988 1.87059e-05 2.0487e-05)
(2.99974 4.90781e-05 1.20966e-05)
(2.9993 0.00011013 6.39973e-06)
(2.99851 0.000269981 2.05378e-06)
(2.99562 0.000639805 1.79535e-05)
(2.99106 0.00141109 3.15631e-05)
(2.97044 0.00311701 0.000209485)
(2.93533 0.00790333 0.000360405)
(2.7907 0.0178495 0.00155111)
(2.37797 0.0471362 0.00323381)
(1.45899 0.129831 0.00696236)
(0.550706 0.349301 0.00255441)
(0.498524 0.366491 -0.000224168)
(0.55003 0.369647 -0.000505329)
(0.566067 0.38439 -0.000414377)
(0.542838 0.393146 -0.000340298)
(0.507632 0.398817 -0.000340694)
(0.474562 0.402547 -0.000377484)
(0.446672 0.407033 -0.000429825)
(0.419026 0.413526 -0.000469456)
(0.391214 0.421689 -0.000507542)
(0.363338 0.431602 -0.000547369)
(0.334654 0.443361 -0.000585831)
(0.304541 0.456349 -0.000619987)
(0.27516 0.470126 -0.000656562)
(0.242924 0.484889 -0.000709701)
(0.20476 0.498939 -0.000780256)
(0.161117 0.50869 -0.000848863)
(0.119735 0.512372 -0.000902166)
(0.0696413 0.516422 -0.000973056)
(0.0173388 0.506884 -0.000987179)
(3 -9.61571e-09 0.000176192)
(3 3.13372e-08 0.000167204)
(3 1.18205e-07 0.000158277)
(3 2.39299e-07 0.000149413)
(3 3.89805e-07 0.000140612)
(3 5.58596e-07 0.000131873)
(3 7.44209e-07 0.000123198)
(3 9.33989e-07 0.000114586)
(3 1.1274e-06 0.000106039)
(3 1.29827e-06 9.75554e-05)
(3 1.44227e-06 8.91369e-05)
(3 1.55551e-06 8.07833e-05)
(3 1.65385e-06 7.24952e-05)
(3 1.73232e-06 6.4273e-05)
(3 1.80446e-06 5.61199e-05)
(3 1.78703e-06 4.80424e-05)
(2.99999 2.0195e-06 4.00429e-05)
(2.99998 2.91339e-06 3.21513e-05)
(2.99996 6.19712e-06 2.43778e-05)
(2.9999 1.30887e-05 1.69114e-05)
(2.99979 3.35508e-05 9.70851e-06)
(2.99942 6.83779e-05 4.57402e-06)
(2.99883 0.000198496 -5.69335e-07)
(2.99628 0.000380125 1.11655e-05)
(2.99268 0.00122226 1.66877e-05)
(2.97504 0.00227374 0.000145541)
(2.94618 0.0080739 0.000245421)
(2.81995 0.0160743 0.00113283)
(2.47116 0.0535185 0.00236013)
(1.64899 0.135283 0.00552582)
(0.662438 0.404798 0.00252187)
(0.472929 0.402401 0.000157315)
(0.544706 0.405597 -0.000432341)
(0.577489 0.416299 -0.000358661)
(0.560404 0.42184 -0.000282841)
(0.528212 0.427837 -0.000282)
(0.495824 0.433393 -0.000309751)
(0.46885 0.439959 -0.000353213)
(0.44228 0.448593 -0.000388543)
(0.41485 0.459195 -0.000420679)
(0.387115 0.471828 -0.000452762)
(0.358442 0.486564 -0.000485016)
(0.327824 0.502729 -0.000513268)
(0.297257 0.519823 -0.000541858)
(0.264529 0.537803 -0.000581403)
(0.226041 0.556693 -0.000635462)
(0.180215 0.571937 -0.000693179)
(0.134944 0.580374 -0.000740833)
(0.0803049 0.587663 -0.000801572)
(0.0213257 0.578869 -0.00081168)
(3 -8.19374e-09 0.000139818)
(3 2.45262e-08 0.000132668)
(3 9.36036e-08 0.000125569)
(3 1.91044e-07 0.000118521)
(3 3.12049e-07 0.000111525)
(3 4.49133e-07 0.000104581)
(3 6.00264e-07 9.76886e-05)
(3 7.57834e-07 9.08487e-05)
(3 9.20816e-07 8.40613e-05)
(3 1.08101e-06 7.73266e-05)
(3 1.23004e-06 7.06451e-05)
(3 1.36965e-06 6.40167e-05)
(3 1.47767e-06 5.74419e-05)
(3 1.5809e-06 5.09211e-05)
(3 1.5861e-06 4.44564e-05)
(3 1.61098e-06 3.80521e-05)
(2.99999 2.00219e-06 3.17097e-05)
(2.99998 3.23484e-06 2.54507e-05)
(2.99996 6.79342e-06 1.92831e-05)
(2.99991 1.40507e-05 1.33382e-05)
(2.99981 3.20112e-05 7.61306e-06)
(2.9995 5.83495e-05 3.13522e-06)
(2.99895 0.000174156 -8.98955e-07)
(2.99691 0.000224335 5.04106e-06)
(2.99388 0.00118593 7.61659e-06)
(2.97934 0.00144682 9.11108e-05)
(2.95693 0.00831657 0.000148258)
(2.85162 0.0141848 0.000758803)
(2.57687 0.0634842 0.00156389)
(1.88321 0.151881 0.00396078)
(0.809548 0.474692 0.00246775)
(0.465638 0.449631 0.000451261)
(0.55686 0.441908 -0.000366202)
(0.601399 0.444557 -0.000301314)
(0.587112 0.449373 -0.000227076)
(0.556148 0.456745 -0.000225305)
(0.522762 0.465318 -0.000243085)
(0.496078 0.474105 -0.000276686)
(0.470723 0.484621 -0.000305904)
(0.444137 0.497727 -0.000331562)
(0.416729 0.513532 -0.000356535)
(0.388198 0.531879 -0.000381341)
(0.357354 0.552011 -0.0004043)
(0.325497 0.573368 -0.000425904)
(0.292461 0.59606 -0.000453062)
(0.254458 0.621035 -0.000494797)
(0.207133 0.643958 -0.000538778)
(0.157596 0.659868 -0.000572899)
(0.0960218 0.673935 -0.000619642)
(0.0271776 0.66799 -0.000633621)
(3 -6.02576e-09 0.000101894)
(3 1.88865e-08 9.667e-05)
(3 7.1981e-08 9.14848e-05)
(3 1.48412e-07 8.63385e-05)
(3 2.43874e-07 8.12311e-05)
(3 3.55196e-07 7.6163e-05)
(3 4.7712e-07 7.11342e-05)
(3 6.10206e-07 6.61449e-05)
(3 7.45046e-07 6.11952e-05)
(3 8.89581e-07 5.62852e-05)
(3 1.02246e-06 5.14153e-05)
(3 1.16562e-06 4.65853e-05)
(3 1.27861e-06 4.17955e-05)
(3 1.39334e-06 3.70464e-05)
(3 1.42272e-06 3.2339e-05)
(3 1.52857e-06 2.76755e-05)
(3 2.10662e-06 2.30567e-05)
(2.99999 3.66393e-06 1.84961e-05)
(2.99997 8.09983e-06 1.39973e-05)
(2.99993 1.75336e-05 9.64747e-06)
(2.99985 4.00316e-05 5.44573e-06)
(2.9996 8.24033e-05 2.00542e-06)
(2.99912 0.000205612 -8.68445e-07)
(2.99757 0.000392054 1.01657e-06)
(2.99472 0.00120035 4.74752e-06)
(2.98421 0.00198984 4.49191e-05)
(2.96601 0.0077108 8.38869e-05)
(2.8901 0.0136321 0.000399578)
(2.69579 0.0575307 0.000857138)
(2.16549 0.138103 0.00242031)
(1.01485 0.454976 0.00234494)
(0.497704 0.472431 0.00063669)
(0.580873 0.477678 -0.000267662)
(0.626673 0.472981 -0.000234509)
(0.615211 0.479443 -0.000176109)
(0.587044 0.486949 -0.000168775)
(0.555442 0.498205 -0.000178645)
(0.529098 0.508896 -0.000199522)
(0.505186 0.521355 -0.000220784)
(0.479944 0.537243 -0.000239777)
(0.453172 0.556754 -0.000257707)
(0.425007 0.579097 -0.000274956)
(0.394544 0.60389 -0.000292487)
(0.36265 0.630861 -0.000308505)
(0.329962 0.659854 -0.000325451)
(0.292955 0.692307 -0.000350022)
(0.244485 0.72635 -0.000381396)
(0.190967 0.754589 -0.000407689)
(0.122059 0.781461 -0.000441616)
(0.0390943 0.784884 -0.000450374)
(3 -2.30095e-09 6.23455e-05)
(3 1.60456e-08 5.91407e-05)
(3 5.30615e-08 5.59606e-05)
(3 1.0674e-07 5.28051e-05)
(3 1.74262e-07 4.96745e-05)
(3 2.55302e-07 4.65688e-05)
(3 3.46047e-07 4.3488e-05)
(3 4.47879e-07 4.04323e-05)
(3 5.55795e-07 3.74016e-05)
(3 6.7163e-07 3.43961e-05)
(3 7.90875e-07 3.14159e-05)
(3 9.1104e-07 2.84609e-05)
(3 1.03192e-06 2.55313e-05)
(3 1.11197e-06 2.26274e-05)
(3 1.16518e-06 1.97494e-05)
(3 1.30698e-06 1.68983e-05)
(3 1.83609e-06 1.40744e-05)
(2.99999 3.13616e-06 1.12838e-05)
(2.99998 6.71774e-06 8.52686e-06)
(2.99995 1.39697e-05 5.84807e-06)
(2.99989 3.33019e-05 3.2371e-06)
(2.99971 6.98319e-05 9.80409e-07)
(2.99937 0.000183572 -1.06042e-06)
(2.99818 0.000396714 -6.80484e-07)
(2.99625 0.0010464 -2.47385e-07)
(2.98782 0.00229924 1.96948e-05)
(2.97459 0.00619222 3.5475e-05)
(2.91622 0.0130237 0.000183324)
(2.77476 0.0421041 0.000386626)
(2.3812 0.103942 0.00111579)
(1.25493 0.334763 0.00173639)
(0.583613 0.513963 0.000571213)
(0.591261 0.533117 -0.000109019)
(0.633379 0.518652 -0.000139463)