/*--------------------------------*- C++ -*----------------------------------*\
| =========                 |                                                 |
| \\      /  F ield         | OpenFOAM: The Open Source CFD Toolbox           |
|  \\    /   O peration     | Version:  2112                                  |
|   \\  /    A nd           | Website:  www.openfoam.com                      |
|    \\/     M anipulation  |                                                 |
\*---------------------------------------------------------------------------*/
FoamFile
{
    version     2.0;
    format      ascii;
    arch        "LSB;label=32;scalar=64";
    class       volScalarField;
    location    "2";
    object      T;
}
// * * * * * * * * * * * * * * * * * * * * * * * * * * * * * * * * * * * * * //

dimensions      [0 0 0 1 0 0 0];

internalField   nonuniform List<scalar> 
1000
(
3.71969e-185
4.2398e-185
6.16859e-185
1.18261e-184
2.74115e-184
6.94965e-184
1.8236e-183
4.84266e-183
1.29098e-182
3.44528e-182
9.19578e-182
2.45399e-181
6.54679e-181
1.74599e-180
4.65485e-180
1.24056e-179
3.30505e-179
8.80206e-179
2.34335e-178
6.23643e-178
1.65913e-177
4.41234e-177
1.17301e-176
3.1173e-176
8.28132e-176
2.19919e-175
5.83806e-175
1.54923e-174
4.10966e-174
1.08977e-173
2.88872e-173
7.6545e-173
2.02753e-172
5.36853e-172
1.42096e-171
3.75965e-171
9.94376e-171
2.629e-170
6.9481e-170
1.8356e-169
4.84757e-169
1.27969e-168
3.37693e-168
8.90784e-168
2.34885e-167
6.19115e-167
1.63124e-166
4.29634e-166
1.13112e-165
2.9768e-165
7.83106e-165
2.05931e-164
5.41315e-164
1.42235e-163
3.73588e-163
9.80856e-163
2.57421e-162
6.7532e-162
1.77092e-161
4.64211e-161
1.21634e-160
3.1858e-160
8.34075e-160
2.1828e-159
5.71012e-159
1.49313e-158
3.90275e-158
1.01968e-157
2.66304e-157
6.95199e-157
1.81409e-156
4.73181e-156
1.23371e-155
3.21525e-155
8.37592e-155
2.18105e-154
5.67692e-154
1.47698e-153
3.84104e-153
9.98475e-153
2.5944e-152
6.73827e-152
1.74932e-151
4.53944e-151
1.17746e-150
3.05278e-150
7.91141e-150
2.04937e-149
5.30632e-149
1.37332e-148
3.55269e-148
9.18644e-148
2.37433e-147
6.13392e-147
1.58394e-146
4.08828e-146
1.05474e-145
2.71987e-145
7.01056e-145
1.80616e-144
4.65112e-144
1.19718e-143
3.08003e-143
7.92041e-143
2.03581e-142
5.23023e-142
1.34307e-141
3.44723e-141
8.8437e-141
2.26772e-140
5.81216e-140
1.48893e-139
3.81244e-139
9.75706e-139
2.49588e-138
6.38139e-138
1.63077e-137
4.16541e-137
1.06342e-136
2.71356e-136
6.92081e-136
1.76423e-135
4.49508e-135
1.14472e-134
2.91368e-134
7.41248e-134
1.88479e-133
4.79007e-133
1.21674e-132
3.08907e-132
7.8385e-132
1.98799e-131
5.03926e-131
1.27671e-130
3.2329e-130
8.18203e-130
2.06966e-129
5.23249e-129
1.32216e-128
3.33909e-128
8.42827e-128
2.12625e-127
5.36111e-127
1.35101e-126
3.40272e-126
8.56554e-126
2.15499e-125
5.4187e-125
1.36177e-124
3.42035e-124
8.58609e-124
2.15415e-123
5.40147e-123
1.35364e-122
3.39036e-122
8.48676e-122
2.12319e-121
5.30869e-121
1.32658e-120
3.31307e-120
8.26938e-120
2.06282e-119
5.14277e-119
1.28137e-118
3.19079e-118
7.94077e-118
1.97501e-117
4.90924e-117
1.21955e-116
3.02777e-116
7.51247e-116
1.86285e-115
4.61646e-115
1.14333e-114
2.82989e-114
7.00001e-114
1.73044e-113
4.27509e-113
1.05551e-112
2.60438e-112
6.42204e-112
1.58258e-111
3.89748e-111
9.5923e-111
2.3593e-110
5.79915e-110
1.4245e-109
3.49688e-109
8.57856e-109
2.10311e-108
5.15259e-108
1.26154e-107
3.08665e-107
7.54719e-107
1.84413e-106
4.50304e-106
1.09882e-105
2.67949e-105
6.52953e-105
1.59006e-104
3.86944e-104
9.40983e-104
2.28673e-103
5.55321e-103
1.34763e-102
3.26807e-102
7.91963e-102
1.91783e-101
4.64096e-101
1.12226e-100
2.71186e-100
6.54829e-100
1.58006e-99
3.8098e-99
9.17939e-99
2.21007e-98
5.31713e-98
1.27828e-97
3.0708e-97
7.37144e-97
1.76818e-96
4.23811e-96
1.01505e-95
2.42926e-95
5.80933e-95
1.38818e-94
3.31457e-94
7.90811e-94
1.8853e-93
4.49103e-93
1.06898e-92
2.54244e-92
6.04207e-92
1.43474e-91
3.40419e-91
8.07056e-91
1.9118e-90
4.52508e-90
1.07018e-89
2.52888e-89
5.97092e-89
1.40862e-88
3.32037e-88
7.82013e-88
1.84025e-87
4.32684e-87
1.01647e-86
2.38589e-86
5.59542e-86
1.31111e-85
3.06953e-85
7.18e-85
1.67802e-84
3.91822e-84
9.14104e-84
2.13067e-83
4.96193e-83
1.1545e-82
2.68378e-82
6.23313e-82
1.44634e-81
3.35301e-81
7.76608e-81
1.79708e-80
4.15459e-80
9.59588e-80
2.21428e-79
5.10472e-79
1.17571e-78
2.70527e-78
6.21882e-78
1.42819e-77
3.27677e-77
7.51072e-77
1.71986e-76
3.93438e-76
8.9915e-76
2.05284e-75
4.68216e-75
1.06684e-74
2.42838e-74
5.52195e-74
1.25437e-73
2.84651e-73
6.45287e-73
1.46131e-72
3.30583e-72
7.47075e-72
1.68652e-71
3.80327e-71
8.56765e-71
1.92798e-70
4.33386e-70
9.73147e-70
2.18278e-69
4.89065e-69
1.09458e-68
2.44706e-68
5.46465e-68
1.21897e-67
2.71605e-67
6.04494e-67
1.34386e-66
2.98413e-66
6.61886e-66
1.46638e-65
3.24495e-65
7.17235e-65
1.58345e-64
3.49169e-64
7.69043e-64
1.69179e-63
3.71725e-63
8.1578e-63
1.78812e-62
3.91462e-62
8.55952e-62
1.86927e-61
4.07715e-61
8.88175e-61
1.93239e-60
4.19896e-60
9.1125e-60
1.97505e-59
4.27523e-59
9.2423e-59
1.99543e-58
4.30253e-58
9.26488e-58
1.99242e-57
4.27903e-57
9.17757e-57
1.96573e-56
4.20469e-56
8.98156e-56
1.9159e-55
4.08129e-55
8.68198e-55
1.84431e-54
3.91237e-54
8.28769e-54
1.75311e-53
3.70311e-53
7.81085e-53
1.64514e-52
3.45999e-52
7.26628e-52
1.52374e-51
3.19055e-51
6.67074e-51
1.39262e-50
2.90292e-50
6.04198e-50
1.25563e-49
2.60541e-49
5.39784e-49
1.11658e-48
2.30611e-48
4.7554e-48
9.79056e-48
2.0125e-47
4.13018e-47
8.46258e-47
1.73114e-46
3.53551e-46
7.20875e-46
1.46741e-45
2.98208e-45
6.0501e-45
1.22539e-44
2.47772e-44
5.00138e-44
1.00782e-43
2.02735e-43
4.07117e-43
8.16118e-43
1.63314e-42
3.26232e-42
6.50516e-42
1.29483e-41
2.57267e-41
5.10235e-41
1.0101e-40
1.99601e-40
3.93694e-40
7.75085e-40
1.5231e-39
2.98739e-39
5.84835e-39
1.14274e-38
2.2286e-38
4.33791e-38
8.42725e-38
1.63397e-37
3.16192e-37
6.10661e-37
1.17703e-36
2.26415e-36
4.34661e-36
8.32755e-36
1.59221e-35
3.03804e-35
5.78484e-35
1.09923e-34
2.08441e-34
3.94425e-34
7.44781e-34
1.40337e-33
2.63867e-33
4.95071e-33
9.2685e-33
1.73144e-32
3.22742e-32
6.0027e-32
1.11398e-31
2.06272e-31
3.81093e-31
7.02494e-31
1.29202e-30
2.37087e-30
4.34059e-30
7.92847e-30
1.44485e-29
2.62689e-29
4.76478e-29
8.62223e-29
1.55656e-28
2.80334e-28
5.03668e-28
9.02745e-28
1.61411e-27
2.87899e-27
5.12251e-27
9.09191e-27
1.60972e-26
2.84292e-26
5.00829e-26
8.80079e-26
1.5426e-25
2.697e-25
4.70324e-25
8.18083e-25
1.4193e-24
2.45599e-24
4.2388e-24
7.29661e-24
1.25272e-23
2.14506e-23
3.66327e-23
6.23932e-23
1.05984e-22
1.79544e-22
3.03336e-22
5.11089e-22
8.5878e-22
1.43905e-21
2.40475e-21
4.0074e-21
6.65961e-21
1.10363e-20
1.8238e-20
3.00546e-20
4.93876e-20
8.0927e-20
1.32231e-19
2.15443e-19
3.50014e-19
5.67008e-19
9.15882e-19
1.47514e-18
2.36898e-18
3.79337e-18
6.05647e-18
9.64138e-18
1.53032e-17
2.42182e-17
3.82135e-17
6.01178e-17
9.4297e-17
1.47468e-16
2.29931e-16
3.57436e-16
5.53979e-16
8.56014e-16
1.31874e-15
2.02546e-15
3.10152e-15
4.73486e-15
7.20644e-15
1.09348e-14
1.65417e-14
2.49472e-14
3.7509e-14
5.62239e-14
8.40186e-14
1.25169e-13
1.85904e-13
2.7526e-13
4.06315e-13
5.97925e-13
8.7719e-13
1.28293e-12
1.87057e-12
2.719e-12
3.94007e-12
5.69195e-12
8.19748e-12
1.17696e-11
1.68463e-11
2.40387e-11
3.41965e-11
4.84971e-11
6.85671e-11
9.66456e-11
1.35805e-10
1.90247e-10
2.657e-10
3.69945e-10
5.13518e-10
7.1064e-10
9.80441e-10
1.34857e-09
1.8493e-09
2.52827e-09
3.4461e-09
4.68297e-09
6.34465e-09
8.57014e-09
1.15416e-08
1.54969e-08
2.07457e-08
2.76898e-08
3.68486e-08
4.8892e-08
6.46802e-08
8.53154e-08
1.12204e-07
1.47136e-07
1.92382e-07
2.50811e-07
3.2604e-07
4.22611e-07
5.46213e-07
7.03945e-07
9.04638e-07
1.15925e-06
1.48131e-06
1.88752e-06
2.39836e-06
3.03894e-06
3.83989e-06
4.83849e-06
6.07996e-06
7.61897e-06
9.52143e-06
1.18665e-05
1.47492e-05
1.82826e-05
2.26016e-05
2.78663e-05
3.42661e-05
4.20241e-05
5.14029e-05
6.27103e-05
7.63058e-05
9.26082e-05
0.000112104
0.000135356
0.000163015
0.000195827
0.000234652
0.000280469
0.000334398
0.000397708
0.00047184
0.000558421
0.000659281
0.000776477
0.000912308
0.00106934
0.00125043
0.00145875
0.00169778
0.00197138
0.00228378
0.00263961
0.00304394
0.00350224
0.00402049
0.00460512
0.00526307
0.00600179
0.00682923
0.00775388
0.00878478
0.00993146
0.011204
0.012613
0.0141695
0.0158851
0.0177719
0.0198421
0.0221087
0.0245848
0.0272838
0.0302194
0.0334053
0.0368554
0.0405837
0.044604
0.04893
0.053575
0.0585521
0.0638741
0.069553
0.0756002
0.0820265
0.0888418
0.0960549
0.103674
0.111705
0.120154
0.129026
0.138322
0.148045
0.158193
0.168766
0.17976
0.19117
0.20299
0.21521
0.22782
0.24081
0.254166
0.267872
0.281912
0.296269
0.310922
0.325851
0.341035
0.356449
0.372071
0.387874
0.403833
0.419922
0.436114
0.452382
0.468697
0.485033
0.501362
0.517657
0.53389
0.550035
0.566067
0.581959
0.597687
0.613229
0.62856
0.64366
0.658509
0.673087
0.687377
0.701362
0.715027
0.728358
0.741343
0.753971
0.766232
0.778119
0.789624
0.800742
0.811469
0.8218
0.831735
0.841272
0.850411
0.859154
0.867501
0.875455
0.88302
0.890198
0.896995
0.903413
0.909458
0.915135
0.920448
0.925403
0.930003
0.934253
0.938158
0.941721
0.944946
0.947835
0.95039
0.952615
0.954508
0.956072
0.957306
0.958209
0.958778
0.959012
0.958908
0.958462
0.957669
0.956525
0.955023
0.953158
0.950924
0.948313
0.945319
0.941933
0.938149
0.93396
0.929358
0.924336
0.918887
0.913006
0.906687
0.899924
0.892714
0.885053
0.876939
0.868371
0.859349
0.849873
0.839947
0.829575
0.818761
0.807513
0.795839
0.78375
0.771256
0.75837
0.745108
0.731485
0.717519
0.703229
0.688635
0.673758
0.658621
0.643247
0.627662
0.611891
0.59596
0.579896
0.563727
0.547479
0.53118
0.514859
0.498543
0.482259
0.466035
0.449898
0.433873
0.417986
0.402261
0.386722
0.371392
0.356291
0.34144
0.326859
0.312564
0.298572
0.284898
0.271555
0.258555
0.245909
0.233625
0.221712
0.210175
0.199019
0.188247
0.177862
0.167865
0.158254
0.149028
0.140185
0.131721
0.123631
0.11591
0.10855
0.101546
0.0948886
0.0885698
0.0825806
0.0769117
0.0715531
0.0664947
0.0617261
0.0572367
0.0530158
0.0490526
0.0453361
0.0418557
0.0386006
0.03556
0.0327236
0.0300809
0.0276219
0.0253367
0.0232157
0.0212496
0.0194292
0.017746
0.0161914
0.0147574
0.0134362
0.0122205
0.0111032
0.0100775
0.00913701
0.00827573
0.00748789
0.00676808
0.00611119
0.0055124
0.00496722
0.00447141
0.00402101
0.00361233
0.00324193
0.00290659
0.00260334
0.00232941
0.00208223
0.00185945
0.00165886
0.00147847
0.0013164
0.00117096
0.00104058
0.000923825
0.00081938
0.000726047
0.000642731
0.000568434
0.00050225
0.000443353
0.000390995
0.000344498
0.000303247
0.000266687
0.000234318
0.000205689
0.000180391
0.00015806
0.000138368
0.000121019
0.00010575
9.2324e-05
8.05305e-05
7.01808e-05
6.11069e-05
5.31591e-05
4.62043e-05
4.01241e-05
3.48136e-05
3.01796e-05
2.61398e-05
2.26211e-05
1.95593e-05
1.68974e-05
1.45853e-05
1.25789e-05
1.08393e-05
9.33246e-06
8.02832e-06
6.90065e-06
5.92644e-06
5.08554e-06
4.36036e-06
3.73551e-06
3.19758e-06
2.73489e-06
2.33725e-06
1.9958e-06
1.70287e-06
1.45177e-06
1.2367e-06
1.05266e-06
8.95292e-07
7.60851e-07
6.46091e-07
5.4821e-07
4.64796e-07
3.93768e-07
3.33336e-07
2.81961e-07
2.38322e-07
2.01283e-07
1.69871e-07
1.43252e-07
1.20714e-07
1.01645e-07
8.55243e-08
7.19068e-08
6.04126e-08
5.07182e-08
4.25482e-08
3.5668e-08
2.98786e-08
2.50107e-08
2.09207e-08
1.74869e-08
1.46062e-08
1.21913e-08
1.01685e-08
8.47522e-09
7.05894e-09
5.8752e-09
4.88653e-09
4.06139e-09
3.37324e-09
2.79975e-09
2.32215e-09
1.9247e-09
1.59418e-09
1.31952e-09
1.09144e-09
9.02174e-10
7.45225e-10
6.15167e-10
5.07467e-10
4.18344e-10
3.44644e-10
2.8374e-10
2.33445e-10
1.9194e-10
1.57711e-10
1.29501e-10
1.06269e-10
8.71479e-11
7.14215e-11
5.84955e-11
4.78784e-11
3.91634e-11
3.20144e-11
2.61539e-11
2.13529e-11
1.74222e-11
1.42062e-11
1.15767e-11
9.42808e-12
7.6735e-12
6.24161e-12
5.07381e-12
4.122e-12
3.3467e-12
2.71559e-12
2.20216e-12
1.78474e-12
1.44557e-12
1.17016e-12
9.46661e-13
7.65397e-13
6.18476e-13
4.99464e-13
4.03118e-13
3.25167e-13
2.62138e-13
2.11204e-13
1.70068e-13
1.36866e-13
1.10083e-13
8.84909e-14
7.10934e-14
5.70841e-14
4.58095e-14
3.67412e-14
2.94515e-14
2.3595e-14
1.88926e-14
1.5119e-14
1.20925e-14
9.66654e-15
7.72303e-15
6.16691e-15
4.92167e-15
3.92574e-15
3.12966e-15
2.49367e-15
1.98586e-15
1.58062e-15
1.25741e-15
9.99755e-16
7.9448e-16
6.31021e-16
5.0093e-16
3.97451e-16
3.15184e-16
2.49817e-16
1.97904e-16
1.56699e-16
1.24012e-16
9.80997e-17
7.75821e-17
6.13817e-17
4.87052e-17
3.91078e-17
3.2776e-17
)
;

boundaryField
{
    sides
    {
        type            zeroGradient;
    }
    empty
    {
        type            empty;
    }
}


// ************************************************************************* //
