/*--------------------------------*- C++ -*----------------------------------*\
| =========                 |                                                 |
| \\      /  F ield         | OpenFOAM: The Open Source CFD Toolbox           |
|  \\    /   O peration     | Version:  2112                                  |
|   \\  /    A nd           | Website:  www.openfoam.com                      |
|    \\/     M anipulation  |                                                 |
\*---------------------------------------------------------------------------*/
FoamFile
{
    version     2.0;
    format      ascii;
    arch        "LSB;label=32;scalar=64";
    class       volScalarField;
    location    "3.5";
    object      p;
}
// * * * * * * * * * * * * * * * * * * * * * * * * * * * * * * * * * * * * * //

dimensions      [0 2 -2 0 0 0 0];

internalField   nonuniform List<scalar> 
8800
(
0.73829
0.691285
0.654075
0.626514
0.607054
0.593423
0.58379
0.577071
0.57271
0.570809
0.571616
0.575057
0.580745
0.588926
0.600457
0.616765
0.640024
0.672473
0.713472
0.772027
0.568582
0.577093
0.586626
0.591099
0.59095
0.587396
0.582386
0.577271
0.572957
0.570131
0.5696
0.571718
0.575584
0.580558
0.585828
0.590408
0.592517
0.590472
0.583437
0.572702
0.554602
0.56066
0.565475
0.568598
0.570162
0.570337
0.56925
0.567451
0.565664
0.564699
0.565268
0.567024
0.569145
0.570854
0.571467
0.570689
0.568385
0.564403
0.559088
0.555783
0.558347
0.559719
0.561741
0.563559
0.564941
0.56562
0.565394
0.564566
0.563598
0.56307
0.563535
0.564673
0.565869
0.566602
0.566529
0.565522
0.563979
0.562012
0.560242
0.559674
0.55494
0.555135
0.555526
0.556001
0.556476
0.556867
0.557102
0.557094
0.556901
0.556816
0.557182
0.55778
0.558193
0.558271
0.558068
0.557713
0.557281
0.55686
0.55658
0.556495
0.550635
0.550797
0.551065
0.551401
0.551751
0.552061
0.552282
0.552395
0.552448
0.552587
0.552934
0.553343
0.553626
0.553706
0.553599
0.553366
0.553076
0.552798
0.552599
0.552522
0.545598
0.545665
0.54578
0.54594
0.546141
0.546373
0.546613
0.546845
0.547079
0.547377
0.547764
0.548113
0.548322
0.54839
0.548355
0.548266
0.548164
0.548069
0.548002
0.547971
0.540367
0.540411
0.54049
0.540602
0.540752
0.540943
0.541177
0.541456
0.541792
0.542216
0.542681
0.54306
0.543306
0.543432
0.543474
0.543466
0.543433
0.543393
0.543359
0.543339
0.534989
0.535014
0.535071
0.53516
0.535291
0.535477
0.53573
0.536064
0.536498
0.537048
0.537629
0.538091
0.538402
0.538592
0.538695
0.538741
0.538755
0.53875
0.538739
0.538727
0.52946
0.52948
0.529527
0.52961
0.529742
0.52994
0.530228
0.530631
0.531174
0.531875
0.53261
0.533195
0.533602
0.533869
0.534032
0.534124
0.534171
0.53419
0.534193
0.534185
0.523757
0.523773
0.523825
0.523915
0.524063
0.524294
0.524638
0.525133
0.525813
0.526702
0.527633
0.528376
0.528912
0.529268
0.529496
0.529634
0.529712
0.529751
0.529764
0.529759
0.517867
0.517882
0.517938
0.518043
0.518219
0.518499
0.518923
0.519541
0.520399
0.521526
0.522713
0.523671
0.524352
0.524816
0.525118
0.525305
0.525414
0.525472
0.525495
0.525491
0.511733
0.511749
0.511816
0.511944
0.512162
0.512511
0.513043
0.513822
0.51491
0.516343
0.517854
0.519072
0.519946
0.520544
0.520936
0.521181
0.521326
0.521404
0.521437
0.521433
0.505295
0.505313
0.505397
0.505558
0.505832
0.506274
0.506949
0.507938
0.509322
0.511147
0.51307
0.51462
0.515735
0.516497
0.516998
0.517314
0.517501
0.517604
0.517648
0.517643
0.498468
0.49849
0.498597
0.498802
0.499152
0.499715
0.500578
0.501842
0.503609
0.505934
0.508381
0.510352
0.511767
0.512736
0.513374
0.513775
0.514014
0.514145
0.514203
0.514197
0.491142
0.491171
0.491308
0.491572
0.492023
0.492747
0.493855
0.495476
0.497736
0.500702
0.503814
0.506313
0.508106
0.509334
0.510141
0.51065
0.510953
0.511119
0.511191
0.511184
0.483168
0.483206
0.483385
0.483727
0.484312
0.485249
0.486679
0.488765
0.491662
0.495447
0.4994
0.502566
0.504832
0.506382
0.5074
0.508041
0.508424
0.508634
0.508725
0.508716
0.474351
0.474402
0.474636
0.475085
0.475848
0.477068
0.478922
0.481616
0.485337
0.490169
0.495186
0.499186
0.502043
0.503995
0.505277
0.506084
0.506565
0.506829
0.506944
0.506932
0.464422
0.464492
0.464804
0.465397
0.466403
0.468004
0.470424
0.473917
0.478707
0.484874
0.491228
0.49627
0.499864
0.502316
0.503926
0.50494
0.505544
0.505875
0.506018
0.506003
0.453012
0.453111
0.453533
0.454329
0.455671
0.457792
0.460977
0.465531
0.471709
0.479574
0.487599
0.493931
0.498436
0.501511
0.503531
0.504804
0.505562
0.505978
0.506158
0.506138
0.439599
0.439742
0.440325
0.441415
0.443236
0.446088
0.450323
0.4563
0.464286
0.474298
0.484388
0.492305
0.497933
0.50178
0.504314
0.505914
0.50687
0.507395
0.507621
0.507595
0.423416
0.423635
0.424464
0.425998
0.42853
0.43244
0.438151
0.446056
0.456397
0.469096
0.481703
0.491536
0.498537
0.503348
0.506534
0.508557
0.509771
0.510439
0.510726
0.510695
0.403302
0.40365
0.404879
0.407126
0.410774
0.416285
0.424124
0.434665
0.44805
0.464055
0.479661
0.491769
0.500431
0.506444
0.510476
0.513066
0.514635
0.515503
0.515877
0.51584
0.37738
0.377955
0.379904
0.38342
0.388962
0.397006
0.407974
0.422109
0.439361
0.459323
0.478389
0.493117
0.503749
0.511264
0.516422
0.519818
0.52192
0.523093
0.523598
0.523557
0.342184
0.343223
0.34682
0.352966
0.361965
0.37413
0.389683
0.408609
0.430606
0.45511
0.477998
0.495623
0.508517
0.517875
0.524546
0.52915
0.532147
0.53389
0.534651
0.534608
0.290222
0.293403
0.30175
0.31371
0.329001
0.347658
0.369632
0.394619
0.422135
0.451581
0.478462
0.499119
0.514481
0.526
0.534634
0.541036
0.545642
0.548722
0.550307
0.550322
0.207934
0.224598
0.244556
0.267035
0.291807
0.31915
0.348909
0.380705
0.414096
0.448632
0.47959
0.50345
0.521594
0.53574
0.546997
0.556104
0.563579
0.569661
0.57465
0.576604
0.121188
0.15596
0.188156
0.2215
0.256164
0.292176
0.329448
0.367753
0.406773
0.446283
0.481425
0.508727
0.529921
0.546976
0.561086
0.573054
0.583382
0.592365
0.602122
0.605225
0.0643046
0.100942
0.14091
0.182444
0.224992
0.268409
0.312366
0.356466
0.400327
0.443789
0.48188
0.511345
0.534279
0.552778
0.568023
0.580768
0.591539
0.600711
0.609331
0.612019
0.0237843
0.0627518
0.106434
0.152463
0.20019
0.248964
0.298047
0.346716
0.394326
0.440591
0.480422
0.510886
0.534426
0.553269
0.568654
0.581372
0.591995
0.600981
0.609201
0.6119
-0.00516998
0.0346218
0.080761
0.12996
0.181311
0.233984
0.286961
0.339105
0.389385
0.437259
0.477608
0.508031
0.531377
0.549986
0.565129
0.577614
0.587914
0.596653
0.604427
0.607045
-0.0278636
0.0129233
0.0608937
0.112524
0.166781
0.222597
0.278627
0.333364
0.38537
0.433759
0.473533
0.503075
0.525657
0.54367
0.558346
0.570447
0.580528
0.588976
0.596361
0.598936
-0.0460922
-0.00435504
0.0452794
0.0989776
0.155637
0.214045
0.27257
0.329298
0.382289
0.430233
0.468418
0.496328
0.517679
0.534847
0.548946
0.560628
0.570404
0.578608
0.585666
0.588221
-0.0612805
-0.0185539
0.0326411
0.0882412
0.147091
0.207796
0.268472
0.326771
0.380166
0.426814
0.462428
0.487961
0.507688
0.523834
0.537298
0.548577
0.558058
0.566067
0.572871
0.575432
-0.0742764
-0.030586
0.0221437
0.0795679
0.140471
0.203341
0.266008
0.325649
0.379061
0.423648
0.455674
0.478049
0.495766
0.510795
0.523661
0.534603
0.543871
0.551726
0.558317
0.560873
-0.0860518
-0.0410021
0.0130853
0.0723361
0.135272
0.20028
0.264907
0.325828
0.379022
0.4209
0.448234
0.466553
0.481864
0.495772
0.508204
0.518997
0.528191
0.535992
0.542463
0.545065
-0.0967032
-0.0508126
0.00499507
0.0660623
0.131054
0.198251
0.264916
0.327202
0.380131
0.418762
0.440187
0.453313
0.465768
0.478679
0.49105
0.50206
0.511485
0.519416
0.525867
0.528556
-0.107088
-0.0599546
-0.00256646
0.060349
0.127475
0.196932
0.26579
0.329643
0.382447
0.417462
0.43162
0.438074
0.447045
0.459243
0.472238
0.484164
0.49431
0.502683
0.509329
0.512208
-0.117296
-0.0688985
-0.00991589
0.0548887
0.1242
0.196054
0.267292
0.333027
0.386031
0.417278
0.422682
0.420453
0.424978
0.436928
0.451718
0.46573
0.477471
0.486829
0.493924
0.49708
-0.127675
-0.0778508
-0.0172754
0.0494498
0.120991
0.195341
0.269176
0.33716
0.390879
0.418516
0.413641
0.399984
0.398447
0.410773
0.429274
0.447251
0.462029
0.473249
0.48129
0.484842
-0.138401
-0.0870447
-0.0248333
0.043851
0.117644
0.19458
0.271209
0.34185
0.396952
0.421484
0.404924
0.37619
0.365735
0.379329
0.404356
0.42935
0.449482
0.463945
0.473588
0.477675
-0.149631
-0.0966076
-0.0327216
0.0379349
0.114021
0.193574
0.273169
0.34686
0.404122
0.426467
0.397157
0.348593
0.324466
0.340138
0.375937
0.41232
0.441545
0.461339
0.473609
0.478404
-0.161123
-0.106553
-0.0409648
0.0316311
0.109991
0.192188
0.274855
0.351947
0.412188
0.433676
0.391166
0.316954
0.272988
0.290392
0.341989
0.396967
0.440316
0.468585
0.485473
0.491715
-0.172915
-0.116861
-0.0495765
0.0249356
0.105488
0.190297
0.276105
0.35688
0.420892
0.443181
0.387923
0.281737
0.206211
0.221858
0.298888
0.384911
0.4499
0.490468
0.512282
0.519267
-0.185269
-0.127501
-0.0585436
0.0178476
0.100527
0.187833
0.276748
0.361408
0.429921
0.4549
0.388508
0.242121
0.118716
0.125343
0.241514
0.377742
0.474056
0.531865
0.559131
0.564255
-0.197811
-0.138419
-0.0677519
0.0104189
0.0950824
0.184811
0.276738
0.365326
0.438936
0.468572
0.394018
0.200724
0.00225911
-0.0184043
0.163531
0.375117
0.521662
0.602858
0.632716
0.623565
-0.210781
-0.149531
-0.0771161
0.00269806
0.0891727
0.181189
0.276032
0.368551
0.447689
0.484009
0.40557
0.159293
-0.160352
-0.250893
0.0344186
0.369182
0.575654
0.691788
0.734485
0.716538
-0.22403
-0.160683
-0.0865724
-0.00540864
0.082684
0.176859
0.274477
0.370978
0.456116
0.501431
0.425185
0.117829
-0.417629
-0.718703
-0.229701
0.334047
0.624676
0.740597
0.741657
0.670909
-0.237128
-0.171425
-0.0958369
-0.0137598
0.0757908
0.171986
0.272056
0.372455
0.463738
0.519759
0.453603
0.0949811
-0.803695
-1.58488
-0.773148
0.162402
0.535869
0.601069
0.500705
0.421265
-0.249256
-0.180924
-0.104229
-0.0217112
0.0691554
0.167029
0.269014
0.373041
0.470364
0.538148
0.489984
0.109473
-1.16359
-2.62123
-1.51092
-0.296381
0.107364
0.203875
0.154611
0.119618
-0.339408
-0.186919
-0.113049
-0.0302558
0.0615038
0.160784
0.265355
0.372536
0.475483
0.556145
0.536212
0.182241
-1.20657
-2.92064
-1.92119
-0.834764
-0.445816
-0.237519
-0.230303
-0.215118
-0.213284
-0.194675
-0.126936
-0.0435082
0.0496244
0.15107
0.257851
0.369189
0.479609
0.575683
0.592304
0.315839
-0.869488
-2.05243
-1.59563
-1.11107
-0.851637
-0.720741
-0.690978
-0.541973
-0.263371
-0.21069
-0.139433
-0.0552658
0.0390396
0.141732
0.250777
0.364754
0.47961
0.584831
0.627499
0.438358
-0.365089
-1.16006
-1.15343
-1.05125
-0.998088
-0.98179
-1.0001
-0.849461
-0.292444
-0.23194
-0.155853
-0.0697375
0.0261683
0.130337
0.241515
0.35776
0.475627
0.587576
0.648647
0.536726
0.0419715
-0.51445
-0.781193
-0.942309
-1.08816
-1.20339
-1.31738
-1.20674
-0.32203
-0.254248
-0.173973
-0.0851555
0.0126343
0.118476
0.231451
0.349241
0.469326
0.586526
0.661465
0.603949
0.293135
-0.138835
-0.510089
-0.861152
-1.1836
-1.4618
-1.74097
-1.70719
-0.349736
-0.277446
-0.193569
-0.101933
-0.00208355
0.10559
0.219842
0.338961
0.461611
0.581388
0.661639
0.635317
0.422002
0.0518956
-0.366709
-0.822771
-1.28657
-1.69219
-2.14217
-2.56083
-0.376387
-0.301605
-0.214809
-0.120521
-0.0183998
0.0909715
0.206637
0.327491
0.450429
0.570364
0.654773
0.645498
0.484578
0.15188
-0.269884
-0.781662
-1.36226
-1.89825
-2.12597
-2.37397
-0.40352
-0.327031
-0.237899
-0.141118
-0.0369169
0.0742523
0.191487
0.313004
0.437024
0.557763
0.640952
0.638529
0.5063
0.213216
-0.190823
-0.720893
-1.35405
-1.94252
-2.05738
-2.08564
-0.431329
-0.353811
-0.262804
-0.163841
-0.0576409
0.0553067
0.173933
0.296611
0.42057
0.539404
0.621165
0.624217
0.513098
0.264198
-0.108771
-0.626288
-1.30014
-1.97832
-2.14835
-2.06137
-0.460827
-0.38223
-0.289542
-0.188589
-0.0804335
0.0341353
0.153865
0.277053
0.401177
0.519537
0.600434
0.608628
0.520384
0.326025
0.0186164
-0.443326
-1.05038
-1.66198
-1.84555
-1.72236
-0.492214
-0.412457
-0.318141
-0.215478
-0.105637
0.0105771
0.13182
0.256078
0.380181
0.497274
0.578652
0.595318
0.536647
0.397627
0.18601
-0.118801
-0.48902
-0.76228
-0.829126
-0.779978
-0.525444
-0.44458
-0.348773
-0.244336
-0.132522
-0.0145839
0.107846
0.232718
0.356852
0.474197
0.558852
0.588401
0.562429
0.487802
0.381539
0.25995
0.149515
0.097598
0.103642
0.123142
-0.5602
-0.4785
-0.381111
-0.274966
-0.161468
-0.0419004
0.0820414
0.207972
0.332783
0.451707
0.541554
0.58612
0.592498
0.574027
0.54812
0.529092
0.531866
0.565011
0.606429
0.620751
-0.597056
-0.514302
-0.415346
-0.30732
-0.19182
-0.070376
0.0550688
0.182252
0.30857
0.430546
0.527427
0.587504
0.621155
0.642346
0.663549
0.693404
0.735439
0.784476
0.823246
0.83382
-0.636096
-0.551907
-0.450815
-0.340687
-0.22316
-0.0998806
0.0273667
0.156464
0.285328
0.411378
0.516659
0.590978
0.645224
0.690518
0.73453
0.779911
0.826355
0.869941
0.902076
0.91142
-0.676803
-0.590684
-0.487277
-0.374824
-0.255015
-0.129548
-4.90453e-05
0.131471
0.263477
0.394228
0.507941
0.594885
0.663262
0.721917
0.77484
0.823245
0.866659
0.903823
0.932193
0.940886
-0.717876
-0.62953
-0.523521
-0.408516
-0.28624
-0.158322
-0.0263481
0.107867
0.243153
0.378975
0.50095
0.597263
0.675137
0.740921
0.797421
0.845994
0.887189
0.921313
0.946355
0.955298
-0.757261
-0.666591
-0.55809
-0.440359
-0.315512
-0.185096
-0.0506952
0.0861898
0.224779
0.365782
0.494179
0.597709
0.681386
0.750737
0.80872
0.857038
0.897102
0.930065
0.953955
0.962757
-0.791919
-0.699495
-0.588698
-0.468462
-0.341302
-0.20874
-0.0722672
0.0668974
0.208387
0.353484
0.486848
0.595143
0.682022
0.753139
0.811565
0.859573
0.898857
0.930989
0.954087
0.962804
-0.818421
-0.725338
-0.612806
-0.490682
-0.361919
-0.22799
-0.0901912
0.0504161
0.193793
0.341571
0.477938
0.588838
0.677168
0.74882
0.807169
0.854694
0.893405
0.924876
0.947224
0.955811
-0.832601
-0.740903
-0.627628
-0.504783
-0.375511
-0.241313
-0.103522
0.0371251
0.180792
0.329308
0.466672
0.578172
0.666463
0.737835
0.795675
0.842642
0.880805
0.911743
0.93357
0.942289
-0.831408
-0.742133
-0.629501
-0.507635
-0.37968
-0.247184
-0.1113
0.0273502
0.169219
0.316118
0.452041
0.562122
0.649199
0.719503
0.77649
0.822795
0.860474
0.891016
0.912447
0.921344
-0.809771
-0.723958
-0.614317
-0.495673
-0.371568
-0.243516
-0.112355
0.0216149
0.158928
0.301277
0.433043
0.539584
0.624023
0.692361
0.747983
0.793387
0.830498
0.860657
0.88194
0.891153
-0.758933
-0.679572
-0.576715
-0.464709
-0.348246
-0.228311
-0.105402
0.0204406
0.149843
0.284305
0.408758
0.509209
0.589125
0.654018
0.707272
0.75113
0.787281
0.817004
0.838394
0.84802
-0.671254
-0.601186
-0.509929
-0.410478
-0.306922
-0.199942
-0.0895626
0.0243012
0.142144
0.265035
0.37866
0.469998
0.542451
0.601354
0.650046
0.690491
0.72394
0.75153
0.774033
0.783452
-0.538021
-0.48574
-0.41122
-0.330903
-0.24666
-0.157882
-0.0645203
0.0334928
0.13626
0.244079
0.343388
0.422171
0.483533
0.532481
0.572372
0.605411
0.632287
0.653079
0.668483
0.674907
-0.335693
-0.312974
-0.273246
-0.224884
-0.168329
-0.104036
-0.0321501
0.0470755
0.133294
0.226021
0.312333
0.380425
0.432426
0.472447
0.503152
0.526596
0.545175
0.56067
0.572685
0.576812
-0.15518
-0.149891
-0.136408
-0.115381
-0.0852992
-0.0452733
0.00489712
0.0649977
0.134349
0.211834
0.285243
0.343015
0.386259
0.418419
0.442184
0.459439
0.471137
0.478143
0.481815
0.483005
-0.0489691
-0.0484525
-0.0438966
-0.0341475
-0.0179434
0.00635785
0.0401268
0.0840543
0.138019
0.201004
0.262086
0.310163
0.34549
0.370839
0.388324
0.39976
0.406871
0.411016
0.412931
0.413232
0.00899972
0.00908626
0.0110906
0.016588
0.0269044
0.043342
0.0672078
0.0996482
0.141233
0.191475
0.241161
0.280343
0.308767
0.328725
0.342284
0.351134
0.356516
0.359395
0.360601
0.360859
0.045482
0.0458658
0.0474756
0.0512051
0.0581109
0.0694897
0.0867091
0.110975
0.14305
0.18282
0.22281
0.254457
0.277285
0.293149
0.303732
0.310454
0.314471
0.316665
0.317667
0.317912
0.0698807
0.0702524
0.0715224
0.0743027
0.0793603
0.0876673
0.10037
0.118639
0.14336
0.174653
0.206544
0.23188
0.250087
0.262636
0.270944
0.276211
0.27936
0.281082
0.281869
0.282062
0.0859603
0.0862917
0.0873048
0.089418
0.0932008
0.0994138
0.108983
0.122904
0.142012
0.166561
0.191857
0.212034
0.226517
0.23647
0.243038
0.247186
0.249663
0.25102
0.251646
0.251798
0.096175
0.0964479
0.0972448
0.0988706
0.101753
0.106473
0.113762
0.124443
0.139249
0.158482
0.178469
0.19447
0.205958
0.21384
0.219031
0.222305
0.224258
0.22533
0.225824
0.225943
0.101996
0.102213
0.102835
0.10409
0.106303
0.109924
0.115524
0.123764
0.135267
0.150324
0.166075
0.178728
0.187818
0.194052
0.198155
0.200742
0.202286
0.203131
0.203519
0.203612
0.104488
0.10466
0.105144
0.106115
0.107824
0.110617
0.114943
0.121327
0.130278
0.142064
0.154457
0.164439
0.171619
0.176545
0.179785
0.181826
0.183042
0.183708
0.184013
0.184086
0.104432
0.104567
0.104944
0.105699
0.107023
0.109187
0.112541
0.117501
0.124478
0.133702
0.143439
0.151303
0.156964
0.160848
0.163404
0.165013
0.165971
0.166494
0.166733
0.166788
0.102416
0.102521
0.102814
0.1034
0.10443
0.106111
0.108718
0.112579
0.118023
0.125243
0.132889
0.139075
0.143532
0.146591
0.148603
0.149869
0.150623
0.151036
0.151223
0.151267
0.0988814
0.0989636
0.0991928
0.0996494
0.10045
0.101758
0.103788
0.106798
0.111049
0.116699
0.122695
0.127555
0.13106
0.133467
0.135051
0.136048
0.136641
0.136963
0.137109
0.137142
0.094171
0.094235
0.0944134
0.0947687
0.0953926
0.0964122
0.0979946
0.100343
0.103663
0.108083
0.112783
0.116598
0.119351
0.121242
0.122485
0.123268
0.123733
0.123986
0.124101
0.124127
0.0885454
0.0885954
0.0887345
0.0890114
0.0894976
0.0902921
0.0915257
0.0933574
0.0959504
0.0994075
0.103088
0.106078
0.108238
0.109722
0.110697
0.111309
0.111673
0.111872
0.111961
0.111981
0.0822081
0.0822468
0.082355
0.0825706
0.0829491
0.0835683
0.0845301
0.085959
0.087983
0.0906833
0.0935622
0.0959019
0.0975913
0.098752
0.0995166
0.0999982
0.100283
0.100438
0.100507
0.100523
0.0753159
0.0753461
0.0754302
0.075598
0.0758929
0.0763747
0.0771236
0.0782368
0.0798142
0.0819205
0.0841683
0.0859966
0.0873173
0.0882252
0.0888217
0.0891963
0.0894189
0.0895394
0.0895935
0.0896055
0.0679931
0.0680164
0.0680816
0.0682118
0.0684406
0.0688149
0.0693962
0.0702602
0.0714861
0.0731249
0.0748739
0.0762979
0.0773286
0.0780365
0.0785011
0.0787924
0.0789643
0.0790575
0.0790987
0.079108
0.0603359
0.0603537
0.0604038
0.060504
0.0606803
0.0609696
0.0614199
0.0620894
0.0630388
0.0643083
0.0656639
0.0667671
0.0675636
0.0681099
0.0684692
0.0686956
0.0688301
0.0689027
0.0689351
0.0689424
0.052418
0.0524316
0.0524703
0.0525476
0.052683
0.0529044
0.0532495
0.0537633
0.0544925
0.0554676
0.0565089
0.0573566
0.0579693
0.0583907
0.0586685
0.0588426
0.0589451
0.0590007
0.0590254
0.0590305
0.0443018
0.0443122
0.0443412
0.0443995
0.0445021
0.0446699
0.0449309
0.0453199
0.0458722
0.0466114
0.0474024
0.0480472
0.0485142
0.0488351
0.0490444
0.0491751
0.0492526
0.0492941
0.0493121
0.049316
0.0360364
0.0360441
0.0360653
0.0361078
0.0361827
0.0363071
0.0365014
0.0367905
0.0372006
0.0377493
0.0383354
0.0388119
0.0391555
0.0393908
0.0395462
0.0396447
0.0397029
0.0397344
0.0397488
0.039752
0.0276588
0.0276638
0.0276779
0.0277082
0.0277627
0.0278519
0.0279901
0.0281955
0.0284877
0.0288786
0.0292959
0.0296352
0.0298801
0.030049
0.0301589
0.0302266
0.0302666
0.0302882
0.0302971
0.0302987
0.0191993
0.0192031
0.0192132
0.0192331
0.0192692
0.0193281
0.0194188
0.0195535
0.0197451
0.0200012
0.0202745
0.0204971
0.020657
0.0207652
0.0208365
0.0208816
0.0209073
0.0209201
0.0209252
0.0209264
0.0106854
0.0106879
0.0106946
0.0107062
0.010725
0.0107552
0.0108031
0.010875
0.0109771
0.0111144
0.0112594
0.011376
0.01146
0.0115177
0.0115551
0.0115776
0.0115909
0.0115986
0.0116028
0.0116044
0.00213748
0.0021361
0.0021348
0.00213594
0.00213989
0.00214658
0.00215606
0.00216906
0.00218707
0.00221065
0.00223869
0.0022665
0.0022875
0.00230181
0.00231071
0.00231636
0.00232019
0.00232245
0.00232279
0.00232143
-1.3617
-1.05731
-0.733145
-0.44291
-0.174639
0.0818354
0.312342
0.511503
0.641163
0.603348
-0.740598
-0.532872
-0.311893
-0.104391
0.0876599
0.260591
0.406132
0.512317
0.566469
0.562764
-0.304988
-0.163971
-0.0158493
0.123738
0.250556
0.358964
0.446673
0.50622
0.537591
0.546079
-0.010517
0.0837321
0.182448
0.273505
0.355117
0.423106
0.476081
0.514295
0.538137
0.549555
0.191414
0.253055
0.31817
0.377752
0.430514
0.47394
0.508365
0.534374
0.553506
0.56425
0.333403
0.374537
0.416369
0.455199
0.489887
0.519717
0.543782
0.562373
0.574693
0.581057
0.438819
0.464594
0.491907
0.520462
0.546811
0.569607
0.587166
0.598182
0.602737
0.603433
0.516498
0.536465
0.562256
0.587027
0.608726
0.626233
0.639395
0.645981
0.648504
0.651341
0.573287
0.596563
0.623094
0.647424
0.670973
0.692311
0.709341
0.72059
0.723788
0.732535
0.634716
0.673361
0.713851
0.750979
0.781722
0.80459
0.819819
0.829029
0.831835
0.845263
0.757676
0.805679
0.847626
0.878682
0.902437
0.921946
0.938841
0.95156
0.961399
0.977155
0.938005
0.968805
0.995991
1.01918
1.03974
1.05853
1.07524
1.09016
1.10371
1.12102
1.12257
1.14223
1.15771
1.17398
1.18954
1.20375
1.21675
1.23067
1.24821
1.2679
1.30726
1.31622
1.32835
1.33949
1.34892
1.35832
1.36867
1.37966
1.39077
1.40616
1.51367
1.51741
1.50253
1.48795
1.48175
1.48741
1.50604
1.53623
1.56808
1.59457
1.82037
1.68566
1.60893
1.56614
1.54865
1.55276
1.57983
1.63619
1.73901
1.96342
0.628115
0.626781
0.623868
0.616973
0.606417
0.595774
0.586691
0.579601
0.574408
0.571173
0.570626
0.572914
0.577389
0.583671
0.591876
0.601916
0.612858
0.62219
0.626344
0.628349
0.555243
0.560993
0.56849
0.573645
0.576586
0.576979
0.575253
0.572312
0.569395
0.567389
0.567039
0.568599
0.571408
0.574651
0.577259
0.578074
0.576471
0.572363
0.566254
0.558524
0.557097
0.558656
0.562236
0.565395
0.567541
0.568452
0.568034
0.566947
0.565511
0.564306
0.564126
0.565259
0.566921
0.568434
0.569353
0.569308
0.567746
0.565158
0.561636
0.558763
0.557062
0.557228
0.557835
0.558759
0.559698
0.560496
0.561104
0.561113
0.560685
0.560252
0.56031
0.560985
0.561768
0.562229
0.562059
0.561394
0.560607
0.559697
0.55891
0.558548
0.552867
0.55296
0.553239
0.553617
0.554003
0.554335
0.554552
0.554628
0.554573
0.554504
0.554676
0.555159
0.555622
0.555882
0.555915
0.555751
0.555455
0.555104
0.554774
0.554594
0.548167
0.548212
0.548337
0.548538
0.548796
0.549082
0.549358
0.549587
0.549763
0.549946
0.55025
0.550628
0.550923
0.551052
0.55102
0.550881
0.550697
0.550518
0.550376
0.550303
0.542999
0.543024
0.543097
0.543209
0.543357
0.543541
0.543758
0.544
0.544266
0.544584
0.544983
0.545391
0.545684
0.545843
0.545894
0.545875
0.545822
0.545759
0.5457
0.545664
0.537696
0.53771
0.537759
0.53784
0.537957
0.538119
0.538332
0.538605
0.538948
0.539381
0.539898
0.54038
0.540724
0.540934
0.541044
0.541086
0.541091
0.541075
0.541053
0.541035
0.532245
0.532251
0.532287
0.532354
0.532459
0.532616
0.532842
0.533157
0.53358
0.534133
0.53479
0.535394
0.535829
0.536116
0.536292
0.536389
0.536438
0.536456
0.536457
0.536451
0.52663
0.526634
0.52667
0.526735
0.526844
0.527016
0.527275
0.527651
0.528174
0.528872
0.529707
0.530474
0.531027
0.531413
0.531661
0.531812
0.531898
0.531942
0.531959
0.53196
0.520839
0.52084
0.520876
0.520948
0.521074
0.521277
0.521589
0.52205
0.522703
0.523585
0.524645
0.525619
0.526345
0.526839
0.527168
0.527376
0.5275
0.527568
0.5276
0.527607
0.514834
0.514834
0.514874
0.51496
0.515111
0.515359
0.515746
0.516322
0.517145
0.518263
0.519612
0.520856
0.521776
0.522418
0.522847
0.52312
0.523286
0.52338
0.523426
0.523438
0.508557
0.508555
0.508604
0.508709
0.508898
0.509209
0.509696
0.510425
0.51147
0.51289
0.514607
0.516191
0.517364
0.518185
0.518735
0.519088
0.519305
0.519428
0.519491
0.519508
0.501936
0.501933
0.501994
0.502128
0.502367
0.502763
0.503382
0.504311
0.505642
0.507453
0.509638
0.511653
0.513145
0.51419
0.514891
0.515342
0.515619
0.515778
0.515859
0.515881
0.494875
0.494872
0.49495
0.495121
0.495427
0.495934
0.496728
0.497918
0.49962
0.501932
0.504715
0.507276
0.509168
0.510493
0.511383
0.511956
0.512307
0.51251
0.512613
0.512642
0.487247
0.487242
0.487343
0.487565
0.487961
0.488615
0.489638
0.491168
0.493351
0.496307
0.499851
0.503101
0.505497
0.507174
0.508298
0.509022
0.509466
0.509722
0.509852
0.509889
0.47888
0.478875
0.479006
0.479295
0.479811
0.480661
0.481987
0.483963
0.486771
0.490554
0.495065
0.499183
0.502211
0.504326
0.505743
0.506655
0.507215
0.507538
0.507702
0.507747
0.469546
0.46954
0.469714
0.470096
0.470773
0.471886
0.473615
0.476178
0.479801
0.484647
0.490386
0.495594
0.499411
0.502073
0.503854
0.505001
0.505705
0.50611
0.506315
0.506371
0.458931
0.458925
0.45916
0.45967
0.46057
0.462041
0.464313
0.467659
0.47235
0.478563
0.485851
0.492419
0.497215
0.500557
0.502793
0.504232
0.505116
0.505625
0.505882
0.505953
0.446599
0.446596
0.446919
0.447612
0.448826
0.450796
0.453815
0.458216
0.464312
0.472282
0.481514
0.489762
0.495768
0.49995
0.502752
0.504559
0.50567
0.506309
0.506633
0.506721
0.431922
0.431926
0.432385
0.433353
0.435026
0.437713
0.441781
0.447626
0.455586
0.465804
0.477447
0.487748
0.49523
0.500451
0.503962
0.506233
0.507634
0.508443
0.508853
0.508964
0.413949
0.413973
0.41466
0.416064
0.418445
0.422205
0.427796
0.435653
0.446092
0.459162
0.473747
0.486509
0.495771
0.502269
0.506675
0.509548
0.511333
0.512369
0.512899
0.513044
0.391138
0.391219
0.39234
0.394501
0.398048
0.403506
0.411385
0.42209
0.435814
0.452443
0.470532
0.486168
0.497532
0.505592
0.511142
0.514822
0.517145
0.518518
0.519237
0.519443
0.360799
0.361078
0.363141
0.366762
0.372402
0.380708
0.392123
0.406854
0.424859
0.445802
0.467918
0.486796
0.500575
0.510516
0.517543
0.522356
0.525505
0.527445
0.528519
0.528861
0.318006
0.318939
0.32342
0.330193
0.339916
0.353161
0.369984
0.390226
0.413567
0.439496
0.466024
0.488384
0.504816
0.516943
0.525841
0.532261
0.536758
0.539785
0.541665
0.542323
0.254213
0.256977
0.268104
0.282248
0.300088
0.321466
0.345941
0.373147
0.402657
0.433951
0.46498
0.490828
0.509977
0.524468
0.535561
0.544082
0.550617
0.555631
0.559325
0.560205
0.17346
0.181047
0.203105
0.229736
0.258508
0.289277
0.321943
0.35632
0.392062
0.428798
0.464519
0.494265
0.516732
0.534334
0.548474
0.560034
0.569616
0.577738
0.583644
0.585853
0.0949504
0.11171
0.145047
0.181855
0.22015
0.259632
0.300081
0.341228
0.382752
0.42438
0.464191
0.497171
0.522227
0.542131
0.558412
0.571958
0.583275
0.592741
0.600071
0.603984
0.0463771
0.0640124
0.101509
0.144184
0.188937
0.234907
0.281506
0.328197
0.374457
0.419892
0.462522
0.497408
0.523786
0.544654
0.561594
0.575512
0.586978
0.596431
0.603637
0.607509
0.0119578
0.0299105
0.0702555
0.116402
0.165096
0.215461
0.266604
0.317587
0.367493
0.415657
0.459925
0.495547
0.522207
0.543155
0.560063
0.573888
0.585218
0.594493
0.60168
0.605668
-0.0137147
0.004409
0.0464555
0.0951451
0.146926
0.20069
0.255322
0.309557
0.362091
0.411877
0.456577
0.491854
0.518002
0.538485
0.554997
0.568492
0.579559
0.58861
0.595735
0.599764
-0.0344698
-0.0158263
0.0279105
0.0786332
0.132848
0.189368
0.246833
0.303636
0.358025
0.40852
0.452591
0.486583
0.511581
0.531204
0.547099
0.560145
0.570897
0.579727
0.586738
0.590792
-0.0514264
-0.0322927
0.0129852
0.0655864
0.121949
0.180834
0.240705
0.299593
0.355268
0.405697
0.44815
0.479946
0.503226
0.521681
0.536814
0.549368
0.55979
0.568405
0.575294
0.57937
-0.0657856
-0.046073
0.000676279
0.0550021
0.11336
0.174444
0.236493
0.297193
0.353765
0.403508
0.443386
0.472074
0.49307
0.510111
0.524425
0.536496
0.546631
0.55507
0.561876
0.56601
-0.0783347
-0.0580881
-0.00984461
0.0461827
0.106483
0.169671
0.233819
0.296227
0.353493
0.402063
0.438452
0.463012
0.481116
0.496551
0.510081
0.521787
0.531739
0.540073
0.546829
0.550996
-0.0898192
-0.0687967
-0.0192198
0.038548
0.100781
0.1661
0.232364
0.296509
0.354431
0.401516
0.433487
0.452741
0.46724
0.480915
0.493849
0.505458
0.51547
0.523872
0.530683
0.534978
-0.100481
-0.0788487
-0.0278414
0.0316483
0.0958531
0.16335
0.231834
0.297844
0.356564
0.402023
0.428689
0.441186
0.451136
0.462938
0.475678
0.487735
0.498256
0.507028
0.514041
0.518471
-0.110997
-0.0886104
-0.0360965
0.0251434
0.0913628
0.161112
0.231939
0.300053
0.359827
0.403768
0.4243
0.428243
0.432317
0.442104
0.455374
0.468822
0.480642
0.490326
0.497863
0.502627
-0.121459
-0.0983437
-0.0442781
0.0187341
0.0870313
0.159112
0.232442
0.302918
0.364164
0.406879
0.420657
0.413828
0.410064
0.41751
0.432491
0.44891
0.463352
0.474841
0.483458
0.488728
-0.132138
-0.108177
-0.0525868
0.0122314
0.0826217
0.157113
0.233086
0.306213
0.369435
0.411534
0.418167
0.397926
0.3834
0.387731
0.406223
0.428074
0.447285
0.462064
0.472529
0.478799
-0.143136
-0.118349
-0.0611869
0.00545218
0.0779637
0.154912
0.233663
0.309731
0.375476
0.417777
0.417336
0.380689
0.351143
0.350798
0.375175
0.406169
0.433504
0.454183
0.467694
0.47517
-0.154641
-0.128912
-0.0701339
-0.00165305
0.0729626
0.152353
0.233952
0.313212
0.38207
0.425613
0.418715
0.362555
0.311476
0.303889
0.337222
0.382914
0.423193
0.453225
0.471764
0.481152
-0.166296
-0.139792
-0.0794543
-0.00914535
0.0675579
0.149368
0.233801
0.31643
0.388942
0.434923
0.422875
0.344332
0.261906
0.242366
0.287838
0.357148
0.419263
0.462051
0.487992
0.50018
-0.178449
-0.151064
-0.089115
-0.0170265
0.0616967
0.14587
0.233129
0.319188
0.395796
0.44549
0.430268
0.327154
0.202116
0.158115
0.220614
0.32744
0.425411
0.487779
0.52281
0.537964
-0.19095
-0.162647
-0.0990719
-0.0252246
0.05543
0.14183
0.231847
0.321379
0.402357
0.456918
0.441235
0.312609
0.131402
0.0398689
0.124488
0.289507
0.442629
0.534035
0.581972
0.595497
-0.203801
-0.174537
-0.109224
-0.0336596
0.0487761
0.137272
0.229913
0.322843
0.40838
0.468801
0.455777
0.303109
0.0461423
-0.133066
-0.0234146
0.249288
0.471784
0.605475
0.670901
0.670819
-0.216958
-0.186697
-0.11946
-0.042316
0.0416734
0.132125
0.227289
0.323529
0.413868
0.481267
0.474647
0.301127
-0.060921
-0.422679
-0.291371
0.174571
0.501909
0.6802
0.761779
0.773149
-0.230265
-0.198954
-0.129536
-0.0511221
0.0341247
0.126363
0.223914
0.323279
0.418479
0.493737
0.497626
0.311505
-0.196076
-0.956688
-0.876793
-0.0226486
0.481028
0.686294
0.682696
0.575559
-0.242995
-0.21054
-0.139099
-0.0601541
0.0260852
0.119855
0.219658
0.322022
0.421894
0.505407
0.52376
0.338255
-0.356703
-1.7494
-1.80737
-0.486968
0.233319
0.418239
0.391135
0.288505