/*--------------------------------*- C++ -*----------------------------------*\
| =========                 |                                                 |
| \\      /  F ield         | OpenFOAM: The Open Source CFD Toolbox           |
|  \\    /   O peration     | Version:  2112                                  |
|   \\  /    A nd           | Website:  www.openfoam.com                      |
|    \\/     M anipulation  |                                                 |
\*---------------------------------------------------------------------------*/
FoamFile
{
    version     2.0;
    format      ascii;
    arch        "LSB;label=32;scalar=64";
    class       surfaceScalarField;
    location    "3.5";
    object      phi;
}
// * * * * * * * * * * * * * * * * * * * * * * * * * * * * * * * * * * * * * //

dimensions      [0 3 -1 0 0 0 0];

oriented        oriented;

internalField   nonuniform List<scalar> 
17370
(
-0.0915989
0.0968208
0.283789
-0.078109
0.0588826
0.366002
-0.0414672
0.029675
0.42796
-0.0203611
0.014429
0.505184
-0.00993381
0.00710343
0.602233
-0.00491326
0.00350529
0.720465
-0.00243578
0.00181677
0.863526
-0.00134243
0.00101231
1.03578
-0.000696848
0.000431102
1.24277
-0.0001688
-1.20398e-05
1.49137
0.000207329
-0.00047923
1.49146
0.000740751
-0.00105108
1.243
0.00137781
-0.00184532
1.03611
0.0024527
-0.00351394
0.863968
0.00492141
-0.00711325
0.721249
0.00994581
-0.0144438
0.603713
0.0203766
-0.0296896
0.508752
0.0414804
-0.0588932
0.433581
0.0781164
-0.0968248
0.365484
0.091605
0.197406
-0.128972
0.0939374
0.0350348
-0.365018
0.355731
-0.0626065
0.0718934
-0.447398
0.452553
-0.0707557
0.0656
-0.521051
0.527657
-0.0596171
0.0530112
-0.612351
0.619239
-0.0466304
0.0397422
-0.726347
0.732386
-0.0336693
0.0276307
-0.866937
0.871406
-0.0227411
0.0182715
-1.03809
1.04127
-0.014798
0.0116225
-1.24442
1.24694
-0.00904568
0.00653093
-1.49266
1.49501
-0.00432445
0.00197344
-1.49256
1.49472
0.000202662
-0.00235948
-1.24391
1.24606
0.00467742
-0.00682568
-1.03729
1.03982
0.00929092
-0.0118156
-0.865717
0.869156
0.0149471
-0.0183865
-0.723945
0.728831
0.022843
-0.0277286
-0.608408
0.614484
0.0337666
-0.0398427
-0.514811
0.521191
0.0467327
-0.0531128
-0.440433
0.446405
0.0597212
-0.0656935
-0.375212
0.376331
0.07083
-0.0719487
-0.258271
0.23068
0.0626397
-0.0350493
-0.0796091
0.0749458
0.00466332
-0.0261887
0.0319831
-0.373292
0.367497
-0.0352712
0.0364782
-0.448409
0.447202
-0.0361107
0.035078
-0.523833
0.524866
-0.0333298
0.0314466
-0.618107
0.61999
-0.0289841
0.0264084
-0.732955
0.735531
-0.0231448
0.0199808
-0.87297
0.876134
-0.01641
0.0132032
-1.04309
1.0463
-0.00968701
0.00649351
-1.24885
1.25204
-0.00293318
-0.000458022
-1.49739
1.50078
0.00387263
-0.00740615
-1.49778
1.50132
0.0105949
-0.0140788
-1.25002
1.2535
0.017253
-0.0207398
-1.04503
1.04851
0.0238244
-0.0269764
-0.875728
0.87888
0.0294661
-0.031842
-0.736698
0.739074
0.0336539
-0.0353425
-0.622566
0.624255
0.0363281
-0.0366569
-0.530153
0.530482
0.0354361
-0.0321314
-0.452845
0.449541
0.0263072
-0.0156865
-0.343715
0.333094
0.00468788
-0.0795657
0.0748778
-0.0743526
0.0746446
-0.000292059
-0.0054017
0.010397
-0.360984
0.355989
-0.0158399
0.0200911
-0.443215
0.438964
-0.0234626
0.0253518
-0.524146
0.522257
-0.0263551
0.0262936
-0.62132
0.621382
-0.0252855
0.0236906
-0.737801
0.739396
-0.0214178
0.0189789
-0.878936
0.881375
-0.016007
0.0130871
-1.0494
1.05232
-0.00973462
0.00654137
-1.25535
1.25854
-0.00281111
-0.000833906
-1.50444
1.50808
0.00444737
-0.00810126
-1.50505
1.50871
0.0112389
-0.0145091
-1.25697
1.26024
0.0173133
-0.020178
-1.05166
1.05453
0.0225175
-0.0246898
-0.881603
0.883775
0.0262042
-0.0271426
-0.741018
0.741956
0.0271292
-0.0260087
-0.624768
0.623647
0.0240108
-0.0205264
-0.528051
0.524567
0.0161675
-0.0106177
-0.44359
0.43804
0.00553866
-0.00126942
-0.32573
0.32146
-0.00027084
-0.07426
0.0745308
-0.0745894
0.0743873
0.000202042
-0.00244213
0.00457921
-0.35274
0.350603
-0.00725224
0.00963228
-0.435699
0.433319
-0.0119138
0.0136269
-0.520281
0.518568
-0.015011
0.0158373
-0.620768
0.619941
-0.0161945
0.0160246
-0.740021
0.740191
-0.015289
0.0141613
-0.883067
0.884195
-0.0124624
0.0105405
-1.05478
1.0567
-0.00804555
0.00545163
-1.26152
1.26411
-0.00223105
-0.00102479
-1.51167
1.51493
0.00425577
-0.00741609
-1.51226
1.51542
0.00997282
-0.0124248
-1.26319
1.26564
0.0142264
-0.0157532
-1.05672
1.05825
0.0167326
-0.017313
-0.884961
0.885542
0.0173492
-0.0168567
-0.741863
0.74137
0.0159089
-0.0143836
-0.622097
0.620572
0.0125484
-0.0101461
-0.521514
0.519111
0.00766841
-0.00489636
-0.434051
0.431279
0.00266734
-0.000985776
-0.318928
0.317246
0.000240138
-0.0744467
0.0742066
-0.0742779
0.074219
5.89149e-05
-0.00105537
0.002003
-0.349174
0.348226
-0.00325729
0.00446457
-0.431588
0.430381
-0.00576349
0.00686477
-0.517144
0.516043
-0.00791446
0.00865837
-0.619099
0.618355
-0.00918847
0.00938177
-0.740113
0.739919
-0.00924198
0.00877791
-0.884936
0.8854
-0.00788321
0.00671974
-1.05822
1.05938
-0.00506736
0.00324237
-1.26631
1.26814
-0.000969938
-0.00131863
-1.51771
1.52
0.00357808
-0.00575263
-1.51808
1.52026
0.00742638
-0.00889169
-1.26759
1.26905
0.00990916
-0.010612
-1.05932
1.06002
0.0108912
-0.0108276
-0.885731
0.885667
0.0104499
-0.00972419
-0.740686
0.739961
0.00881599
-0.0076153
-0.619165
0.617965
0.00638817
-0.00496094
-0.517225
0.515798
0.00364392
-0.00227635
-0.42932
0.427953
0.00123094
-0.000440309
-0.316103
0.315312
8.49279e-05
-0.0740609
0.073976
-0.0741572
0.0741082
4.90316e-05
-0.000571841
0.00102067
-0.347584
0.347136
-0.00160233
0.00217301
-0.429558
0.428987
-0.0028112
0.00338207
-0.515243
0.514672
-0.00396243
0.00441128
-0.617761
0.617312
-0.00478018
0.00497505
-0.7397
0.739505
-0.00499435
0.004804
-0.885688
0.885878
-0.0043365
0.00365871
-1.06026
1.06094
-0.00263205
0.0014488
-1.26961
1.2708
5.0307e-05
-0.00158925
-1.52187
1.52341
0.00309757
-0.0044879
-1.522
1.52339
0.00547753
-0.00624625
-1.27012
1.27089
0.00671196
-0.00695033
-1.06045
1.06069
0.00692643
-0.00667227
-0.88547
0.885216
0.00626733
-0.00567616
-0.739287
0.738696
0.00503739
-0.00427113
-0.617002
0.616235
0.00354366
-0.00274526
-0.514742
0.513944
0.00203892
-0.00132229
-0.426985
0.426269
0.000766502
-0.000317197
-0.314731
0.314282
8.23412e-05
-0.0738882
0.0738059
-0.0740805
0.074069
1.14925e-05
-0.000236831
0.000446682
-0.346823
0.346613
-0.000722502
0.000995367
-0.428588
0.428315
-0.00130357
0.00158206
-0.514267
0.513988
-0.00186948
0.00209724
-0.616984
0.616756
-0.00228795
0.0023872
-0.739355
0.739256
-0.00238697
0.00226369
-0.88602
0.886143
-0.00196814
0.00153587
-1.06147
1.06191
-0.000872342
9.91694e-05
-1.27175
1.27252
0.00089939
-0.00191767
-1.52466
1.52568
0.0028895
-0.00374504
-1.52449
1.52535
0.00431351
-0.00469962
-1.27144
1.27183
0.00487254
-0.00488359
-1.06079
1.06081
0.00474482
-0.0044627
-0.88494
0.884658
0.00411376
-0.0036628
-0.738181
0.737731
0.00321198
-0.00269916
-0.615615
0.615102
0.00223027
-0.00172922
-0.51332
0.512819
0.00129411
-0.000855582
-0.425717
0.425278
0.000510831
-0.000221073
-0.313926
0.313636
6.00273e-05
-0.0737367
0.0736766
-0.0740692
0.0740789
-9.66266e-06
-3.20879e-05
0.000104385
-0.34648
0.346408
-0.000208139
0.000312247
-0.428138
0.428034
-0.000428206
0.000530049
-0.513809
0.513707
-0.000629944
0.000701452
-0.616613
0.616542
-0.000746641
0.000744821
-0.739208
0.73921
-0.000679539
0.00054705
-0.886266
0.886398
-0.000304733
-1.63105e-05
-1.06227
1.06259
0.000485138
-0.00101562
-1.27316
1.27369
0.00168865
-0.00235344
-1.52651
1.52717
0.0029586
-0.00345405
-1.526
1.5265
0.0037414
-0.00388849
-1.27208
1.27223
0.00390412
-0.0037957
-1.06075
1.06064
0.00360734
-0.00332701
-0.884376
0.884096
0.00302454
-0.00266216
-0.73733
0.736968
0.00231805
-0.00193984
-0.614668
0.614289
0.0016022
-0.00124784
-0.512404
0.51205
0.000943703
-0.000637706
-0.424919
0.424613
0.000393171
-0.000179233
-0.313392
0.313178
5.21076e-05
-0.0736218
0.0735697
-0.0740979
0.0741256
-2.77292e-05
9.23999e-05
-0.000107242
-0.346385
0.3464
0.000116682
-0.000125351
-0.42799
0.427999
0.000138857
-0.000158022
-0.51367
0.513689
0.000190534
-0.000235449
-0.616532
0.616577
0.000307631
-0.000401813
-0.739259
0.739353
0.000544534
-0.000719184
-0.886549
0.886724
0.000967644
-0.00125198
-1.06289
1.06317
0.0016282
-0.00202428
-1.27414
1.27454
0.00249731
-0.00293261
-1.52771
1.52814
0.00329467
-0.00355018
-1.52687
1.52712
0.00366545
-0.00366058
-1.27229
1.27228
0.00354998
-0.00335821
-1.06049
1.0603
0.00312981
-0.00283993
-0.883814
0.883524
0.00255346
-0.00222891
-0.73663
0.736306
0.00193215
-0.00161448
-0.613949
0.613631
0.00133627
-0.00104791
-0.511736
0.511448
0.000801976
-0.000554007
-0.424342
0.424094
0.000352015
-0.000167883
-0.312983
0.312799
5.15213e-05
-0.0735187
0.0734672
-0.0741603
0.074203
-4.26843e-05
0.000214462
-0.000296226
-0.346447
0.346528
0.000386271
-0.000474839
-0.428051
0.428139
0.000582282
-0.000691794
-0.513756
0.513866
0.000826474
-0.000965462
-0.616671
0.61681
0.00113833
-0.00131792
-0.73949
0.73967
0.00154231
-0.00177524
-0.886926
0.887159
0.00206367
-0.00235627
-1.06345
1.06375
0.00270486
-0.00303747
-1.2749
1.27523
0.00339671
-0.00368726
-1.5285
1.52879
0.00388437
-0.00396421
-1.52728
1.52736
0.00392147
-0.00380162
-1.27223
1.27211
0.0036216
-0.00336284
-1.06007
1.05981
0.00309186
-0.0027735
-0.883222
0.882904
0.00247451
-0.00214785
-0.735984
0.735658
0.00185663
-0.00155064
-0.613324
0.613018
0.00128616
-0.00101444
-0.511173
0.510901
0.000783814
-0.000550901
-0.423858
0.423625
0.000358309
-0.000176793
-0.312619
0.312437
5.63929e-05
-0.0734139
0.0733575
-0.0742546
0.074315
-6.04456e-05
0.000323931
-0.000465919
-0.346641
0.346783
0.000629113
-0.000790067
-0.428265
0.428425
0.0009823
-0.00117368
-0.514016
0.514208
0.0014022
-0.00162922
-0.616993
0.61722
0.00189896
-0.00216549
-0.739892
0.740159
0.00247952
-0.00278549
-0.887426
0.887732
0.00313843
-0.00347135
-1.06406
1.06439
0.00383687
-0.0041552
-1.27555
1.27587
0.00446092
-0.00466608
-1.52903
1.52924
0.00475477
-0.00471477
-1.52738
1.52734
0.00457644
-0.00433404
-1.27192
1.27168
0.00406077
-0.00372116
-1.05951
1.05917
0.00339025
-0.00301825
-0.882562
0.88219
0.0026799
-0.00231816
-0.735317
0.734956
0.00200106
-0.00167184
-0.612705
0.612375
0.00138972
-0.00110159
-0.510624
0.510336
0.000857668
-0.000610781
-0.423388
0.423141
0.000403969
-0.000203962
-0.312249
0.312049
6.66303e-05
-0.0732966
0.0732299
-0.0743849
0.074465
-8.01231e-05
0.000443367
-0.00064705
-0.346955
0.347159
0.000884683
-0.00111916
-0.428623
0.428857
0.00139784
-0.00167335
-0.51444
0.514716
0.00199929
-0.0023195
-0.617492
0.617812
0.00269461
-0.00305814
-0.740472
0.740836
0.00347697
-0.00387358
-0.888081
0.888478
0.00431625
-0.00471678
-1.06475
1.06515
0.00513484
-0.00547509
-1.27619
1.27653
0.00576952
-0.00592649
-1.52941
1.52957
0.00593596
-0.00579119
-1.52724
1.5271
0.00555158
-0.00520286
-1.27138
1.27104
0.00483325
-0.00439607
-1.05879
1.05835
0.00398349
-0.00353074
-0.881781
0.881328
0.00312583
-0.00269845
-0.734565
0.734138
0.00232731
-0.00194451
-0.612023
0.61164
0.00161798
-0.00128556
-0.510029
0.509697
0.00100478
-0.000720308
-0.422879
0.422594
0.000480346
-0.000245151
-0.311833
0.311598
8.09488e-05
-0.0731567
0.0730757
-0.0745568
0.0746616
-0.000104848
0.000586896
-0.000860827
-0.347396
0.34767
0.00118178
-0.00149867
-0.429131
0.429448
0.00187494
-0.00224613
-0.515037
0.515408
0.00268378
-0.00311161
-0.618184
0.618612
0.00360947
-0.00408822
-0.741254
0.741733
0.00463388
-0.00514401
-0.888928
0.889438
0.00570372
-0.00619954
-1.0656
1.06609
0.00670202
-0.00709405
-1.2769
1.27729
0.00740806
-0.00754089
-1.52971
1.52985
0.00748587
-0.00724165
-1.5269
1.52666
0.00689584
-0.00642484
-1.27063
1.27016
0.00594242
-0.00538357
-1.05786
1.0573
0.00486456
-0.00430151
-0.880824
0.880261
0.00380218
-0.00327889
-0.733666
0.733143
0.00282663
-0.00236205
-0.61122
0.610756
0.0019668
-0.00156526
-0.509333
0.508932
0.00122641
-0.000882792
-0.422283
0.421939
0.000591591
-0.000303879
-0.311339
0.311051
0.000101025
-0.0729855
0.0728845
-0.074781
0.0749171
-0.000136055
0.00076488
-0.00112428
-0.347985
0.348344
0.00154617
-0.00196263
-0.429812
0.430229
0.00245648
-0.00294296
-0.515834
0.516321
0.00351559
-0.0040741
-0.619101
0.61966
0.00472214
-0.00534273
-0.742278
0.742899
0.00604648
-0.00669989
-0.890016
0.890669
0.00741059
-0.00803261
-1.06665
1.06727
0.00865253
-0.00912388
-1.27772
1.27819
0.0094827
-0.00960638
-1.52997
1.5301
0.00949164
-0.00914009
-1.52636
1.52601
0.00867282
-0.00805422
-1.26962
1.269
0.00743122
-0.00671784
-1.05667
1.05595
0.00606072
-0.00535234
-0.87963
0.878922
0.00472716
-0.00407403
-0.732559
0.731906
0.00351087
-0.00293342
-0.610239
0.609661
0.00244291
-0.0019453
-0.508486
0.507988
0.00152559
-0.00109994
-0.421557
0.421132
0.000738597
-0.00038033
-0.310731
0.310372
0.000126683
-0.0727713
0.0726446
-0.075072
0.0752482
-0.000176274
0.000991384
-0.00145788
-0.348754
0.34922
0.00200568
-0.0025464
-0.430703
0.431244
0.00318736
-0.00381823
-0.516875
0.517506
0.00455995
-0.00528224
-0.620295
0.621018
0.00611868
-0.00691767
-0.743603
0.744402
0.00782077
-0.00865589
-0.891408
0.892243
0.00955922
-0.0103442
-1.06797
1.06875
0.0111185
-0.0116974
-1.27871
1.27929
0.0121227
-0.0122456
-1.53022
1.53034
0.0120651
-0.0115871
-1.5256
1.52512
0.0109716
-0.0101696
-1.26829
1.26749
0.00936985
-0.00845961
-1.05515
1.05424
0.00762539
-0.00672883
-0.878126
0.877229
0.00593992
-0.00511731
-0.731174
0.730351
0.00440938
-0.00368432
-0.609015
0.60829
0.00306903
-0.00244474
-0.507431
0.506807
0.00191807
-0.00138366
-0.420655
0.420121
0.00092967
-0.000478977
-0.309971
0.30952
0.000159577
-0.0725026
0.072343
-0.0754491
0.0756781
-0.000228975
0.00128439
-0.0018878
-0.349751
0.350354
0.00259625
-0.00329543
-0.431859
0.432558
0.00412361
-0.00493821
-0.518223
0.519037
0.00589504
-0.00682576
-0.621838
0.622769
0.00790186
-0.00892786
-0.745308
0.746334
0.0100846
-0.0111508
-0.893187
0.894253
0.0122991
-0.0132914
-1.06964
1.07063
0.0142621
-0.0149785
-1.27993
1.28065
0.0154901
-0.0156144
-1.53046
1.53059
0.0153533
-0.0147175
-1.52457
1.52393
0.013916
-0.0128824
-1.26658
1.26555
0.0118576
-0.0106968
-1.05321
1.05205
0.00963577
-0.00849837
-0.876219
0.875082
0.00749881
-0.00645808
-0.729426
0.728385
0.00556324
-0.00464753
-0.607475
0.606559
0.00387081
-0.00308325
-0.506106
0.505319
0.00241921
-0.00174551
-0.419522
0.418848
0.00117298
-0.000604263
-0.309014
0.308445
0.000201161
-0.0721638
0.0719626
-0.0759393
0.0762379
-0.000298575
0.00166743
-0.00244815
-0.351041
0.351821
0.00336415
-0.00426795
-0.433353
0.434257
0.00533777
-0.00638924
-0.519963
0.521014
0.00762303
-0.00882149
-0.623825
0.625023
0.0102048
-0.0115209
-0.747496
0.748812
0.0130008
-0.0143603
-0.895457
0.896816
0.0158184
-0.0170712
-1.07174
1.073
0.0182873
-0.0191734
-1.28144
1.28233
0.0197886
-0.0199093
-1.53071
1.53083
0.0195415
-0.018702
-1.5232
1.52236
0.0176622
-0.0163328
-1.26437
1.26304
0.0150222
-0.0135424
-1.05074
1.04926
0.0121934
-0.0107497
-0.8738
0.872357
0.00948261
-0.00816465
-0.727214
0.725896
0.00703208
-0.00587355
-0.60553
0.604371
0.00489109
-0.00389527
-0.504433
0.503437
0.00305588
-0.00220444
-0.41809
0.417239
0.00148086
-0.000762347
-0.307806
0.307088
0.000253512
-0.0717369
0.0714834
-0.0765797
0.0769714
-0.000391773
0.0021741
-0.00318689
-0.35271
0.353723
0.00437394
-0.00554465
-0.435285
0.436456
0.006929
-0.00828803
-0.522209
0.523568
0.00988049
-0.0114249
-0.626383
0.627928
0.0132037
-0.0148919
-0.750303
0.751991
0.0167839
-0.0185152
-0.898351
0.900082
0.0203624
-0.0219392
-1.0744
1.07598
0.0234554
-0.024544
-1.28331
1.2844
0.0252746
-0.0253758
-1.53095
1.53105
0.0248608
-0.0237545
-1.5214
1.52029
0.0224082
-0.0207017
-1.26154
1.25983
0.0190274
-0.0171431
-1.04759
1.0457
0.015429
-0.0135972
-0.870731
0.868899
0.0119916
-0.0103224
-0.724413
0.722744
0.00888879
-0.00742282
-0.603068
0.601602
0.00618014
-0.00492077
-0.502318
0.501058
0.00385928
-0.00278257
-0.416281
0.415205
0.00186783
-0.000960278
-0.30628
0.305372
0.000318687
-0.0711988
0.0708801
-0.0774221
0.0779414
-0.000519212
0.00285554
-0.00417576
-0.354878
0.356198
0.00572039
-0.00724263
-0.43779
0.439312
0.00904
-0.010802
-0.525115
0.526877
0.0128628
-0.0148567
-0.629682
0.631676
0.0171469
-0.0193125
-0.753903
0.756068
0.0217294
-0.0239289
-0.902034
0.904234
0.0262599
-0.0282324
-1.07774
1.07972
0.0301063
-0.031426
-1.2856
1.28692
0.0322722
-0.0323217
-1.53113
1.53118
0.0315988
-0.0301399
-1.51902
1.51756
0.0283987
-0.0262117
-1.2579
1.25571
0.0240777
-0.0216832
-1.04358
1.04118
0.0195092
-0.0171888
-0.866837
0.864516
0.0151563
-0.0130445
-0.720866
0.718754
0.0112315
-0.00937799
-0.599953
0.5981
0.00780706
-0.00621493
-0.499642
0.49805
0.00487288
-0.00351165
-0.413994
0.412633
0.0023556
-0.00120957
-0.304353
0.303207
0.000400701
-0.0705229
0.0701222
-0.0785427
0.0792396
-0.000696852
0.00378838
-0.005523
-0.357708
0.359443
0.00754755
-0.00953975
-0.441051
0.443043
0.0118863
-0.014181
-0.528887
0.531182
0.0168572
-0.0194379
-0.633944
0.636525
0.0223898
-0.0251675
-0.758522
0.761299
0.0282483
-0.0310309
-0.906709
0.909492
0.0339523
-0.036395
-1.08192
1.08436
0.0386771
-0.0402424
-1.28837
1.28993
0.0411806
-0.0411192
-1.53118
1.53112
0.0400997
-0.0381749
-1.51589
1.51396
0.0359266
-0.0331324
-1.25324
1.25044
0.0304204
-0.0273878
-1.03849
1.03546
0.0246392
-0.0217084
-0.861907
0.858976
0.0191421
-0.0164758
-0.71638
0.713714
0.0141864
-0.0118455
-0.596016
0.593676
0.00986081
-0.00784902
-0.49626
0.494248
0.00615286
-0.00443214
-0.411103
0.409382
0.00297087
-0.00152338
-0.301919
0.300472
0.000503561
-0.069673
0.0691695
-0.0800569
0.0810117
-0.000954783
0.00511076
-0.00742141
-0.36143
0.36374
0.010105
-0.012735
-0.445325
0.447955
0.0158182
-0.0188215
-0.533809
0.536813
0.0223088
-0.0256564
-0.639469
0.642816
0.0294636
-0.0330203
-0.764446
0.768002
0.0369302
-0.0404231
-0.912614
0.916107
0.0440408
-0.0470147
-1.08706
1.09003
0.0497287
-0.0515196
-1.29161
1.29341
0.0524824
-0.052208
-1.53097
1.5307
0.0507651
-0.0482275
-1.51175
1.50922
0.0453364
-0.0417848
-1.24729
1.24374
0.0383591
-0.0345393
-1.03205
1.02823
0.0310814
-0.0273949
-0.855686
0.852
0.0241661
-0.0208096
-0.71072
0.707363
0.0179259
-0.0149745
-0.591045
0.588094
0.0124701
-0.00992868
-0.491988
0.489446
0.00778354
-0.00560512
-0.407449
0.405271
0.00375432
-0.00192243
-0.298845
0.297014
0.000634315
-0.0686044
0.0679701
-0.0821485
0.0835102
-0.00136168
0.00711292
-0.0102655
-0.366374
0.369526
0.0138807
-0.0173835
-0.450982
0.454485
0.0214539
-0.0253959
-0.540284
0.544226
0.0299476
-0.0342907
-0.646656
0.650999
0.0391904
-0.0437205
-0.772028
0.776558
0.048634
-0.0529539
-0.919999
0.924319
0.0573401
-0.0608591
-1.09328
1.0968
0.0639623
-0.0658926
-1.29528
1.29721
0.0667383
-0.066087
-1.53026
1.52961
0.0640447
-0.0607113
-1.50631
1.50297
0.0570188
-0.0525439
-1.23975
1.23527
0.0482565
-0.0434895
-1.02395
1.01919
0.0391769
-0.0345753
-0.847872
0.843271
0.0305387
-0.0263348
-0.703596
0.699392
0.0227157
-0.0190047
-0.584775
0.581064
0.0158485
-0.0126376
-0.48659
0.483379
0.00991839
-0.00714763
-0.402829
0.400058
0.00478729
-0.00245025
-0.294959
0.292622
0.000808858
-0.0672568
0.0664479
-0.085126
0.0872366
-0.00211056
0.0105135
-0.014943
-0.373051
0.37748
0.0198662
-0.0245239
-0.458601
0.463259
0.0298725
-0.0350297
-0.548903
0.55406
0.0409535
-0.0465658
-0.656032
0.661644
0.0528275
-0.0585249
-0.781659
0.787356
0.0645791
-0.0697759
-0.929061
0.934258
0.0749031
-0.0788738
-1.10055
1.10452
0.0822002
-0.0840732
-1.29914
1.30101
0.084552
-0.0832774
-1.52868
1.5274
0.0804021
-0.0760562
-1.49916
1.49481
0.0713918
-0.0658281
-1.23027
1.22471
0.0605394
-0.0546766
-1.01388
1.00802
0.0493745
-0.0437074
-0.838136
0.832469
0.0387235
-0.0335153
-0.694669
0.689461
0.0290164
-0.0243861
-0.576869
0.572238
0.0204304
-0.0163824
-0.479755
0.475707
0.0129254
-0.00936604
-0.396972
0.393412
0.00629735
-0.00323409
-0.290027
0.286964
0.00107565
-0.0655434
0.0644678
-0.0895763
0.0933062
-0.00372992
0.0170356
-0.0232961
-0.382397
0.388657
0.0298749
-0.0359569
-0.469154
0.475236
0.0429021
-0.0496153
-0.560495
0.567209
0.0572991
-0.064482
-0.668183
0.675366
0.0723333
-0.0792892
-0.793622
0.800578
0.0864483
-0.0923833
-0.939764
0.945699
0.0980074
-0.10214
-1.10856
1.11269
0.105326
-0.106787
-1.30269
1.30415
0.106511
-0.104272
-1.52566
1.52342
0.100275
-0.0946787
-1.48985
1.48426
0.0888776
-0.0820896
-1.21853
1.21174
0.075702
-0.0686521
-1.00155
0.994502
0.062283
-0.055467
-0.826174
0.819358
0.049455
-0.043146
-0.683582
0.677273
0.0376695
-0.0320063
-0.566911
0.561248
0.0271351
-0.0220962
-0.471043
0.466004
0.0177196
-0.0130984
-0.389469
0.384848
0.00894926
-0.00467052
-0.28372
0.279441
0.00158233
-0.0633333
0.0617509
-0.0968735
0.104501
-0.00762752
0.0313652
-0.0398931
-0.396347
0.404875
0.0481921
-0.0559338
-0.484078
0.49182
0.0649098
-0.0735505
-0.575887
0.584528
0.0832557
-0.0920205
-0.683394
0.692159
0.101217
-0.109022
-0.807739
0.815544
0.11671
-0.122783
-0.951541
0.957614
0.12822
-0.131884
-1.11649
1.12015
0.134268
-0.134738
-1.30506
1.30553
0.133141
-0.129482
-1.52044
1.51678
0.124016
-0.116926
-1.47788
1.47079
0.109848
-0.101761
-1.20426
1.19618
0.0942526
-0.0860352
-0.986803
0.978586
0.0786382
-0.0707313
-0.811839
0.803932
0.0637517
-0.0564102
-0.670106
0.662764
0.0500152
-0.0433707
-0.554525
0.54788
0.0376092
-0.0315814
-0.459898
0.45387
0.026218
-0.0201989
-0.379638
0.373618
0.0141757
-0.00740611
-0.275323
0.268553
0.00245704
-0.0603652
0.0579082
-0.112599
0.114935
-0.00233556
0.0181539
-0.0263664
-0.417638
0.42585
0.0349564
-0.0436301
-0.504128
0.512802
0.0539421
-0.0643271
-0.594775
0.60516
0.0755307
-0.0854653
-0.700811
0.710746
0.096444
-0.106099
-0.822745
0.8324
0.116066
-0.12457
-0.96291
0.971414
0.132974
-0.139663
-1.12289
1.12958
0.145572
-0.149417
-1.30496
1.30881
0.151428
-0.150793
-1.51202
1.51138
0.147391
-0.141612
-1.46273
1.45695
0.134821
-0.126155
-1.18734
1.17868
0.117651
-0.107387
-0.96972
0.959456
0.0978684
-0.0872633
-0.795339
0.784734
0.0776485
-0.0672967
-0.654479
0.644127
0.0578643
-0.0481354
-0.539873
0.530144
0.039888
-0.0309841
-0.446206
0.437302
0.0231753
-0.0147579
-0.366716
0.358298
0.00758267
-0.0019975
-0.262564
0.256979
-0.000303763
-0.0555623
0.0558661
-0.122132
0.116596
0.00553564
-0.00434741
-0.00147353
-0.438196
0.444017
0.00939561
-0.0171553
-0.524447
0.532207
0.0266739
-0.0355086
-0.615489
0.624324
0.0454127
-0.0543976
-0.720664
0.729649
0.0639442
-0.0725664
-0.84162
0.850242
0.0814939
-0.0888492
-0.979678
0.987033
0.0963184
-0.101968
-1.13621
1.14186
0.106924
-0.109898
-1.31257
1.31554
0.110878
-0.109575
-1.51026
1.50896
0.105753
-0.0998507
-1.45079
1.44489
0.0930223
-0.0846603
-1.17
1.16164
0.0766781
-0.0675906
-0.949441
0.940354
0.0591202
-0.0497315
-0.774137
0.764749
0.0413639
-0.0327878
-0.633035
0.624459
0.0255294
-0.0181413
-0.518945
0.511557
0.0120154
-0.00615653
-0.425899
0.42004
0.00155095
0.00254632
-0.347556
0.343458
-0.00474153
0.00474694
-0.248312
0.248307
-0.00261076
-0.0534114
0.0560221
-0.11869
0.114579
0.00411107
-0.00736739
0.00413816
-0.453659
0.456888
0.000991039
-0.00689214
-0.541554
0.547455
0.0141824
-0.021323
-0.633095
0.640236
0.0293936
-0.0368145
-0.738051
0.745472
0.0449527
-0.0521839
-0.858119
0.86535
0.0594873
-0.0658501
-0.994157
1.00052
0.0721516
-0.0770133
-1.14713
1.15199
0.0809036
-0.0830215
-1.31801
1.32013
0.0836047
-0.0820026
-1.50729
1.50569
0.0782034
-0.0727083
-1.43888
1.43338
0.0666287
-0.0595757
-1.15378
1.14673
0.0526911
-0.0452693
-0.931721
0.924299
0.0385346
-0.0312563
-0.756476
0.749197
0.025109
-0.0188444
-0.616405
0.610141
0.0137659
-0.00859971
-0.503665
0.498498
0.00470771
-0.00127888
-0.412373
0.408944
-0.00118883
0.00324667
-0.336368
0.334311
-0.00413852
0.00338095
-0.242053
0.242811
-0.00173484
-0.0542741
0.056009
-0.116526
0.113445
0.0030814
-0.00666218
0.00481772
-0.464381
0.466226
-0.00119264
-0.00350096
-0.554318
0.559012
0.0094491
-0.0150494
-0.646902
0.652503
0.0215588
-0.0275847
-0.752456
0.758482
0.0341959
-0.0401198
-0.872002
0.877926
0.0464845
-0.0516802
-1.00639
1.01159
0.0570348
-0.0607424
-1.15645
1.16015
0.0639646
-0.0656236
-1.32212
1.32378
0.0657664
-0.0638588
-1.50392
1.50202
0.0604293
-0.0556448
-1.42784
1.42305
0.050433
-0.0442247
-1.14004
1.13384
0.038573
-0.0326124
-0.917274
0.911313
0.0271533
-0.0216347
-0.742641
0.737122
0.016681
-0.0118641
-0.604009
0.599192
0.00792261
-0.00419565
-0.492975
0.489248
0.00143896
0.00103725
-0.403389
0.400913
-0.00278462
0.00379187
-0.328952
0.327944
-0.00425501
0.00324686
-0.237602
0.23861
-0.0015757
-0.0541783
0.055754
-0.116083
0.11374
0.00234301
-0.0053624
0.00421809
-0.472411
0.473555
-0.000960605
-0.00280349
-0.564593
0.568357
0.00748315
-0.0123561
-0.658012
0.662885
0.0176579
-0.0228308
-0.764058
0.76923
0.0284002
-0.0334081
-0.883396
0.888404
0.0387192
-0.0432279
-1.01659
1.0211
0.0476237
-0.0509431
-1.16369
1.16701
0.0535583
-0.0547894
-1.32512
1.32635
0.0546284
-0.0526431
-1.50007
1.49809
0.0493887
-0.044865
-1.41795
1.41343
0.04025
-0.0349987
-1.128
1.12275
0.0302109
-0.0251014
-0.905554
0.900444
0.0206515
-0.0160729
-0.731808
0.727229
0.0121688
-0.00826653
-0.594509
0.590607
0.00515383
-0.00223142
-0.484925
0.482003
-7.03311e-05
0.00200351
-0.396702
0.394769
-0.00307516
0.00388478
-0.32366
0.32285
-0.00418852
0.00294093
-0.234186
0.235433
-0.00143292
-0.0541663
0.0555993
-0.116413
0.114367
0.00204586
-0.00441536
0.00312937
-0.479086
0.480372
-0.000540181
-0.00291357
-0.572663
0.576116
0.00739521
-0.0115462
-0.667296
0.671447
0.0161188
-0.0206097
-0.773859
0.778349
0.0255376
-0.0299814
-0.8931
0.897544
0.0348042
-0.0386895
-1.02531
1.02919
0.0425621
-0.0454451
-1.17
1.17288
0.0475762
-0.0484161
-1.32727
1.32811
0.0478917
-0.0460562
-1.496
1.49417
0.0427456
-0.0385459
-1.40864
1.40444
0.0342375
-0.0294316
-1.11757
1.11277
0.0253545
-0.0207519
-0.895513
0.89091
0.016842
-0.0130059
-0.722838
0.719002
0.00969893
-0.0064076
-0.586904
0.583613
0.00375707
-0.00111454
-0.478579
0.475937
-0.000644127
0.0022142
-0.391378
0.389808
-0.0033068
0.00386962
-0.31922
0.318657
-0.00390974
0.00280309
-0.231548
0.232655
-0.00132255
-0.0541812
0.0555038
-0.117029
0.11543
0.00159879
-0.00325627
0.00202236
-0.485184
0.486418
0.000727227
-0.00372123
-0.580165
0.583159
0.00790991
-0.0117636
-0.675496
0.679349
0.0162486
-0.0202184
-0.782682
0.786652
0.0246471
-0.0286473
-0.902009
0.906009
0.0332689
-0.0368026
-1.03309
1.03662
0.0401658
-0.0427988
-1.1755
1.17813
0.0449296
-0.0454421
-1.32884
1.32935
0.044686
-0.0424954
-1.4918
1.48961
0.0392862
-0.0348019
-1.39998
1.3955
0.0307327
-0.0262867
-1.1079
1.10346
0.0223587
-0.0183061
-0.886503
0.882451
0.0147486
-0.0111555
-0.71509
0.711497
0.00843932
-0.00546435
-0.580328
0.577353
0.00301769
-0.000828903
-0.473047
0.470859
-0.000856986
0.00240741
-0.38705
0.3855
-0.00328655
0.00372695
-0.315705
0.315265
-0.00365549
0.00263665
-0.229376
0.230395
-0.00127583
-0.0542565
0.0555324
-0.118091
0.116796
0.00129568
-0.00220849
0.000993648
-0.490855
0.49207
0.00198135
-0.00506338
-0.58709
0.590172
0.00905226
-0.0126595
-0.683162
0.68677
0.016696
-0.0206975
-0.790781
0.794783
0.0249468
-0.0292137
-0.90991
0.914177
0.0332804
-0.0366993
-1.04023
1.04365
0.0401858
-0.0425183
-1.18056
1.1829
0.0440329
-0.044657
-1.32957
1.3302
0.0436262
-0.0411789
-1.48717
1.48472
0.0375565
-0.0330575
-1.39096
1.38646
0.0288773
-0.0244089
-1.09866
1.09419
0.0206357
-0.016735
-0.878339
0.874439
0.0134091
-0.010236
-0.708055
0.704882
0.00748457
-0.00486
-0.574375
0.571751
0.00275743
-0.000626388
-0.468369
0.466238
-0.000997756
0.00220205
-0.38307
0.381866
-0.00306093
0.00353796
-0.312626
0.312149
-0.00349571
0.00251287
-0.227603
0.228586
-0.00125211
-0.0545148
0.0557669
-0.119585
0.118448
0.00113678
-0.00104737
-0.000483762
-0.496377
0.497908
0.00342946
-0.006602
-0.593851
0.597023
0.0104098
-0.0140911
-0.690656
0.694337
0.018195
-0.0220278
-0.798794
0.802627
0.0265926
-0.0302883
-0.917999
0.921695
0.0344661
-0.0378125
-1.04721
1.05056
0.0412253
-0.0436795
-1.18511
1.18757
0.0452583
-0.0453541
-1.33034
1.33043
0.0440832
-0.0412882
-1.48177
1.47897
0.0374514
-0.0324144
-1.38145
1.37642
0.0279827
-0.0233027
-1.08961
1.08493
0.0194927
-0.0155782
-0.87033
0.866415
0.0124466
-0.00932861
-0.701587
0.698469
0.00676665
-0.0042926
-0.569077
0.566603
0.00226078
-0.000511529
-0.463981
0.462232
-0.00103469
0.00217847
-0.379551
0.378407
-0.00307029
0.00345516
-0.30984
0.309455
-0.00333133
0.00251105
-0.226058
0.226878
-0.00119437
-0.0549133
0.0561077
-0.121197
0.120424
0.000772822
-9.58542e-05
-0.0020405
-0.502075
0.504212
0.00488949
-0.00816894
-0.600252
0.603532
0.0118206
-0.0155786
-0.698063
0.701821
0.0197584
-0.0239291
-0.80653
0.8107
0.0281586
-0.0321972
-0.925686
0.929724
0.0365182
-0.039786
-1.05432
1.05759
0.0433557
-0.0457415
-1.18975
1.19213
0.0471996
-0.0474375
-1.33061
1.33085
0.0459752
-0.0425822
-1.47566
1.47227
0.0379545
-0.0324929
-1.37096
1.3655
0.0276872
-0.0225836
-1.07984
1.07474
0.0184743
-0.0146587
-0.862379
0.858563
0.0112379
-0.00837551
-0.695209
0.692347
0.00597791
-0.00361267
-0.564307
0.561942
0.00189435
-0.000206511
-0.460036
0.458348
-0.0011123
0.00232797
-0.376596
0.375381
-0.00302939
0.00337559
-0.307423
0.307077
-0.00337419
0.00255086
-0.224815
0.225638
-0.00123731
-0.0553932
0.0566305
-0.123142
0.122588
0.000554163
0.000866033
-0.00289041
-0.508068
0.510092
0.0063732
-0.00948318
-0.607044
0.610154
0.0134368
-0.0172727
-0.705412
0.709248
0.0215535
-0.0255859
-0.814746
0.818779
0.0301728
-0.0341356
-0.933884
0.937847
0.0386333
-0.0424729
-1.06133
1.06516
0.0458194
-0.0485279
-1.19447
1.19718
0.0502389
-0.0502468
-1.33069
1.3307
0.0484702
-0.0448401
-1.46842
1.46479
0.0393994
-0.0331621
-1.35918
1.35294
0.0274835
-0.021828
-1.06923
1.06357
0.0174647
-0.0133411
-0.854287
0.850163
0.01004
-0.00719729
-0.689143
0.686301
0.00494861
-0.00273256
-0.559653
0.557437
0.00109614
0.000304661
-0.456547
0.455146
-0.00159977
0.00261603
-0.373813
0.372796
-0.00326334
0.00357133
-0.305274
0.304966
-0.00343328
0.00256661
-0.223984
0.224851
-0.00125009
-0.0561076
0.0573577
-0.125348
0.125039
0.000308449
0.00186499
-0.00413586
-0.514081
0.516352
0.00749067
-0.0108862
-0.613731
0.617126
0.01492
-0.0188015
-0.71294
0.716822
0.0233955
-0.0275147