/*--------------------------------*- C++ -*----------------------------------*\
| =========                 |                                                 |
| \\      /  F ield         | OpenFOAM: The Open Source CFD Toolbox           |
|  \\    /   O peration     | Version:  2112                                  |
|   \\  /    A nd           | Website:  www.openfoam.com                      |
|    \\/     M anipulation  |                                                 |
\*---------------------------------------------------------------------------*/
FoamFile
{
    version     2.0;
    format      ascii;
    arch        "LSB;label=32;scalar=64";
    class       volVectorField;
    location    "3.5";
    object      U;
}
// * * * * * * * * * * * * * * * * * * * * * * * * * * * * * * * * * * * * * //

dimensions      [0 1 -1 0 0 0 0];

internalField   nonuniform List<vector> 
8800
(
(0.976595 -0.091202 0)
(1.00467 -0.0591149 0)
(1.00062 -0.0304418 0)
(1.00126 -0.0148709 0)
(1.00111 -0.00733924 0)
(1.00079 -0.00364791 0)
(1.00043 -0.0018495 0)
(1.00018 -0.00103736 0)
(1.00002 -0.000499465 0)
(0.99981 -6.97582e-05 0)
(0.99993 0.000292971 0)
(1.00011 0.000791649 0)
(1.0003 0.00141432 0)
(1.00063 0.00254105 0)
(1.00098 0.0051953 0)
(1.00125 0.0104613 0)
(1.00112 0.0213247 0)
(1.0003 0.0420373 0)
(1.00964 0.0801104 0)
(0.774405 0.0482721 0)
(0.371636 -0.012575 0)
(1.0497 -0.0640017 0)
(1.08802 -0.0589306 0)
(1.0503 -0.0483047 0)
(1.02435 -0.0368062 0)
(1.00998 -0.026043 0)
(1.0036 -0.01746 0)
(1.00133 -0.0113014 0)
(1.00065 -0.00670204 0)
(1.00065 -0.00268256 0)
(1.00069 0.00107045 0)
(1.00054 0.0049558 0)
(1.00083 0.0090577 0)
(1.00211 0.0142181 0)
(1.00599 0.0214795 0)
(1.01599 0.0313328 0)
(1.03581 0.0427399 0)
(1.06874 0.0539099 0)
(1.0936 0.0620451 0)
(0.85414 0.0493327 0)
(0.263648 -0.000141399 0)
(1.07264 -0.0259132 0)
(1.0816 -0.0313009 0)
(1.0546 -0.0308685 0)
(1.03616 -0.0280248 0)
(1.02416 -0.0239609 0)
(1.01613 -0.0185742 0)
(1.01116 -0.0127162 0)
(1.00847 -0.00693841 0)
(1.00728 -0.00105793 0)
(1.00768 0.00482766 0)
(1.00947 0.0105881 0)
(1.01315 0.0163419 0)
(1.01948 0.021936 0)
(1.02922 0.0265033 0)
(1.04405 0.0298234 0)
(1.06676 0.031644 0)
(1.08991 0.0299806 0)
(0.976264 0.0206903 0)
(0.263457 0.000149599 0)
(0.257392 0.000386763 0)
(1.03116 -0.00692106 0)
(1.05779 -0.0158717 0)
(1.04612 -0.0214091 0)
(1.0348 -0.022986 0)
(1.02535 -0.021268 0)
(1.01831 -0.017466 0)
(1.01343 -0.0125487 0)
(1.01038 -0.00701285 0)
(1.00894 -0.000832516 0)
(1.00934 0.00540344 0)
(1.01151 0.0111097 0)
(1.01536 0.0161908 0)
(1.02123 0.0204404 0)
(1.02944 0.0232554 0)
(1.03984 0.0231815 0)
(1.05189 0.0197098 0)
(1.05694 0.0119883 0)
(0.930372 0.00275139 0)
(0.257053 -0.000379782 0)
(0.257798 -3.94082e-05 0)
(1.01387 -0.00299884 0)
(1.04428 -0.0074099 0)
(1.04121 -0.0111948 0)
(1.03614 -0.0134748 0)
(1.03065 -0.0140423 0)
(1.02545 -0.0128032 0)
(1.02094 -0.00997595 0)
(1.01763 -0.00584187 0)
(1.0161 -0.000514126 0)
(1.01647 0.00505776 0)
(1.01879 0.00970601 0)
(1.02248 0.0130098 0)
(1.02733 0.0148188 0)
(1.03269 0.0149328 0)
(1.03795 0.0132525 0)
(1.04232 0.0099636 0)
(1.03957 0.0055082 0)
(0.917072 0.00140765 0)
(0.257242 4.98186e-05 0)
(0.256872 5.67396e-06 0)
(1.00519 -0.00130131 0)
(1.03519 -0.00337178 0)
(1.03438 -0.005519 0)
(1.03194 -0.0072424 0)
(1.02889 -0.00810481 0)
(1.02556 -0.00785645 0)
(1.0223 -0.00635954 0)
(1.01964 -0.00360715 0)
(1.01827 0.00014981 0)
(1.01849 0.00405341 0)
(1.02039 0.00708534 0)
(1.02297 0.00894043 0)
(1.02617 0.00947201 0)
(1.0293 0.00881074 0)
(1.03197 0.00718067 0)
(1.03381 0.00496126 0)
(1.02956 0.0025731 0)
(0.910156 0.000653033 0)
(0.256075 1.78086e-06 0)
(0.256489 -4.60984e-06 0)
(1.00159 -0.000682832 0)
(1.0314 -0.00164268 0)
(1.03141 -0.00269938 0)
(1.03026 -0.00365692 0)
(1.02862 -0.00426111 0)
(1.02659 -0.00428316 0)
(1.02437 -0.00349694 0)
(1.02238 -0.00178471 0)
(1.02117 0.000704571 0)
(1.02121 0.00330193 0)
(1.02246 0.00510701 0)
(1.02415 0.00596022 0)
(1.02606 0.00593282 0)
(1.02775 0.00521005 0)
(1.02903 0.00405817 0)
(1.02977 0.00273872 0)
(1.02504 0.00145708 0)
(0.906876 0.000438222 0)
(0.255506 1.62353e-05 0)
(0.256293 3.30675e-06 0)
(0.999775 -0.000292588 0)
(1.02946 -0.000747234 0)
(1.02975 -0.00125744 0)
(1.02911 -0.00173216 0)
(1.02815 -0.00204501 0)
(1.02686 -0.0020399 0)
(1.02536 -0.00154371 0)
(1.02387 -0.000437917 0)
(1.02281 0.00121653 0)
(1.02264 0.00289155 0)
(1.02331 0.00393175 0)
(1.02431 0.00425419 0)
(1.02537 0.00401335 0)
(1.02626 0.00338759 0)
(1.0269 0.002572 0)
(1.02724 0.00172181 0)
(1.02236 0.000931151 0)
(0.904814 0.000300247 0)
(0.255024 1.28881e-05 0)
(0.256296 4.51403e-06 0)
(0.99901 -5.55466e-05 0)
(1.02861 -0.000226927 0)
(1.02903 -0.000418659 0)
(1.02864 -0.000583861 0)
(1.02802 -0.00065697 0)
(1.02715 -0.000546534 0)
(1.02607 -0.000141319 0)
(1.0249 0.000637354 0)
(1.02392 0.00174999 0)
(1.02353 0.00279276 0)
(1.02373 0.00332588 0)
(1.0242 0.00335289 0)
(1.02472 0.00301888 0)
(1.02515 0.00247373 0)
(1.02545 0.00185061 0)
(1.02558 0.00123796 0)
(1.02063 0.000685213 0)
(0.903404 0.000237264 0)
(0.254644 1.30415e-05 0)
(0.256426 1.16094e-05 0)
(0.99888 9.02683e-05 0)
(1.02839 0.000104089 0)
(1.02888 0.000126928 0)
(1.0286 0.000181035 0)
(1.02815 0.000301428 0)
(1.0275 0.000538592 0)
(1.02664 0.000950903 0)
(1.02563 0.00157355 0)
(1.02465 0.00235286 0)
(1.02402 0.00297779 0)
(1.02382 0.00321496 0)
(1.0239 0.00300648 0)
(1.02406 0.00259477 0)
(1.0242 0.0020772 0)
(1.02431 0.00153992 0)
(1.02432 0.00103416 0)
(1.01933 0.000587823 0)
(0.902279 0.000217515 0)
(0.254291 1.42155e-05 0)
(0.256669 1.43484e-05 0)
(0.999153 0.000221183 0)
(1.02865 0.000372848 0)
(1.02915 0.000550987 0)
(1.02892 0.000774564 0)
(1.02854 0.0010607 0)
(1.02797 0.00143183 0)
(1.02719 0.00190825 0)
(1.02621 0.00248263 0)
(1.02512 0.0030714 0)
(1.02423 0.00341023 0)
(1.02373 0.00333697 0)
(1.02347 0.00303249 0)
(1.02336 0.0025463 0)
(1.02331 0.00200577 0)
(1.02329 0.0014782 0)
(1.02321 0.000997587 0)
(1.01819 0.000578484 0)
(0.90124 0.000225488 0)
(0.253922 1.65782e-05 0)
(0.257026 1.98898e-05 0)
(0.999802 0.000342304 0)
(1.02925 0.000614836 0)
(1.02976 0.00093387 0)
(1.02953 0.00131237 0)
(1.02916 0.00175909 0)
(1.02859 0.00227816 0)
(1.02779 0.00286022 0)
(1.02673 0.00346083 0)
(1.02545 0.00395877 0)
(1.02426 0.00411092 0)
(1.02342 0.00386562 0)
(1.02289 0.0033763 0)
(1.02256 0.00278014 0)
(1.02236 0.00216799 0)
(1.02224 0.00159273 0)
(1.02211 0.00108036 0)
(1.01705 0.000636372 0)
(0.900153 0.000257501 0)
(0.2535 2.02847e-05 0)
(0.25751 2.58854e-05 0)
(1.0008 0.000472049 0)
(1.0302 0.000868275 0)
(1.03069 0.00133042 0)
(1.03044 0.00187055 0)
(1.03003 0.00249107 0)
(1.02941 0.00318267 0)
(1.0285 0.0039112 0)
(1.02726 0.0045967 0)
(1.02569 0.00507296 0)
(1.02413 0.00508877 0)
(1.02295 0.00466466 0)
(1.02214 0.00400196 0)
(1.02161 0.00325778 0)
(1.02127 0.00252492 0)
(1.02106 0.00185157 0)
(1.02087 0.00125873 0)
(1.01579 0.000747592 0)
(0.898907 0.000307864 0)
(0.252993 2.50307e-05 0)
(0.258146 3.36409e-05 0)
(1.00217 0.000626517 0)
(1.03152 0.0011612 0)
(1.03198 0.0017856 0)
(1.03169 0.00251056 0)
(1.0312 0.00333428 0)
(1.03045 0.0042349 0)
(1.02936 0.00515609 0)
(1.02784 0.00597872 0)
(1.02588 0.00648435 0)
(1.02387 0.00638946 0)
(1.02229 0.00577598 0)
(1.02118 0.00490963 0)
(1.02044 0.00397278 0)
(1.01995 0.00306889 0)
(1.01965 0.00224894 0)
(1.01941 0.00153082 0)
(1.01429 0.000914262 0)
(0.897411 0.00038042 0)
(0.252367 3.15755e-05 0)
(0.258973 4.35794e-05 0)
(1.00398 0.000817444 0)
(1.03327 0.00152014 0)
(1.03369 0.00233943 0)
(1.03333 0.0032882 0)
(1.03273 0.00435997 0)
(1.0318 0.00552142 0)
(1.03044 0.00669058 0)
(1.02853 0.00770472 0)
(1.02605 0.0082806 0)
(1.02347 0.00808232 0)
(1.02141 0.00725175 0)
(1.01996 0.00613233 0)
(1.01897 0.00494619 0)
(1.01832 0.00381412 0)
(1.01792 0.00279298 0)
(1.01762 0.00190147 0)
(1.01245 0.00113792 0)
(0.895561 0.000475799 0)
(0.251584 3.96191e-05 0)
(0.260047 5.64894e-05 0)
(1.00635 0.00105986 0)
(1.03556 0.00197186 0)
(1.03592 0.00303544 0)
(1.03546 0.00426403 0)
(1.03469 0.00564749 0)
(1.03352 0.00713765 0)
(1.03179 0.00862339 0)
(1.02938 0.00988981 0)
(1.02621 0.0105709 0)
(1.02291 0.0102595 0)
(1.02027 0.00916482 0)
(1.01839 0.00772717 0)
(1.01711 0.00622047 0)
(1.01628 0.00479168 0)
(1.01575 0.00350726 0)
(1.01539 0.0023895 0)
(1.01016 0.00143093 0)
(0.893241 0.000599151 0)
(0.2506 4.99439e-05 0)
(0.261439 7.35756e-05 0)
(1.00942 0.00137271 0)
(1.03852 0.00255204 0)
(1.0388 0.00392645 0)
(1.0382 0.00551119 0)
(1.03722 0.00729083 0)
(1.03572 0.0091993 0)
(1.0335 0.0110876 0)
(1.03042 0.0126751 0)
(1.02638 0.0134933 0)
(1.02217 0.0130434 0)
(1.0188 0.0116164 0)
(1.0164 0.00977444 0)
(1.01477 0.00785827 0)
(1.0137 0.00604824 0)
(1.01303 0.00442463 0)
(1.01258 0.0030139 0)
(1.00727 0.00180487 0)
(0.890319 0.000755917 0)
(0.249358 6.28537e-05 0)
(0.26325 9.63517e-05 0)
(1.01338 0.00178102 0)
(1.04235 0.00330575 0)
(1.04252 0.00508117 0)
(1.04174 0.0071245 0)
(1.04047 0.00941169 0)
(1.03852 0.0118528 0)
(1.03567 0.0142501 0)
(1.0317 0.0162384 0)
(1.02654 0.0172213 0)
(1.02118 0.0165884 0)
(1.01691 0.0147361 0)
(1.01386 0.0123787 0)
(1.01179 0.00994188 0)
(1.01043 0.0076471 0)
(1.00958 0.00559274 0)
(1.00902 0.00380774 0)
(1.00363 0.00228003 0)
(0.886629 0.000953934 0)
(0.247794 7.91089e-05 0)
(0.26562 0.000127197 0)
(1.01852 0.00232033 0)
(1.04731 0.00429613 0)
(1.04733 0.00659331 0)
(1.0463 0.00923032 0)
(1.04464 0.012171 0)
(1.04209 0.0152917 0)
(1.03839 0.0183287 0)
(1.03329 0.0208078 0)
(1.02669 0.0219737 0)
(1.01988 0.021088 0)
(1.01447 0.018688 0)
(1.01062 0.0156756 0)
(1.008 0.0125784 0)
(1.00629 0.00966949 0)
(1.00522 0.00706893 0)
(1.00453 0.00481065 0)
(0.99902 0.00287892 0)
(0.881967 0.00120268 0)
(0.245824 9.90522e-05 0)
(0.268745 0.000169969 0)
(1.0252 0.0030437 0)
(1.05374 0.00561481 0)
(1.05355 0.00859708 0)
(1.05218 0.0120085 0)
(1.04998 0.0157934 0)
(1.04663 0.0197785 0)
(1.04181 0.0236104 0)
(1.03522 0.0266747 0)
(1.02679 0.0280236 0)
(1.01817 0.0267814 0)
(1.01135 0.0236736 0)
(1.00651 0.019832 0)
(1.00321 0.0159027 0)
(1.00105 0.0122206 0)
(0.999707 0.00893107 0)
(0.998848 0.00607667 0)
(0.993194 0.00363396 0)
(0.87608 0.00151587 0)
(0.24335 0.000124236 0)
(0.272912 0.0002307 0)
(1.03392 0.00403142 0)
(1.06212 0.00740204 0)
(1.06163 0.0112936 0)
(1.05978 0.015722 0)
(1.05682 0.0205986 0)
(1.05238 0.025677 0)
(1.04605 0.0304791 0)
(1.03753 0.0342129 0)
(1.02678 0.0357063 0)
(1.0159 0.0339548 0)
(1.00735 0.0299371 0)
(1.00128 0.0250525 0)
(0.997146 0.0200835 0)
(0.994436 0.0154341 0)
(0.992738 0.0112803 0)
(0.991668 0.00767473 0)
(0.985831 0.00458749 0)
(0.868646 0.00191053 0)
(0.240238 0.00015561 0)
(0.278567 0.000321061 0)
(1.04538 0.00542831 0)
(1.07307 0.00989727 0)
(1.07214 0.0150057 0)
(1.06959 0.0207744 0)
(1.06556 0.0270606 0)
(1.05959 0.0335035 0)
(1.05123 0.0394517 0)
(1.04019 0.0438954 0)
(1.02654 0.0454236 0)
(1.0129 0.0429443 0)
(1.00225 0.0377687 0)
(0.994679 0.0315921 0)
(0.989497 0.0253384 0)
(0.986086 0.0194877 0)
(0.983941 0.0142561 0)
(0.982602 0.00970656 0)
(0.976531 0.00580279 0)
(0.859259 0.0024126 0)
(0.236325 0.000195608 0)
(0.286463 0.000469024 0)
(1.06053 0.00753608 0)
(1.08749 0.0135558 0)
(1.0859 0.0202894 0)
(1.08226 0.027814 0)
(1.07661 0.0359011 0)
(1.06845 0.0439986 0)
(1.05733 0.0512159 0)
(1.04305 0.0563035 0)
(1.02581 0.0576361 0)
(1.0089 0.0541246 0)
(0.995749 0.0475002 0)
(0.986365 0.0397608 0)
(0.979885 0.0319557 0)
(0.975579 0.0246402 0)
(0.972853 0.0180759 0)
(0.971165 0.012344 0)
(0.964794 0.00739765 0)
(0.84739 0.00307573 0)
(0.231376 0.000249932 0)
(0.29805 0.000751708 0)
(1.08089 0.0110662 0)
(1.10683 0.0192526 0)
(1.10409 0.0280846 0)
(1.0986 0.0378741 0)
(1.09038 0.0482111 0)
(1.079 0.0581952 0)
(1.06413 0.066644 0)
(1.04575 0.0721075 0)
(1.02424 0.0728343 0)
(1.00353 0.0678846 0)
(0.987508 0.059496 0)
(0.975986 0.0499356 0)
(0.967902 0.0403297 0)
(0.962425 0.0312917 0)
(0.958902 0.0231296 0)
(0.956733 0.0159503 0)
(0.949968 0.00966831 0)
(0.832311 0.00405753 0)
(0.225009 0.000336234 0)
(0.316209 0.00136832 0)
(1.10942 0.0175915 0)
(1.13379 0.0285232 0)
(1.12861 0.0399745 0)
(1.11967 0.0526874 0)
(1.10726 0.0656655 0)
(1.09117 0.0774875 0)
(1.07131 0.086772 0)
(1.04787 0.092012 0)
(1.02141 0.0914895 0)
(0.996485 0.0845962 0)
(0.977277 0.0741368 0)
(0.963298 0.0625734 0)
(0.95324 0.0510221 0)
(0.946182 0.0401094 0)
(0.941446 0.0301622 0)
(0.938439 0.0213188 0)
(0.93105 0.0133733 0)
(0.812996 0.0058313 0)
(0.216592 0.000508267 0)
(0.344569 0.00291332 0)
(1.15135 0.0313122 0)
(1.17185 0.0450111 0)
(1.16122 0.0598247 0)
(1.14617 0.075932 0)
(1.12737 0.0911419 0)
(1.10481 0.103846 0)
(1.07864 0.112827 0)
(1.04924 0.11673 0)
(1.01728 0.114005 0)
(0.98784 0.104563 0)
(0.965212 0.091778 0)
(0.948483 0.0781708 0)
(0.936029 0.0647452 0)
(0.926799 0.0520663 0)
(0.92006 0.0404303 0)
(0.915265 0.0299699 0)
(0.906473 0.0201621 0)
(0.787864 0.00920346 0)
(0.205961 0.000809843 0)
(0.38788 0.0131576 3.03326e-20)
(1.20836 0.0613468 2.80813e-20)
(1.21876 0.0776229 -1.01802e-20)
(1.19906 0.0954426 0)
(1.17554 0.112834 -2.71127e-34)
(1.14864 0.127823 3.97537e-21)
(1.1184 0.139289 -7.23836e-21)
(1.08509 0.14627 0)
(1.04914 0.147577 1.50071e-34)
(1.01116 0.141827 -9.04857e-21)
(0.976729 0.129457 0)
(0.950186 0.114342 -1.07699e-20)
(0.930107 0.098944 -3.17869e-20)
(0.914525 0.0841139 -1.50418e-20)
(0.902135 0.0703411 -4.53906e-21)
(0.892079 0.057999 -2.70788e-21)
(0.883677 0.0471472 0)
(0.871928 0.0375807 1.92594e-21)
(0.753942 0.0252684 2.27437e-21)
(0.194894 0.0060648 4.12543e-20)
(0.405837 0.0362663 1.75347e-20)
(1.26019 0.115453 4.91873e-22)
(1.26236 0.131029 2.60542e-21)
(1.23334 0.14662 0)
(1.20103 0.161569 -1.34482e-20)
(1.16612 0.174175 -1.54359e-20)
(1.12856 0.183317 -7.235e-21)
(1.0884 0.18786 -2.60025e-20)
(1.04589 0.18658 0)
(1.00141 0.178071 3.83366e-20)
(0.961009 0.163366 3.80535e-20)
(0.929438 0.146758 1.12919e-20)
(0.904962 0.130612 4.13237e-20)
(0.885276 0.115642 5.84272e-20)
(0.868893 0.102268 0)
(0.854793 0.0909144 8.35883e-20)
(0.842265 0.0818056 1.21356e-19)
(0.827097 0.0745765 1.35468e-19)
(0.717566 0.0606626 -1.56551e-19)
(0.190531 0.0170329 -2.90328e-21)
(0.393556 0.0588425 0)
(1.29445 0.187712 3.08516e-21)
(1.29385 0.198595 0)
(1.25854 0.208866 -1.64231e-20)
(1.21983 0.219034 0)
(1.17849 0.227373 -3.00436e-20)
(1.1346 0.232608 1.473e-20)
(1.08831 0.233463 -5.20441e-20)
(1.03991 0.228669 -1.21172e-21)
(0.98978 0.216897 1.96825e-20)
(0.944529 0.199691 8.29978e-20)
(0.909175 0.181762 -2.22937e-23)
(0.881668 0.165372 -2.98352e-20)
(0.859538 0.150982 -5.4376e-20)
(0.841274 0.13876 6.50121e-20)
(0.825892 0.128848 -1.15417e-19)
(0.812628 0.121403 -1.54359e-20)
(0.797522 0.115923 0)
(0.696471 0.0988225 9.75148e-22)
(0.190698 0.0278459 0)
(0.385265 0.0794947 1.64141e-20)
(1.31121 0.261039 -1.5209e-20)
(1.31101 0.269969 -1.66553e-20)
(1.27287 0.27543 7.64722e-21)
(1.23046 0.280559 -1.32503e-20)
(1.18484 0.284071 6.35522e-20)
(1.13628 0.284788 3.08051e-20)
(1.08513 0.281398 0)
(1.03187 0.272589 -9.81664e-20)
(0.977021 0.257096 0)
(0.927859 0.237122 -4.29951e-20)
(0.889739 0.217719 -5.31472e-20)
(0.860389 0.200844 -3.19835e-20)
(0.837083 0.186563 -3.90464e-20)
(0.818178 0.174775 0)
(0.802562 0.165405 0)
(0.78937 0.158406 -9.97442e-20)
(0.774546 0.153136 1.9707e-20)
(0.677856 0.132322 -1.17601e-20)
(0.188133 0.0375502 -1.37323e-20)
(0.380879 0.0989781 1.65068e-21)
(1.31812 0.331928 0)
(1.31837 0.339917 3.51954e-20)
(1.27859 0.341419 2.21606e-20)
(1.23388 0.342337 3.21063e-20)
(1.18533 0.34154 0)
(1.13327 0.337903 3.03445e-20)
(1.07825 0.330192 5.76248e-20)
(1.02101 0.317115 5.01912e-20)
(0.962385 0.297562 9.08235e-20)
(0.910326 0.274432 0)
(0.870419 0.253192 -1.12335e-19)
(0.840056 0.23541 -6.73148e-20)
(0.816243 0.220801 -3.94278e-20)
(0.797163 0.208972 2.44663e-19)
(0.781604 0.1996 2.92445e-20)
(0.768614 0.192589 1.39877e-19)
(0.754102 0.187183 -6.71496e-19)
(0.661123 0.162672 4.01464e-19)
(0.185668 0.0465003 -4.84519e-19)
(0.377773 0.117414 1.10557e-20)
(1.3197 0.399251 1.51099e-21)
(1.31967 0.407158 -3.84231e-21)
(1.27868 0.405638 -2.18712e-20)
(1.23226 0.402994 -2.72116e-20)
(1.1814 0.398377 1.6668e-21)
(1.12653 0.390724 -3.32009e-20)
(1.06835 0.378822 6.00939e-20)
(1.00781 0.3614 -1.0784e-19)
(0.946152 0.337494 0)
(0.89198 0.310824 -5.08684e-20)
(0.851011 0.287365 -6.27381e-22)
(0.820218 0.268328 -7.21989e-20)
(0.796326 0.253038 0)
(0.777367 0.24084 -5.19086e-20)
(0.762044 0.231206 -1.23317e-19)
(0.749357 0.223918 3.34903e-19)
(0.735182 0.218142 -3.33997e-19)
(0.645446 0.190245 4.76727e-19)
(0.183184 0.054805 -4.96106e-19)
(0.375336 0.134928 -8.38876e-22)
(1.31767 0.463329 6.89517e-22)
(1.31674 0.471297 -9.42687e-21)
(1.27471 0.467405 8.77368e-21)
(1.22687 0.461858 -1.45771e-20)
(1.1741 0.453947 0)
(1.11685 0.44265 -3.14667e-20)
(1.05589 0.426694 -6.35656e-20)
(0.992504 0.404881 -5.62763e-20)
(0.928325 0.376357 0)
(0.87268 0.345766 -5.13599e-20)
(0.83126 0.319723 -6.23689e-20)
(0.800542 0.299149 7.6181e-20)
(0.776902 0.282964 -4.67691e-20)
(0.75829 0.270174 -2.17706e-19)
(0.743351 0.260155 1.30966e-19)
(0.731021 0.252478 4.00548e-20)
(0.717287 0.246159 0)
(0.630505 0.215238 -4.45531e-19)
(0.180844 0.0625577 -1.61749e-20)
(0.373672 0.151875 3.20789e-21)
(1.31327 0.524324 -2.02943e-21)
(1.31101 0.532515 5.50168e-21)
(1.26798 0.526672 3.69423e-20)
(1.2188 0.518678 -5.64316e-20)
(1.16428 0.507922 6.56265e-20)
(1.10482 0.493312 6.98589e-20)
(1.04131 0.473514 -1.02653e-19)
(0.97531 0.447271 3.38322e-20)
(0.908954 0.413823 -2.17475e-19)
(0.852359 0.378859 -5.66605e-20)
(0.811071 0.349912 0)
(0.780849 0.327604 7.99666e-20)
(0.757806 0.310375 9.45228e-20)
(0.739731 0.296969 1.13978e-19)
(0.725263 0.286471 -1.37088e-19)
(0.713395 0.278407 -4.05467e-20)
(0.700115 0.271532 4.90342e-20)
(0.616193 0.237909 0)
(0.178883 0.0699087 -3.40615e-20)
(0.372584 0.168347 -4.52878e-20)
(1.30727 0.582385 1.70456e-20)
(1.30345 0.59087 -7.51324e-21)
(1.25937 0.58345 2.5094e-20)
(1.20887 0.573458 -2.72002e-20)
(1.15262 0.560213 -2.65513e-21)
(1.091 0.542584 -7.82311e-20)
(1.02501 0.519133 -3.74378e-20)
(0.95643 0.488384 -9.82677e-20)
(0.888089 0.449666 6.5458e-23)
(0.830965 0.409861 -1.73499e-19)
(0.790353 0.377654 1.41507e-19)
(0.761132 0.353461 -8.38412e-20)
(0.739029 0.33517 1.0005e-19)
(0.721688 0.321149 0)
(0.707803 0.310262 -7.0596e-20)
(0.69639 0.301867 -1.96988e-21)
(0.68361 0.294507 -2.02093e-19)
(0.602661 0.258628 -3.04898e-20)
(0.177305 0.0769446 0)
(0.372035 0.184253 0)
(1.30039 0.637851 1.25931e-20)
(1.29471 0.646627 -9.32197e-21)
(1.24954 0.637871 -2.53549e-20)
(1.19768 0.626181 -3.54185e-20)
(1.13966 0.61081 0)
(1.07585 0.590451 -3.71418e-20)
(1.0073 0.563519 9.29246e-23)
(0.936068 0.528256 2.11759e-19)
(0.865718 0.483869 -2.99705e-20)
(0.80842 0.438613 -1.232e-19)
(0.769088 0.402744 7.29406e-20)
(0.741445 0.376578 2.64992e-23)
(0.720642 0.357297 1.02429e-19)
(0.704277 0.34279 6.36221e-20)
(0.691068 0.331592 -1.49606e-19)
(0.680195 0.322968 1.77532e-19)
(0.66791 0.31524 5.24385e-20)
(0.589939 0.277468 2.21008e-19)
(0.176177 0.0837339 -5.91398e-19)
(0.372177 0.19996 -1.36885e-20)
(1.29322 0.690554 1.17212e-20)
(1.28534 0.699937 -2.49384e-21)
(1.239 0.690051 2.48225e-20)
(1.18572 0.676947 0)
(1.12586 0.659708 -3.62544e-20)
(1.05976 0.636938 1.29213e-19)
(0.988501 0.606694 8.6512e-20)
(0.91442 0.566925 0)
(0.841869 0.51643 -4.23561e-19)
(0.784626 0.464973 3.21465e-19)
(0.747229 0.424954 0)
(0.721882 0.396721 9.00267e-20)
(0.70288 0.376634 3.27102e-22)
(0.687713 0.361843 -1.91521e-19)
(0.675305 0.35059 7.62806e-20)
(0.664912 0.341915 0)
(0.653149 0.333964 2.72825e-19)
(0.578307 0.2949 0)
(0.175706 0.0904988 -2.68384e-19)
(0.372933 0.215513 1.55609e-20)
(1.28572 0.741015 1.78569e-20)
(1.27572 0.750914 -1.56692e-22)
(1.22817 0.740121 0)
(1.17335 0.72581 -3.80893e-20)
(1.11158 0.707006 0)
(1.04309 0.682061 -1.33104e-19)
(0.968908 0.648803 -4.25435e-20)
(0.891656 0.604576 3.94834e-20)
(0.816525 0.547563 -2.09224e-19)
(0.759343 0.488898 3.35843e-20)
(0.724736 0.443937 0)
(0.702656 0.413588 -1.81312e-19)
(0.686077 0.393062 -3.03837e-22)
(0.672354 0.378459 0)
(0.660742 0.367464 1.88029e-21)
(0.650853 0.35893 2.3531e-19)
(0.63955 0.350954 -2.2781e-19)
(0.567965 0.311116 6.77234e-20)
(0.175782 0.0972279 0)
(0.373848 0.230837 0)
(1.27822 0.789476 2.15407e-20)
(1.26609 0.799747 5.42858e-21)
(1.2173 0.788199 -2.50733e-21)
(1.16092 0.772876 -1.55641e-20)
(1.09717 0.7527 -9.34452e-20)
(1.02618 0.72587 5.15956e-20)
(0.948829 0.689878 -5.0105e-20)
(0.867929 0.641369 1.75648e-19)
(0.789621 0.577444 -3.35141e-19)
(0.732373 0.510317 3.02627e-21)
(0.701478 0.459411 -8.0278e-20)
(0.683996 0.426851 2.77655e-19)
(0.670658 0.406469 7.49948e-22)
(0.658636 0.392689 -1.32606e-19)
(0.647754 0.382422 -2.45322e-19)
(0.638201 0.374349 0)
(0.627256 0.36657 0)
(0.559085 0.326553 7.1928e-20)
(0.176274 0.104018 -4.10895e-20)
(0.375311 0.24631 2.1382e-20)
(1.27079 0.835991 -4.38707e-20)
(1.25657 0.846518 -3.58377e-21)
(1.20653 0.83436 0)
(1.14862 0.818188 -4.29756e-22)
(1.08288 0.796888 -9.53477e-20)
(1.00932 0.768463 1.327e-19)
(0.928596 0.730055 2.08148e-19)
(0.84351 0.67752 2.36235e-19)
(0.761138 0.606341 -2.79766e-19)
(0.703305 0.529316 -2.57338e-19)
(0.677214 0.470956 2.06358e-19)
(0.666182 0.435967 0)
(0.657354 0.416731 -5.43974e-20)
(0.647212 0.404871 -1.38028e-19)
(0.636683 0.395901 -1.66623e-19)
(0.627138 0.388559 -2.03892e-19)
(0.616314 0.381171 6.07595e-20)
(0.551705 0.341404 -3.68601e-20)
(0.176935 0.110813 -4.30338e-22)
(0.376916 0.261479 0)
(1.26365 0.880616 0)
(1.24732 0.891289 9.38281e-22)
(1.19599 0.878621 0)
(1.13657 0.861803 5.45614e-20)
(1.06888 0.839572 7.3805e-20)
(0.992786 0.809896 0)
(0.908511 0.769428 2.6875e-20)
(0.818698 0.71322 4.11481e-19)
(0.731064 0.634685 -6.45191e-19)
(0.671692 0.546043 0)
(0.65145 0.477912 -1.20679e-19)
(0.649753 0.44 -1.66182e-22)
(0.64717 0.423595 -1.61648e-21)
(0.638845 0.415418 1.32813e-19)
(0.627742 0.408935 -2.04904e-21)
(0.617281 0.402753 -4.22925e-19)
(0.606203 0.395551 1.2965e-19)
(0.545413 0.356125 3.85407e-20)
(0.177159 0.117329 0)
(0.378522 0.276353 -8.71047e-20)
(1.25681 0.923393 -3.03985e-20)
(1.23846 0.934139 -1.73237e-20)
(1.18584 0.921023 -3.29863e-20)
(1.12489 0.903662 9.5627e-20)
(1.05533 0.880752 0)
(0.976731 0.850116 9.37629e-20)
(0.888876 0.808117 -6.10786e-20)
(0.793846 0.74872 1.4375e-21)
(0.699553 0.662918 4.60037e-20)
(0.636963 0.560847 3.23878e-19)
(0.623434 0.479591 -4.20002e-20)
(0.635199 0.437698 -1.36038e-19)
(0.641554 0.426157 -4.62876e-20)
(0.6353 0.424913 7.01702e-20)
(0.622485 0.422675 -2.67088e-21)
(0.609497 0.417949 1.12163e-19)
(0.596237 0.410385 -2.72295e-19)
(0.537943 0.37083 3.30481e-19)
(0.175333 0.122718 4.86424e-20)
(0.379804 0.290766 3.32532e-20)
(1.25025 0.964338 -1.58642e-20)
(1.22996 0.975106 5.16052e-21)
(1.17615 0.961609 -1.37584e-20)
(1.11375 0.943785 -1.67172e-20)
(1.04234 0.920362 -1.46367e-19)
(0.961284 0.889095 3.0297e-20)
(0.869886 0.846082 -2.65327e-19)
(0.769337 0.784273 -4.89869e-19)
(0.666937 0.691562 -4.02476e-19)
(0.598507 0.574322 0)
(0.591921 0.475092 -1.53771e-19)
(0.622354 0.426752 1.64254e-19)
(0.643568 0.42505 0)
(0.639463 0.436632 -1.36281e-19)
(0.620949 0.440703 8.96978e-20)
(0.600955 0.437737 -1.15368e-19)
(0.582845 0.427058 -1.4958e-19)
(0.527601 0.38482 -2.68548e-19)
(0.170046 0.125599 -2.11753e-19)
(0.381598 0.305043 -3.73127e-20)
(1.24395 1.0035 1.68698e-20)
(1.22184 1.01421 2.57022e-20)
(1.1669 1.00034 -1.37477e-20)
(1.10321 0.982176 4.22289e-20)
(1.03008 0.958392 -9.40148e-20)
(0.946641 0.926762 1.02892e-19)
(0.851691 0.883226 -2.87569e-19)
(0.745448 0.819939 -3.03835e-19)
(0.633674 0.721256 4.44271e-19)
(0.555872 0.587345 7.02572e-19)
(0.554857 0.463596 0)
(0.611276 0.403556 0)
(0.658399 0.41664 -4.75272e-20)
(0.657347 0.45138 0)
(0.626404 0.466795 1.92557e-19)
(0.591608 0.463016 2.52794e-19)
(0.567493 0.448685 0)
(0.512082 0.398813 0)
(0.155783 0.122907 2.39392e-19)
(0.382975 0.318561 4.34833e-20)
(1.23787 1.04094 2.90566e-20)
(1.21411 1.05148 1.81379e-20)
(1.15812 1.03725 8.37787e-21)
(1.09325 1.01878 4.30754e-20)
(1.01863 0.994812 1.1326e-19)
(0.933069 0.963095 -1.50473e-19)
(0.834577 0.919516 -5.85722e-21)
(0.722441 0.855627 -2.13107e-21)
(0.600182 0.752607 6.68573e-21)
(0.508914 0.60126 3.62306e-19)
(0.509544 0.444807 0)
(0.600579 0.362282 8.09723e-20)
(0.692102 0.396423 5.74392e-20)
(0.695557 0.47262 2.07481e-19)
(0.636578 0.518303 8.95412e-20)
(0.572986 0.508447 -1.50811e-19)
(0.536662 0.477801 -9.65538e-20)
(0.478488 0.409146 0)
(0.128421 0.109645 2.80239e-19)
(0.384825 0.332314 -9.9506e-20)
(1.23196 1.07667 0)
(1.20668 1.08689 2.40838e-20)
(1.14981 1.07231 6.08621e-21)
(1.08394 1.05359 -4.23415e-20)
(1.00795 1.02954 -1.48453e-19)
(0.920545 0.998013 3.21466e-19)
(0.818853 0.954867 -1.81967e-20)
(0.700684 0.891317 0)
(0.56691 0.785892 -5.37362e-19)
(0.457846 0.617838 -8.19999e-19)
(0.452524 0.419569 1.93472e-20)
(0.586719 0.294241 -2.56845e-20)
(0.755984 0.355077 0)
(0.774041 0.498615 7.73481e-20)
(0.654276 0.590321 0)
(0.535877 0.584887 0)
(0.478127 0.52271 -1.20554e-19)
(0.413591 0.406998 0)
(0.109657 0.0840526 8.07458e-20)
(0.386196 0.345255 -1.12279e-19)
(1.22613 1.11079 0)
(1.19951 1.12055 4.43717e-20)
(1.14194 1.10564 0)
(1.07523 1.08678 2.03568e-20)
(0.998042 1.06281 0)
(0.909015 1.03174 1.8745e-20)
(0.804473 0.989573 4.5382e-20)
(0.680564 0.927469 4.20323e-20)
(0.534181 0.82187 -6.20365e-19)
(0.402204 0.639819 2.8686e-20)
(0.378186 0.388917 1.01375e-19)
(0.562066 0.184874 -9.67664e-20)
(0.872253 0.279792 -2.50376e-20)
(0.910065 0.57274 -7.85915e-21)
(0.680702 0.739907 0)
(0.462063 0.730247 3.69953e-19)
(0.332579 0.581447 -2.47468e-19)
(0.191361 0.357281 3.00862e-19)
(-0.0426307 0.575585 -3.78959e-19)
(0.387705 0.358066 9.478e-20)
(1.22017 1.1435 1.17275e-19)
(1.19248 1.1527 0)
(1.13443 1.13766 2.51086e-21)
(1.06696 1.11895 -4.73633e-20)
(0.988663 1.09538 2.5767e-19)
(0.898257 1.06522 1.27775e-19)
(0.790971 1.02471 0)
(0.661579 0.965573 3.00506e-19)
(0.501227 0.863054 -3.57957e-20)
(0.338707 0.67167 0)
(0.274449 0.354533 0)
(0.499493 -0.011817 -2.3919e-19)
(1.0383 0.063254 1.91492e-19)
(1.18642 0.597461 1.59688e-19)
(0.814942 0.935412 0)
(0.457926 0.905113 2.10926e-19)
(0.142735 0.891943 -2.73123e-19)
(0.131694 2.11641 -1.4644e-19)
(0.137896 2.90242 -1.71593e-19)
(0.389117 0.369697 -7.28295e-20)
(1.21383 1.17477 -1.51691e-19)
(1.18557 1.18312 2.62015e-20)
(1.12734 1.16815 4.64166e-21)
(1.05917 1.14978 0)
(0.97987 1.12682 1.76595e-19)
(0.888508 1.09795 1.94911e-19)
(0.77878 1.05972 -2.46334e-20)
(0.644394 1.00486 4.63453e-20)
(0.470455 0.909522 6.47064e-19)
(0.269526 0.717923 4.85327e-19)
(0.129507 0.333891 7.435e-20)
(0.297587 -0.168458 -4.87187e-19)
(1.02955 0.128873 1.06928e-18)
(1.34548 0.939201 5.5225e-19)
(0.927295 1.35208 0)
(0.408855 1.38843 0)
(0.296981 2.56263 9.28826e-20)
(0.270253 3.12637 0)
(0.230961 3.25564 2.27292e-19)
(0.393643 0.38101 0)
(1.20675 1.20431 0)
(1.17865 1.21141 0)
(1.12042 1.19685 3.69687e-21)
(1.05158 1.179 -4.4374e-20)
(0.971473 1.15691 1.26115e-19)
(0.879673 1.12976 1.34321e-19)
(0.768019 1.09443 -2.53799e-20)
(0.629345 1.04522 4.1743e-19)
(0.442737 0.961202 1.06171e-20)
(0.200046 0.785215 1.07706e-18)
(-0.0553762 0.391639 1.26157e-20)
(-0.107073 0.0267207 -6.77869e-20)
(0.524396 0.711568 -2.46932e-19)
(1.1962 1.7362 6.06564e-20)
(0.872152 2.07516 -4.17692e-21)
(0.45355 2.66285 -4.58669e-20)
(0.432029 3.26844 -6.9743e-20)
(0.322768 3.34133 4.59122e-20)
(0.258196 3.36446 -3.11602e-20)
(0.263599 0.308491 4.45435e-20)
(1.19799 1.2314 0)
(1.17259 1.23799 -6.08642e-20)
(1.11422 1.22433 -2.09779e-20)
(1.0449 1.20728 -6.61446e-20)
(0.964299 1.18616 -1.29295e-19)
(0.87244 1.15976 -1.51212e-19)
(0.759888 1.12758 3.23209e-19)
(0.619024 1.0849 -3.62969e-19)
(0.424152 1.01666 0)
(0.150874 0.883375 6.02812e-19)
(-0.203289 0.598661 -1.18253e-19)
(-0.402135 0.461873 0)
(-0.18811 1.57385 -2.68502e-19)
(0.72937 2.46067 -3.5664e-19)
(0.607569 2.98508 1.93682e-19)
(0.472651 3.48378 -1.39041e-19)
(0.383581 3.49112 -7.75699e-20)
(0.298006 3.4745 -2.83792e-20)
(0.246993 3.45593 -7.56593e-20)
(0.478155 0.468444 -5.93287e-20)
(1.17998 1.24965 0)
(1.16352 1.27736 6.99031e-20)
(1.1031 1.26533 3.48325e-20)
(1.03265 1.24958 5.30564e-20)
(0.950726 1.23008 1.17857e-19)
(0.855977 1.20675 1.95648e-19)
(0.740989 1.17931 2.60502e-20)
(0.594933 1.14636 3.8889e-19)
(0.385899 1.10225 7.01282e-19)
(0.0639534 1.03387 4.16723e-20)
(-0.448955 0.97494 2.12701e-19)
(-0.982073 1.47612 -4.57542e-20)
(-0.545642 2.81355 1.87165e-19)
(0.00400562 3.448 3.32314e-19)
(0.217429 3.66598 -2.63251e-19)
(0.293744 3.65148 2.7402e-19)
(0.277811 3.5833 1.28299e-19)
(0.241613 3.56371 1.65487e-19)
(0.213407 3.53196 1.40469e-20)
(0.472195 0.46991 0)
(1.18115 1.27796 2.91036e-20)
(1.15817 1.30527 -1.67168e-20)
(1.09697 1.29404 -6.512e-21)
(1.02593 1.27893 2.76052e-20)
(0.943686 1.26039 -1.10104e-19)
(0.848336 1.23856 -1.23336e-19)
(0.733065 1.21432 2.50909e-20)
(0.586362 1.18854 -4.28319e-19)
(0.376414 1.16416 3.2624e-21)
(0.0496295 1.15509 -1.38324e-18)
(-0.460721 1.25864 2.00958e-20)
(-0.954708 1.88823 1.1006e-20)
(-0.617374 3.02516 1.18568e-19)
(-0.114488 3.52507 -4.53598e-20)
(0.14215 3.63773 -2.24119e-21)
(0.233797 3.62192 -5.78222e-19)
(0.24984 3.60807 -2.90775e-19)
(0.224647 3.61081 2.22817e-19)
(0.190332 3.58973 1.60688e-19)
(0.449224 0.46392 8.72603e-20)
(1.18111 1.31072 2.0217e-19)
(1.153 1.33618 -4.65532e-20)
(1.09076 1.32501 -2.2576e-20)
(1.0191 1.3102 0)
(0.936694 1.29239 -1.2999e-19)
(0.841133 1.27188 -1.69909e-19)
(0.726325 1.25077 2.39493e-20)
(0.581169 1.23279 -4.8354e-20)
(0.375079 1.22843 -7.38373e-19)
(0.0663866 1.27414 -7.09361e-19)
(-0.374028 1.48514 -3.57671e-19)
(-0.748621 2.12221 -7.88838e-20)
(-0.499112 3.02676 -3.83011e-19)
(-0.0870761 3.41696 -5.66831e-19)
(0.152837 3.50079 0)
(0.246575 3.54735 0)
(0.271111 3.61377 1.96459e-19)
(0.243278 3.64838 0)
(0.17645 3.64766 3.57687e-19)
(0.429906 0.462224 -1.40781e-19)
(1.17834 1.34619 -1.81719e-19)
(1.14678 1.36943 0)
(1.08357 1.35762 4.82031e-21)
(1.01144 1.34274 6.35615e-21)
(0.929008 1.32528 -1.7065e-19)
(0.833765 1.30588 -1.05411e-19)
(0.720303 1.28797 1.92678e-20)
(0.57836 1.2773 -3.50886e-19)
(0.380679 1.2904 4.03317e-20)
(0.100878 1.37584 0)