/*--------------------------------*- C++ -*----------------------------------*\
| =========                 |                                                 |
| \\      /  F ield         | OpenFOAM: The Open Source CFD Toolbox           |
|  \\    /   O peration     | Version:  2112                                  |
|   \\  /    A nd           | Website:  www.openfoam.com                      |
|    \\/     M anipulation  |                                                 |
\*---------------------------------------------------------------------------*/
FoamFile
{
    version     2.0;
    format      ascii;
    arch        "LSB;label=32;scalar=64";
    class       surfaceScalarField;
    location    "55.5";
    object      phi;
}
// * * * * * * * * * * * * * * * * * * * * * * * * * * * * * * * * * * * * * //

dimensions      [0 3 -1 0 0 0 0];

oriented        oriented;

internalField   nonuniform List<scalar> 
17370
(
-0.0916069
0.0960097
0.284608
-0.0775954
0.0594211
0.36495
-0.0430441
0.0316254
0.427587
-0.0223229
0.0162714
0.505303
-0.0116792
0.0088055
0.602276
-0.00659401
0.00510867
0.720543
-0.00387143
0.00299089
0.863787
-0.00221777
0.00163955
1.03603
-0.00110816
0.000687266
1.24292
-0.000276167
-0.000117364
1.49158
0.000505535
-0.000918811
1.4916
0.00132281
-0.00182743
1.2432
0.00237843
-0.00312228
1.03638
0.00398028
-0.00519967
0.864126
0.00667424
-0.00887634
0.72126
0.0117399
-0.0163179
0.603793
0.0223549
-0.0316418
0.508726
0.0430435
-0.0594104
0.432535
0.0775888
-0.0960037
0.36519
0.0916208
0.19739
-0.12709
0.0880215
0.0390689
-0.364355
0.354029
-0.0714765
0.0818027
-0.446654
0.454253
-0.0791722
0.0715729
-0.521011
0.529108
-0.0637216
0.0556249
-0.612991
0.620759
-0.0482392
0.0404707
-0.727164
0.733685
-0.033859
0.0273381
-0.86758
0.872433
-0.0221338
0.017281
-1.03857
1.04191
-0.0135818
0.0102417
-1.24472
1.24713
-0.00769039
0.00528392
-1.49284
1.49486
-0.0033188
0.00130283
-1.49269
1.49451
0.000518007
-0.00233903
-1.24411
1.24602
0.00431294
-0.00622455
-1.03761
1.04009
0.00856073
-0.0110409
-0.866187
0.869816
0.0143005
-0.0179297
-0.724594
0.729748
0.0227163
-0.0278706
-0.609064
0.615634
0.0343442
-0.0409136
-0.515123
0.522459
0.0486333
-0.0559687
-0.43988
0.447658
0.0639908
-0.071769
-0.374707
0.377355
0.0792648
-0.0819125
-0.256897
0.224435
0.0715624
-0.0391007
-0.0688099
0.0591977
0.00961221
-0.0521098
0.058937
-0.374836
0.368009
-0.0580905
0.0542495
-0.453946
0.457787
-0.0487638
0.0442056
-0.527617
0.532175
-0.0396568
0.0357615
-0.620802
0.624697
-0.0315485
0.0275528
-0.73466
0.738656
-0.0231946
0.0193059
-0.873956
0.877845
-0.0152592
0.0118009
-1.04336
1.04682
-0.0082802
0.00524615
-1.24865
1.25169
-0.00203645
-0.000946717
-1.49695
1.49993
0.00390797
-0.00705705
-1.49742
1.50057
0.0100027
-0.0134051
-1.25006
1.25347
0.0167436
-0.0206533
-1.04565
1.04956
0.0244204
-0.0286569
-0.877135
0.881372
0.0325548
-0.0366722
-0.73898
0.743098
0.0404888
-0.0449603
-0.625968
0.63044
0.0494541
-0.0548767
-0.535014
0.540437
0.0586447
-0.0594044
-0.458074
0.458834
0.0524568
-0.0320667
-0.336761
0.316371
0.00967406
-0.0686611
0.058987
-0.0534086
0.0492971
0.0041115
-0.0332433
0.0436671
-0.358563
0.34814
-0.0473433
0.0467571
-0.459581
0.460167
-0.0438296
0.040618
-0.536134
0.539345
-0.0369419
0.0335878
-0.628397
0.631751
-0.0299541
0.0267126
-0.742036
0.745277
-0.0232584
0.0200592
-0.881339
0.884538
-0.0164642
0.0131106
-1.05025
1.0536
-0.00940948
0.00600288
-1.25495
1.25835
-0.00220999
-0.00140813
-1.50328
1.5069
0.00499518
-0.00869744
-1.50406
1.50777
0.0119802
-0.0155136
-1.25703
1.26056
0.0186972
-0.0220974
-1.05326
1.05666
0.0251235
-0.0284036
-0.884979
0.888259
0.0315041
-0.0349995
-0.746779
0.750274
0.0382374
-0.0417931
-0.634558
0.638114
0.0449006
-0.0477113
-0.544578
0.547389
0.0481765
-0.044332
-0.456948
0.453103
0.0337014
-0.0163832
-0.29705
0.279732
0.00417974
-0.0531361
0.0489563
-0.046128
0.0435726
0.00255533
-0.023046
0.0333949
-0.337549
0.3272
-0.0391283
0.040077
-0.459918
0.45897
-0.0388255
0.0364974
-0.542003
0.544331
-0.0338556
0.0313097
-0.63472
0.637266
-0.0283332
0.0254852
-0.748364
0.751212
-0.0222466
0.0192314
-0.887594
0.890609
-0.0158783
0.0127419
-1.05678
1.05991
-0.00918266
0.00578062
-1.26175
1.26515
-0.00186859
-0.00193002
-1.51063
1.51443
0.0056888
-0.00947945
-1.51155
1.51534
0.0127181
-0.0160575
-1.26401
1.26735
0.0189707
-0.022069
-1.05986
1.06296
0.0248551
-0.0278586
-0.891452
0.894455
0.0305125
-0.0332981
-0.753453
0.756238
0.0356855
-0.0381672
-0.641064
0.643546
0.0403583
-0.0414286
-0.549222
0.550292
0.0402921
-0.0342844
-0.447975
0.441967
0.023634
-0.0103798
-0.264539
0.251285
0.00264001
-0.0457109
0.0430709
-0.0414547
0.0396547
0.00179996
-0.016942
0.0262256
-0.317334
0.30805
-0.0328198
0.0349385
-0.457411
0.455292
-0.0345026
0.0328027
-0.546362
0.548062
-0.0305744
0.0284463
-0.639581
0.641709
-0.0260083
0.0236286
-0.753814
0.756194
-0.0208114
0.0180621
-0.893467
0.896217
-0.0148745
0.0118368
-1.06296
1.066
-0.0083686
0.00505063
-1.26847
1.27179
-0.00120917
-0.00253917
-1.51819
1.52194
0.00623642
-0.00992508
-1.51908
1.52277
0.0130359
-0.0162248
-1.27062
1.27381
0.0189781
-0.0218382
-1.06598
1.06884
0.0242905
-0.0268029
-0.897238
0.89975
0.0289326
-0.0311267
-0.758678
0.760872
0.0330537
-0.0350765
-0.645769
0.647791
0.0365771
-0.0367667
-0.550868
0.551058
0.0343589
-0.0273633
-0.43537
0.428374
0.0176758
-0.0074809
-0.239702
0.229507
0.0019036
-0.0408598
0.0389562
-0.0381056
0.0367544
0.00135118
-0.0129427
0.0209393
-0.299413
0.291416
-0.027704
0.0306235
-0.45274
0.449821
-0.0308281
0.0297016
-0.549503
0.550629
-0.0277008
0.025773
-0.64377
0.645698
-0.0235592
0.0214156
-0.758441
0.760584
-0.0189044
0.0164329
-0.898768
0.901239
-0.0135094
0.0106509
-1.06889
1.07175
-0.00731823
0.00409962
-1.27502
1.27824
-0.000365845
-0.00326476
-1.52561
1.52924
0.00683112
-0.0103735
-1.52638
1.52992
0.0133341
-0.0163185
-1.27693
1.27991
0.0188213
-0.0213341
-1.07156
1.07407
0.0234339
-0.0255622
-0.902061
0.904189
0.0273891
-0.0292912
-0.762913
0.764815
0.0309641
-0.0327196
-0.649655
0.65141
0.0335553
-0.0330072
-0.55088
0.550332
0.0296747
-0.0223606
-0.421161
0.413847
0.013846
-0.00578028
-0.220478
0.212412
0.00147741
-0.0372932
0.0358158
-0.0355742
0.0345334
0.00104071
-0.0101178
0.0168891
-0.284056
0.277285
-0.0234044
0.0267876
-0.446648
0.443265
-0.0275712
0.0268787
-0.551532
0.552225
-0.0251132
0.0233302
-0.647596
0.649379
-0.0212677
0.0192605
-0.76266
0.764668
-0.0168974
0.0145776
-0.90357
0.90589
-0.0118483
0.00917164
-1.07445
1.07713
-0.006022
0.00294716
-1.28135
1.28442
0.00064433
-0.00413765
-1.53277
1.53627
0.00755163
-0.0109068
-1.53336
1.53672
0.0136629
-0.0163828
-1.28278
1.2855
0.0186216
-0.0208441
-1.07646
1.07868
0.022703
-0.0245903
-0.906213
0.9081
0.0262046
-0.0278804
-0.766604
0.76828
0.0293472
-0.0307739
-0.653016
0.654443
0.0311031
-0.0298338
-0.549435
0.548165
0.0258824
-0.0186451
-0.406546
0.399309
0.011224
-0.00465311
-0.205165
0.198594
0.00119428
-0.0344972
0.0333029
-0.033619
0.0328078
0.000811188
-0.0080251
0.0137234
-0.271078
0.26538
-0.0197638
0.0233542
-0.439767
0.436177
-0.0246228
0.0241806
-0.552825
0.553267
-0.0226897
0.0210182
-0.651159
0.652831
-0.0190539
0.0171385
-0.766628
0.768544
-0.0148797
0.0126588
-0.908095
0.910316
-0.0100419
0.00748276
-1.07967
1.08223
-0.00448282
0.00155284
-1.28737
1.2903
0.00186938
-0.00519335
-1.53965
1.54297
0.00842185
-0.0115558
-1.53995
1.54308
0.014094
-0.0165687
-1.2881
1.29058
0.0185914
-0.0205854
-1.08083
1.08282
0.0222386
-0.0239116
-0.909903
0.911576
0.0253438
-0.0268319
-0.769863
0.771351
0.0281102
-0.0291655
-0.655658
0.656713
0.0291281
-0.0271957
-0.546568
0.544635
0.0228479
-0.0158823
-0.392203
0.385237
0.00937754
-0.00387213
-0.192607
0.187102
0.000998
-0.0322204
0.0312224
-0.0320942
0.03146
0.000634217
-0.00641473
0.0111964
-0.260167
0.255385
-0.0166547
0.0202555
-0.43258
0.428979
-0.0218573
0.0216461
-0.553632
0.553843
-0.0203938
0.0187875
-0.654521
0.656127
-0.0168843
0.0150232
-0.770429
0.77229
-0.0128291
0.0106732
-0.912429
0.914585
-0.00813404
0.00565423
-1.08467
1.08715
-0.00275657
-5.19451e-05
-1.29311
1.29592
0.00332524
-0.00647948
-1.54617
1.54932
0.00951448
-0.0124309
-1.54608
1.549
0.0147726
-0.0170356
-1.29296
1.29522
0.018865
-0.0206462
-1.08476
1.08654
0.0221074
-0.0235818
-0.913179
0.914653
0.0248474
-0.0261616
-0.772758
0.774072
0.0272929
-0.0279372
-0.657543
0.658188
0.0275353
-0.0250495
-0.542441
0.539955
0.0204635
-0.0138399
-0.378454
0.37183
0.00806401
-0.00332427
-0.182019
0.17728
0.000861018
-0.0303046
0.0294436
-0.0309052
0.0304138
0.000491312
-0.00512164
0.00911363
-0.251024
0.247032
-0.0139439
0.0174053
-0.425455
0.421994
-0.0191994
0.0191851
-0.553999
0.554013
-0.0181367
0.0165699
-0.657782
0.659348
-0.0146954
0.0128545
-0.774134
0.775975
-0.0106844
0.00855798
-0.91664
0.918766
-0.00606401
0.00363889
-1.08951
1.09194
-0.000815291
-0.00190964
-1.29862
1.30135
0.00505064
-0.00804775
-1.55236
1.55535
0.0109007
-0.0136115
-1.55179
1.5545
0.015762
-0.0178119
-1.29739
1.29944
0.0194456
-0.0210154
-1.08827
1.08984
0.0222948
-0.0235923
-0.91607
0.917368
0.0247138
-0.0258733
-0.775312
0.776472
0.0268195
-0.0270943
-0.658625
0.6589
0.0263042
-0.0233551
-0.53725
0.534301
0.0186341
-0.0123496
-0.365397
0.359113
0.00713489
-0.0029435
-0.172849
0.168657
0.000767319
-0.0286405
0.0278732
-0.0299897
0.0296189
0.000370834
-0.00404105
0.00734027
-0.24341
0.24011
-0.0115307
0.0147432
-0.418671
0.415458
-0.016605
0.0167516
-0.553998
0.553852
-0.0157928
0.014304
-0.660956
0.662445
-0.0124309
0.0105798
-0.777811
0.779662
-0.0083989
0.00626948
-0.920794
0.922923
-0.00378472
0.00138062
-1.09425
1.09666
0.0013967
-0.00405769
-1.30398
1.30664
0.00709608
-0.00995935
-1.55824
1.5611
0.0126483
-0.0151655
-1.55709
1.55961
0.0171331
-0.01898
-1.3014
1.30325
0.020429
-0.0217964
-1.09138
1.09275
0.0228952
-0.0240132
-0.918612
0.91973
0.0249871
-0.0259803
-0.777557
0.77855
0.0266784
-0.0266516
-0.659033
0.659006
0.0254581
-0.0221015
-0.531161
0.527805
0.0172935
-0.0112983
-0.353001
0.347006
0.00649792
-0.00268913
-0.164689
0.160881
0.000706765
-0.0271475
0.0264407
-0.0293079
0.0290442
0.000263691
-0.00309611
0.00577089
-0.237144
0.23447
-0.00932159
0.0122022
-0.412431
0.40955
-0.0140189
0.014258
-0.553716
0.553477
-0.013352
0.0119169
-0.663994
0.665429
-0.0100263
0.00813772
-0.781513
0.783401
-0.00591139
0.00374531
-0.924957
0.927123
-0.00123154
-0.00118106
-1.09895
1.10136
0.00395036
-0.00657817
-1.3092
1.31183
0.00954332
-0.0122988
-1.56386
1.56662
0.0148426
-0.0171754
-1.562
1.56434
0.0189609
-0.0206006
-1.305
1.30664
0.0218601
-0.0230213
-1.09411
1.09527
0.0239372
-0.0248767
-0.920807
0.921747
0.0257063
-0.0265255
-0.779456
0.780276
0.0269427
-0.0266592
-0.658845
0.658562
0.0250213
-0.0212789
-0.524276
0.520534
0.0163917
-0.0106087
-0.341155
0.335372
0.00609307
-0.00253437
-0.157229
0.15367
0.000672402
-0.0257633
0.0250909
-0.0288368
0.0286746
0.000162217
-0.00222295
0.00431246
-0.232107
0.230018
-0.00721902
0.0096975
-0.406894
0.404415
-0.0113601
0.0116105
-0.5533
0.55305
-0.0107206
0.00929682
-0.666961
0.668385
-0.00735822
0.00540184
-0.785295
0.787252
-0.00309745
0.000866668
-0.929191
0.931422
0.00170687
-0.00416165
-1.10368
1.10614
0.0069542
-0.00957509
-1.31437
1.31699
0.0124907
-0.0151515
-1.56927
1.57193
0.0175565
-0.0197092
-1.56654
1.5687
0.0213154
-0.0227476
-1.30818
1.30961
0.0238104
-0.024746
-1.09643
1.09736
0.0254584
-0.0262005
-0.922642
0.923384
0.0268764
-0.0275531
-0.781001
0.781677
0.02767
-0.0270307
-0.658053
0.657414
0.024971
-0.0208574
-0.516647
0.512534
0.0158735
-0.0102165
-0.329699
0.324042
0.00587396
-0.00245873
-0.150218
0.146803
0.000658864
-0.0244388
0.0237799
-0.0285681
0.0285082
5.99441e-05
-0.00137283
0.00289248
-0.22823
0.226711
-0.00514159
0.00715558
-0.402194
0.40018
-0.00856358
0.00874755
-0.552915
0.552731
-0.00783248
0.00638848
-0.66994
0.671384
-0.00436823
0.00231638
-0.789215
0.791267
0.0001001
-0.00243659
-0.933556
0.935893
0.00511489
-0.00765036
-1.1085
1.11104
0.010505
-0.0131499
-1.31952
1.32217
0.0160442
-0.0186293
-1.57449
1.57707
0.020905
-0.0228769
-1.57072
1.57269
0.0242968
-0.0255131
-1.31094
1.31216
0.0263745
-0.0270783
-1.09832
1.09903
0.027576
-0.0281029
-0.924093
0.92462
0.0286137
-0.0290913
-0.782191
0.782669
0.0289205
-0.0278687
-0.656523
0.655471
0.0253539
-0.0208432
-0.50829
0.503779
0.0157156
-0.0100869
-0.318459
0.312831
0.00581468
-0.00245088
-0.143451
0.140088
0.000663283
-0.0231341
0.0224708
-0.0285043
0.0285532
-4.89035e-05
-0.000498798
0.00144318
-0.225495
0.224551
-0.00300659
0.00449013
-0.398457
0.396973
-0.00553878
0.00557122
-0.552722
0.55269
-0.0045761
0.00306124
-0.673005
0.67452
-0.000930791
-0.0012558
-0.793327
0.795513
0.00383425
-0.00631166
-0.938134
0.940611
0.0091354
-0.0117868
-1.11349
1.11614
0.0147408
-0.0174403
-1.32473
1.32743
0.0203407
-0.0228665
-1.57955
1.58208
0.0250197
-0.0268073
-1.57453
1.57631
0.0280308
-0.0290136
-1.31325
1.31424
0.0296513
-0.0301064
-1.09976
1.10022
0.0303791
-0.0306768
-0.925121
0.925418
0.0309982
-0.0312092
-0.782866
0.783077
0.0307667
-0.0292142
-0.654149
0.652596
0.0261984
-0.0212489
-0.499154
0.494205
0.0159115
-0.0102048
-0.307236
0.301529
0.00590343
-0.00250559
-0.13675
0.133352
0.000684284
-0.0218139
0.0211296
-0.0286571
0.0288215
-0.000164377
0.000423312
-8.46138e-05
-0.223924
0.223586
-0.000743827
0.00161612
-0.39581
0.394938
-0.00219956
0.00199077
-0.552903
0.553111
-0.000852905
-0.00080284
-0.676274
0.677929
0.00310249
-0.00547142
-0.797716
0.800085
0.00825795
-0.0109205
-0.942995
0.945657
0.0139356
-0.016743
-1.11871
1.12151
0.0198361
-0.0226194
-1.33006
1.33284
0.0255458
-0.028017
-1.5845
1.58697
0.0300396
-0.0316258
-1.57795
1.57954
0.0326392
-0.033367
-1.31507
1.3158
0.033766
-0.0339575
-1.1007
1.10089
0.033986
-0.0340307
-0.925685
0.92573
0.0341496
-0.0340375
-0.782914
0.782802
0.0332588
-0.0311092
-0.650811
0.648661
0.0275424
-0.0220879
-0.489143
0.483689
0.0164549
-0.0105561
-0.295811
0.289912
0.00612845
-0.00261687
-0.129944
0.126432
0.000720036
-0.0204458
0.0197257
-0.0290654
0.0293698
-0.000304387
0.00141543
-0.00172425
-0.223605
0.223913
0.00173576
-0.00158101
-0.394381
0.394226
0.00159157
-0.00214334
-0.553667
0.554219
0.00350078
-0.00534179
-0.679884
0.681725
0.00786149
-0.0104584
-0.802465
0.805062
0.0135079
-0.0164103
-0.948229
0.951132
0.0196777
-0.0226932
-1.12425
1.12726
0.0259741
-0.0288764
-1.33555
1.33846
0.031856
-0.0342854
-1.58934
1.59177
0.036175
-0.0375384
-1.58096
1.58232
0.0383173
-0.0387559
-1.31635
1.31679
0.0388882
-0.0387908
-1.10107
1.10097
0.0385507
-0.0383174
-0.925721
0.925487
0.0382253
-0.0376745
-0.782217
0.781666
0.0364582
-0.0336445
-0.646343
0.643529
0.0294424
-0.0233854
-0.478111
0.472054
0.0173512
-0.0111362
-0.283953
0.277738
0.00648422
-0.00278144
-0.122877
0.119175
0.000769419
-0.0190014
0.0182319
-0.0297456
0.0302261
-0.000480565
0.0026961
-0.00374897
-0.224606
0.225659
0.00462821
-0.00526854
-0.394394
0.395034
0.00599813
-0.00700103
-0.555249
0.556252
0.00865988
-0.010757
-0.683929
0.686027
0.0135743
-0.0164684
-0.807672
0.810566
0.0198542
-0.0230584
-0.953951
0.957155
0.0266382
-0.0299087
-1.13021
1.13348
0.0334194
-0.0364681
-1.34129
1.34434
0.0395142
-0.0418944
-1.59408
1.59646
0.0436256
-0.0447335
-1.58349
1.58459
0.0452207
-0.0453442
-1.31702
1.31715
0.0451775
-0.044757
-1.1008
1.10038
0.04422
-0.0436808
-0.925153
0.924613
0.0432813
-0.0422772
-0.78061
0.779606
0.0405064
-0.0369121
-0.640586
0.636991
0.0319641
-0.0251749
-0.465854
0.459065
0.0186109
-0.0119437
-0.271412
0.264745
0.00696625
-0.00299593
-0.115397
0.111426
0.000831077
-0.0174541
0.016623
-0.0307766
0.0314754
-0.000698797
0.00418293
-0.00612439
-0.22713
0.229071
0.00806495
-0.00960543
-0.396064
0.397605
0.0111577
-0.0127404
-0.557903
0.559486
0.0148487
-0.0173016
-0.688574
0.691027
0.020525
-0.0237986
-0.813483
0.816756
0.0276012
-0.0311739
-0.960283
0.963855
0.0351317
-0.0387082
-1.13669
1.14027
0.0424888
-0.0456996
-1.34731
1.35052
0.0488031
-0.0511015
-1.5987
1.601
0.0526263
-0.0534229
-1.58548
1.58627
0.053565
-0.0533319
-1.31701
1.31678
0.0528266
-0.052034
-1.09981
1.09902
0.051161
-0.0502748
-0.923909
0.923023
0.0494803
-0.0479821
-0.778075
0.776577
0.0455203
-0.0410034
-0.633298
0.628781
0.0351637
-0.0274775
-0.452101
0.444415
0.020235
-0.0129693
-0.257912
0.250647
0.00756417
-0.00325354
-0.107351
0.10304
0.000902437
-0.0157805
0.014878
-0.0322386
0.0332244
-0.00098584
0.00605971
-0.0090527
-0.231433
0.234426
0.0122518
-0.0148495
-0.399654
0.402251
0.0173687
-0.0196519
-0.561914
0.564197
0.0223401
-0.0252663
-0.694024
0.69695
0.0290113
-0.0327611
-0.820063
0.823813
0.0370828
-0.041111
-0.967364
0.971392
0.045528
-0.0494633
-1.14378
1.14772
0.0535438
-0.0569182
-1.35363
1.35701
0.0600537
-0.0622222
-1.60312
1.60529
0.0634737
-0.0638731
-1.5868
1.5872
0.0636135
-0.0629398
-1.31617
1.31549
0.0620449
-0.0608269
-1.09799
1.09678
0.0595721
-0.0583262
-0.921896
0.920651
0.0570116
-0.0549139
-0.774525
0.772427
0.0516253
-0.0459989
-0.624177
0.61855
0.0390832
-0.0303001
-0.43652
0.427737
0.0222098
-0.014191
-0.243162
0.235144
0.00825801
-0.00354232
-0.0985991
0.0938835
0.000979118
-0.0139636
0.0129845
-0.0342612
0.0356382
-0.00137699
0.00849938
-0.0128516
-0.23783
0.242183
0.0175379
-0.0213725
-0.405534
0.409369
0.0250296
-0.0281649
-0.567598
0.570733
0.0316076
-0.0351592
-0.70053
0.704082
0.039587
-0.0439439
-0.827605
0.831962
0.0489032
-0.0534709
-0.975372
0.979939
0.058409
-0.0627287
-1.15159
1.15591
0.067101
-0.070598
-1.36026
1.36376
0.0736818
-0.0756133
-1.60722
1.60915
0.0764759
-0.0763636
-1.58727
1.58716
0.0756211
-0.0743824
-1.31431
1.31308
0.0730366
-0.0713436
-1.09521
1.09352
0.0696782
-0.0679986
-0.919058
0.917378
0.0660848
-0.0632634
-0.769737
0.766915
0.0589534
-0.0519713
-0.612836
0.605854
0.043745
-0.0336227
-0.41871
0.408588
0.0244953
-0.0155658
-0.226859
0.217929
0.00901401
-0.00384402
-0.0890215
0.0838515
0.00105509
-0.0119959
0.0109408
-0.0370375
0.0389725
-0.00193494
0.0119116
-0.0179685
-0.246864
0.252921
0.0244569
-0.0297462
-0.414197
0.419486
0.0347575
-0.0389399
-0.575357
0.579539
0.0433571
-0.0477458
-0.70843
0.712819
0.0530619
-0.0581652
-0.836364
0.841468
0.063865
-0.0690249
-0.984458
0.989618
0.074496
-0.0791682
-1.16013
1.16481
0.08375
-0.0872539
-1.36705
1.37056
0.0901225
-0.091643
-1.61075
1.61227
0.0919428
-0.0911531
-1.58662
1.58583
0.0897874
-0.0878789
-1.31126
1.30935
0.0859818
-0.0837743
-1.09134
1.08913
0.0816708
-0.079394
-0.915209
0.912933
0.0769144
-0.0731286
-0.763364
0.759578
0.0675574
-0.0589203
-0.598768
0.590131
0.0491021
-0.0373636
-0.3982
0.386461
0.0269992
-0.0170119
-0.208705
0.198717
0.00977307
-0.0041286
-0.0785361
0.0728916
0.00112071
-0.00988335
0.00876264
-0.0408931
0.0436956
-0.00280258
0.0168432
-0.0251552
-0.259239
0.267551
0.0338855
-0.0409276
-0.426312
0.433354
0.0475849
-0.0530331
-0.585677
0.591125
0.058685
-0.0641508
-0.718156
0.723622
0.0705624
-0.0765333
-0.846598
0.852569
0.0830344
-0.0887773
-0.994708
1.00045
0.0947029
-0.0995949
-1.1693
1.17419
0.104181
-0.107465
-1.37374
1.37702
0.109836
-0.110674
-1.6133
1.61414
0.110156
-0.108455
-1.58449
1.58279
0.106288
-0.103573
-1.30678
1.30406
0.101013
-0.0982126
-1.08624
1.08344
0.0956363
-0.0926875
-0.909982
0.907033
0.0895605
-0.0845577
-0.754918
0.749915
0.0774069
-0.0667478
-0.581335
0.570676
0.0550158
-0.0413614
-0.374464
0.360809
0.0295629
-0.0184005
-0.188447
0.177285
0.0104475
-0.00435407
-0.0671307
0.0610373
0.00116328
-0.00765213
0.00648885
-0.0464013
0.0506668
-0.00426549
0.0244991
-0.03588
-0.276124
0.287504
0.0475163
-0.0568811
-0.442899
0.452263
0.0655462
-0.0724501
-0.599147
0.60605
0.0796126
-0.0865428
-0.730072
0.737002
0.094103
-0.100862
-0.858507
0.865266
0.108007
-0.11412
-1.00603
1.01214
0.120189
-0.124966
-1.17874
1.18351
0.129151
-0.131827
-1.37978
1.38245
0.133272
-0.133041
-1.6143
1.61407
0.131366
-0.12848
-1.5804
1.57752
0.125329
-0.121652
-1.3006
1.29692
0.118337
-0.114856
-1.07975
1.07627
0.111743
-0.108024
-0.903177
0.899457
0.104021
-0.097419
-0.74384
0.737238
0.0883042
-0.0751895
-0.559743
0.546628
0.0612004
-0.0453463
-0.34695
0.331096
0.0319495
-0.019554
-0.165939
0.153543
0.0109208
-0.00446679
-0.0549064
0.0484524
0.00116652
-0.00535429
0.00418776
-0.0546247
0.0619594
-0.00733472
0.037955
-0.0538058
-0.29966
0.31551
0.0695063
-0.0820681
-0.465606
0.478168
0.0929026
-0.101158
-0.616205
0.624461
0.109824
-0.118001
-0.744547
0.752724
0.126438
-0.133573
-0.871808
0.878943
0.140779
-0.146661
-1.01781
1.02369
0.152194
-0.156218
-1.18763
1.19165
0.159329
-0.160774
-1.38428
1.38573
0.160693
-0.158913
-1.61286
1.61108
0.155713
-0.151345
-1.57379
1.56942
0.146976
-0.14214
-1.2924
1.28756
0.137949
-0.133736
-1.07168
1.06747
0.12997
-0.125406
-0.894567
0.890003
0.120104
-0.111402
-0.729274
0.720572
0.099795
-0.0836861
-0.532975
0.516866
0.0671262
-0.0489231
-0.315145
0.296942
0.0338887
-0.0203289
-0.141239
0.127679
0.0111195
-0.00444044
-0.0421379
0.0354588
0.00111887
-0.00307587
0.001957
-0.068805
0.0729206
-0.00411567
0.0291003
-0.0428312
-0.333845
0.347576
0.0567271
-0.0682168
-0.495882
0.507372
0.0784552
-0.0879683
-0.636431
0.645945
0.0985195
-0.108115
-0.760512
0.770107
0.118731
-0.128154
-0.885213
0.894637
0.13814
-0.146958
-1.02862
1.03744
0.156058
-0.163728
-1.19456
1.20223
0.171141
-0.176799
-1.38597
1.39163
0.181422
-0.183864
-1.60804
1.61048
0.184084
-0.182636
-1.56397
1.56252
0.180145
-0.1767
-1.28178
1.27834
0.1736
-0.169988
-1.06183
1.05821
0.166824
-0.162283
-0.883672
0.879131
0.155096
-0.142415
-0.710049
0.697369
0.125263
-0.102369
-0.49991
0.477015
0.0799523
-0.0562472
-0.27865
0.254945
0.0377135
-0.0218413
-0.11476
0.0988882
0.0115635
-0.00447775
-0.0293416
0.0222559
0.00110751
-0.000931382
-0.000176129
-0.0800509
0.0782293
0.00182157
0.00748033
-0.0165193
-0.364124
0.373163
0.0270573
-0.0351678
-0.523559
0.53167
0.0433489
-0.0513913
-0.657914
0.665957
0.0611075
-0.0700961
-0.779381
0.788369
0.0796082
-0.0882678
-0.903511
0.912171
0.0974079
-0.105135
-1.04595
1.05368
0.113277
-0.119754
-1.20968
1.21616
0.125917
-0.130278
-1.39692
1.40128
0.133164
-0.134022
-1.61199
1.61285
0.132635
-0.129538
-1.56019
1.55709
0.125406
-0.120225
-1.27416
1.26898
0.115449
-0.110186
-1.05263
1.04737
0.105293
-0.0992077
-0.869747
0.863662
0.0917204
-0.0806417
-0.680745
0.669666
0.0677874
-0.0523394
-0.452631
0.437183
0.0386693
-0.0257918
-0.231587
0.21871
0.0166552
-0.00937641
-0.0840078
0.0767291
0.00490654
-0.00190174
-0.0156384
0.0126336
0.00041835
0.00126423
-0.00168258
-0.0815065
0.0786342
0.00287226
-0.00167446
-0.00357698
-0.384559
0.389811
0.0107578
-0.0166142
-0.543965
0.549822
0.0226771
-0.0296931
-0.676062
0.683078
0.0380796
-0.0458782
-0.796499
0.804298
0.0543628
-0.0619215
-0.920095
0.927654
0.069642
-0.0765094
-1.06122
1.06809
0.083512
-0.0891365
-1.22216
1.22778
0.0939904
-0.0971282
-1.40491
1.40804
0.0989729
-0.0986484
-1.61289
1.61257
0.0961043
-0.0918587
-1.55325
1.549
0.0868123
-0.0808429
-1.26345
1.25748
0.0749113
-0.0685266
-1.04062
1.03423
0.0625525
-0.0556458
-0.85409
0.847183
0.048791
-0.039651
-0.655111
0.645971
0.0304355
-0.0207487
-0.419896
0.410209
0.0137056
-0.00828563
-0.205214
0.199794
0.00510846
-0.00297079
-0.0693953
0.0672577
0.00170153
-0.00075365
-0.00964167
0.00869379
0.000128208
0.00225964
-0.00238784
-0.0802687
0.077554
0.00271478
-0.00527841
0.00274623
-0.398186
0.400718
0.00189363
-0.00632001
-0.559031
0.563457
0.0114376
-0.0173124
-0.691029
0.696904
0.024471
-0.031147
-0.811484
0.81816
0.0383971
-0.0448768
-0.934688
0.941168
0.0518646
-0.0576635
-1.07451
1.08031
0.0637447
-0.0681454
-1.23297
1.23737
0.0721776
-0.0745988
-1.41091
1.41333
0.0755215
-0.0741865
-1.61172
1.61039
0.0710801
-0.0663112
-1.54413
1.53936
0.0608033
-0.0539803
-1.25112
1.2443
0.0475814
-0.0406117
-1.02675
1.01978
0.0339706
-0.0269691
-0.837546
0.830544
0.0204226
-0.013238
-0.633795
0.62661
0.00701636
-0.00205627
-0.399288
0.394328
-0.000362345
0.00134089
-0.19271
0.191731
-0.00135889
0.00083768
-0.0640741
0.0645953
-0.000416322
0.000141755
-0.00743755
0.00771211
-9.19655e-05
0.00279696
-0.00270499
-0.078783
0.0763774
0.00240563
-0.00640599
0.00547033
-0.407275
0.40821
-0.00205826
-0.00115381
-0.571097
0.574309
0.00531473
-0.010645
-0.703575
0.708905
0.0166592
-0.0225176
-0.824154
0.830013
0.0287908
-0.0344056
-0.947194
0.952809
0.0403766
-0.045514
-1.08596
1.0911
0.0506205
-0.0546136
-1.24161
1.2456
0.0579646
-0.0598201
-1.41535
1.41721
0.060184
-0.0583814
-1.60882
1.60701
0.054879
-0.0495634
-1.53382
1.52851
0.0437978
-0.03689
-1.23734
1.23043
0.0302944
-0.0229271
-1.01204
1.00467
0.0162
-0.00909209
-0.821263
0.814155
0.0032042
0.00248726
-0.616719
0.611028
-0.00654255
0.00866899
-0.387019
0.384892
-0.00864014
0.00731253
-0.188454
0.189782
-0.00558424
0.00358594
-0.0642588
0.0662571
-0.00202737
0.000806813
-0.00780835
0.0090289
-0.000261041
0.00286748
-0.00260644
-0.0774017
0.0753401
0.00206167
-0.00629072
0.00586231
-0.413509
0.413938
-0.00383283
0.00125245
-0.580391
0.582971
0.00281232
-0.00737185
-0.714209
0.718768
0.0125425
-0.0176291
-0.835096
0.840182
0.0232046
-0.0282145
-0.958071
0.963081
0.0336647
-0.0381475
-1.09595
1.10043
0.0427157
-0.0462701
-1.24929
1.25285
0.0491447
-0.0506256
-1.41877
1.42025
0.0506301
-0.0489513
-1.60508
1.6034
0.0452813
-0.0400794
-1.52275
1.51755
0.0343293
-0.0274509
-1.22334
1.21646
0.0210944
-0.0135907
-0.996877
0.989373
0.00679811
0.000108329
-0.805478
0.798572
-0.00547878
0.0101171
-0.602721
0.598083
-0.0130743
0.0141336
-0.37984
0.378781
-0.0128769
0.0104885
-0.188845
0.191233
-0.00807302
0.00530456
-0.06746
0.0702284
-0.00307526
0.00125772
-0.0100695
0.0118871
-0.00038558
0.00249526
-0.00210968
-0.076352
0.0747449
0.00160713
-0.00542051
0.00532489
-0.418138
0.418233
-0.00369962
0.0017616
-0.588489
0.590427
0.00204691
-0.00616907
-0.723411
0.727533
0.0110739
-0.0154529
-0.844878
0.849257
0.0203492
-0.0247882
-0.968056
0.972495
0.0299586
-0.0340275
-1.10494
1.10901
0.0380712
-0.0414176
-1.2562
1.25955
0.0444193
-0.0457226
-1.42174
1.42304
0.0457556
-0.0440174
-1.60133
1.59959
0.0407637
-0.0355115
-1.51218
1.50693
0.0301368
-0.0236584
-1.20946
1.20299
0.0173966
-0.0103677
-0.98179
0.974761
0.00381743
0.00288444
-0.790375
0.783674
-0.00787847
0.0120602
-0.590556
0.586374
-0.0145841
0.0152711
-0.374906
0.374219
-0.0140952
0.0116515
-0.191293
0.193736
-0.00906772
0.00608926
-0.0721835
0.075162
-0.00363404
0.00157079
-0.0133728
0.015436
-0.000451715
0.00183993
-0.00138821
-0.0758023
0.0745408
0.00126149
-0.00435419
0.0043849
-0.42181
0.421779
-0.00295968
0.0011132
-0.59553
0.597377
0.0025458
-0.006224
-0.731671
0.735349
0.0104249
-0.0146476
-0.853579
0.857802
0.019169
-0.0237445
-0.976739
0.981315
0.0281909
-0.0320776
-1.11317
1.11705
0.0362467
-0.0393459
-1.26277
1.26587
0.0418692
-0.043585
-1.42425
1.42597
0.0438064
-0.0423657
-1.59792
1.59648
0.0392838
-0.034598
-1.50191
1.49722
0.0295353
-0.0234046
-1.19625
1.19012
0.0175962
-0.0110157
-0.967599
0.961019
0.00493849
0.00122229
-0.776257
0.770096
-0.00618314
0.0101351
-0.579309
0.575357
-0.0123637
0.0133916
-0.370986
0.369958
-0.0127415
0.0106729
-0.193783
0.195851
-0.00843303
0.00575428
-0.0770597
0.0797385
-0.00350249
0.00155391
-0.0169815
0.0189301
-0.000445297
0.00104275
-0.000597457
-0.0757774
0.0747294
0.00104798
-0.00308794
0.00288502
-0.4251
0.425303
-0.00170608
-0.000110389
-0.601987
0.603803
0.00358561
-0.00713821
-0.739342
0.742895
0.0111667
-0.014984
-0.861803
0.86562
0.0196202
-0.0234112
-0.985312
0.989103
0.0278275
-0.0315345
-1.12109
1.12479
0.03559
-0.0388859
-1.26895
1.27224
0.0417
-0.0432109
-1.42744
1.42895
0.043789
-0.0427557
-1.59498
1.59394
0.0403028
-0.0359265
-1.49244
1.48807
0.0313328
-0.0257004
-1.18417
1.17854
0.020427
-0.0143676
-0.954304
0.948244
0.00890043
-0.00303669
-0.763226
0.757362
-0.0018281
0.00588417
-0.568931
0.564875
-0.00821984
0.00933288
-0.3667
0.365587
-0.00935733
0.00811171
-0.195506
0.196751
-0.00657102
0.00457168
-0.0811703
0.0831696
-0.00282737
0.00128634
-0.0201871
0.0217281
-0.000364614
0.00026068
0.000103934
-0.0760336
0.0753078
0.000725838
-0.00194213
0.00130848
-0.428484
0.429118
-0.00031298
-0.00179274
-0.607613
0.609719
0.0048516
-0.00824918
-0.746487
0.749884
0.0121073
-0.0160513
-0.86929
0.873234
0.0200728
-0.0240248
-0.993095
0.997047
0.0284061
-0.0319088
-1.12892
1.13242
0.0360577
-0.0393156
-1.27534
1.2786
0.0422027
-0.0442582
-1.43087
1.43293
0.0453423
-0.0446076
-1.59296
1.59222
0.0424313
-0.0388473
-1.48392
1.48033
0.0349202
-0.029839
-1.17293
1.16785
0.0249992
-0.0196618
-0.942209
0.936872
0.0142463
-0.00886596
-0.750873
0.745493
0.004159
0.000286098
-0.559097
0.554652
-0.00283164
0.00446868
-0.361797
0.36016
-0.00505288
0.0047963
-0.195961
0.196218
-0.00400659
0.00288401
-0.0838433
0.0849659
-0.00186623
0.000890459
-0.0225116
0.0234874
-0.000270942
-0.000349777
0.000620719
-0.0767142
0.0761441
0.00057005
-0.000970762
0.000442254
-0.432097
0.432625
0.00123389
-0.00317982
-0.613464
0.61541
0.0063827
-0.00964869
-0.753109
0.756375
0.0133588
-0.0169025
-0.876837
0.88038
0.0210483
-0.0246887
-1.001
1.00464
0.0290228
-0.0329626
-1.13637
1.14031
0.0367607
-0.0403584
-1.28189
1.28549
0.0436824
-0.0458506
-1.43489
1.43705
0.0473328
-0.0474176
-1.59172
1.59181
0.0457628
-0.042939
-1.47671
1.47389
0.0393793
-0.0349227
-1.16294
1.15848
0.0306144
-0.0255335
-0.931181
0.9261
0.0205738
-0.0153607
-0.739307
0.734094
0.0107376
-0.00609406
-0.548948
0.544305
0.00286317
-0.000585916
-0.356021
0.353744
-0.00073501
0.00132476
-0.194742
0.194152
-0.00137596
0.00112559
-0.084801
0.0850514
-0.00079814
0.000425657
-0.0237144
0.0240869
-0.000146692
-0.000738576
0.000885268
-0.0776667
0.077282
0.000384701
5.21625e-05
-0.000851376
-0.435815
0.436614
0.00239905
-0.00466614
-0.618897
0.621164
0.00778936
-0.0108935
-0.759502
0.762607
0.0146923
-0.0180865
-0.883891
0.887285
0.0220781
-0.0258439
-1.00875
1.01251
0.0300846
-0.0339951
-1.14409
1.148
0.0380242
-0.041662
-1.28901
1.29264
0.0451917
-0.0481256
-1.43951
1.44244
0.0500816
-0.0505153
-1.59185
1.59228
0.0496392
-0.0472521
-1.47104
1.46865
0.0443383
-0.0404815
-1.15406
1.1502
0.0362743
-0.031472
-0.920765
0.915963
0.0267715
-0.0215947
-0.728246
0.723069
0.0170536
-0.0120948