/*--------------------------------*- C++ -*----------------------------------*\
| =========                 |                                                 |
| \\      /  F ield         | OpenFOAM: The Open Source CFD Toolbox           |
|  \\    /   O peration     | Version:  2112                                  |
|   \\  /    A nd           | Website:  www.openfoam.com                      |
|    \\/     M anipulation  |                                                 |
\*---------------------------------------------------------------------------*/
FoamFile
{
    version     2.0;
    format      ascii;
    arch        "LSB;label=32;scalar=64";
    class       surfaceScalarField;
    location    "35.5";
    object      phi;
}
// * * * * * * * * * * * * * * * * * * * * * * * * * * * * * * * * * * * * * //

dimensions      [0 3 -1 0 0 0 0];

oriented        oriented;

internalField   nonuniform List<scalar> 
17370
(
-0.0916071
0.0960066
0.284611
-0.07759
0.0594134
0.364952
-0.0430352
0.0316157
0.427588
-0.0223106
0.016256
0.505306
-0.0116596
0.00878221
0.60228
-0.00656808
0.00508409
0.720541
-0.00385426
0.00298495
0.863776
-0.00222593
0.00165891
1.03602
-0.00113638
0.000720908
1.24292
-0.000313206
-8.21305e-05
1.49159
0.000468242
-0.000870629
1.49159
0.00127379
-0.00178251
1.2432
0.00233847
-0.00308753
1.03639
0.00395006
-0.00517341
0.86413
0.00665038
-0.00885469
0.721262
0.0117213
-0.0163042
0.603797
0.0223459
-0.0316372
0.508731
0.0430418
-0.0594103
0.432537
0.0775886
-0.096004
0.365191
0.0916191
0.197392
-0.127087
0.0880168
0.0390698
-0.36435
0.354023
-0.0714799
0.0818063
-0.446655
0.454246
-0.0791697
0.0715789
-0.521009
0.529105
-0.0637301
0.0556332
-0.612986
0.620757
-0.0482462
0.0404758
-0.727159
0.733679
-0.0338627
0.0273428
-0.867579
0.872417
-0.0221449
0.0173065
-1.03856
1.04189
-0.0136247
0.0103025
-1.24471
1.24711
-0.00776283
0.0053651
-1.49284
1.49484
-0.00340701
0.00140157
-1.49269
1.4945
0.000408431
-0.00221688
-1.24411
1.24602
0.00418458
-0.00609544
-1.03761
1.0401
0.00843819
-0.0109285
-0.866188
0.869829
0.0142002
-0.0178408
-0.724598
0.729759
0.0226371
-0.0277973
-0.609069
0.615644
0.0342756
-0.0408497
-0.515126
0.52247
0.0485766
-0.0559203
-0.43988
0.447669
0.063954
-0.0717426
-0.374713
0.37736
0.0792494
-0.0818968
-0.256907
0.224452
0.0715501
-0.0390959
-0.068799
0.0591841
0.00961489
-0.0521255
0.0589622
-0.37483
0.367994
-0.0581189
0.0542812
-0.453938
0.457776
-0.048797
0.0442397
-0.527605
0.532162
-0.0396901
0.0357943
-0.620786
0.624682
-0.0315836
0.0275972
-0.734646
0.738633
-0.0232591
0.0193944
-0.873945
0.87781
-0.0153739
0.0119345
-1.04335
1.04679
-0.00843013
0.00540841
-1.24863
1.25165
-0.00221132
-0.000761998
-1.49693
1.49991
0.00371492
-0.00685459
-1.49741
1.50055
0.009797
-0.013203
-1.25007
1.25348
0.0165503
-0.0204739
-1.04566
1.04958
0.0242584
-0.028515
-0.877149
0.881406
0.0324288
-0.0365593
-0.738998
0.743128
0.0403842
-0.0448633
-0.625988
0.630467
0.0493641
-0.054794
-0.535031
0.540461
0.0585711
-0.0593423
-0.458092
0.458863
0.0524091
-0.0320409
-0.33679
0.316421
0.00966589
-0.0686798
0.0590139
-0.0533916
0.0492771
0.00411446
-0.0332658
0.0437
-0.358536
0.348102
-0.0473836
0.046802
-0.45956
0.460141
-0.043877
0.0406658
-0.536109
0.53932
-0.0369896
0.0336374
-0.628368
0.63172
-0.0300124
0.0267887
-0.742007
0.745231
-0.0233641
0.0201949
-0.881305
0.884475
-0.0166307
0.0132999
-1.0502
1.05353
-0.00962133
0.00623432
-1.2549
1.25829
-0.00246337
-0.00113533
-1.50325
1.50685
0.00470633
-0.00839645
-1.50406
1.50775
0.0116744
-0.0152123
-1.25704
1.26058
0.0184074
-0.021825
-1.05329
1.05671
0.0248721
-0.0281762
-0.885015
0.888319
0.0312957
-0.0348094
-0.746821
0.750335
0.0380612
-0.0416309
-0.634599
0.638168
0.0447513
-0.0475771
-0.544614
0.547439
0.0480582
-0.0442363
-0.456994
0.453172
0.0336346
-0.0163504
-0.297129
0.279845
0.00416996
-0.0531726
0.0490027
-0.0461034
0.0435451
0.00255826
-0.0230689
0.033431
-0.337496
0.327133
-0.039177
0.0401357
-0.459879
0.45892
-0.0388943
0.0365741
-0.541962
0.544282
-0.0339395
0.0314016
-0.634667
0.637205
-0.0284392
0.0256144
-0.748306
0.751131
-0.0224113
0.0194308
-0.88753
0.890511
-0.016112
0.0130047
-1.0567
1.05981
-0.00947788
0.0061054
-1.26166
1.26504
-0.00222249
-0.00155473
-1.51056
1.51434
0.00529673
-0.00907351
-1.51153
1.5153
0.0123045
-0.0156478
-1.26405
1.26739
0.0185755
-0.0216981
-1.05992
1.06304
0.024512
-0.0275499
-0.891516
0.894554
0.0302335
-0.0330448
-0.753522
0.756333
0.0354462
-0.0379373
-0.641137
0.643628
0.040137
-0.0412257
-0.549291
0.550379
0.0401121
-0.0341436
-0.448074
0.442106
0.0235398
-0.0103353
-0.264694
0.25149
0.00262694
-0.0457693
0.0431424
-0.0414226
0.0396199
0.00180263
-0.0169627
0.0262602
-0.317249
0.307952
-0.0328688
0.0349975
-0.457344
0.455215
-0.0345681
0.0328717
-0.546292
0.547988
-0.0306437
0.0285197
-0.639492
0.641616
-0.0260985
0.0237527
-0.75372
0.756066
-0.0209895
0.0182927
-0.893358
0.896054
-0.0151583
0.0121655
-1.06282
1.06581
-0.00874258
0.00546564
-1.26833
1.27161
-0.00166636
-0.00204697
-1.51808
1.5218
0.00571754
-0.00938638
-1.51904
1.52271
0.0124861
-0.0156751
-1.27066
1.27385
0.0184346
-0.0213082
-1.06607
1.06894
0.0237787
-0.0263189
-0.897344
0.899884
0.0284811
-0.0307132
-0.758787
0.761019
0.0326679
-0.034714
-0.645875
0.647921
0.0362388
-0.0364613
-0.550985
0.551207
0.0340967
-0.0271657
-0.435562
0.428631
0.0175473
-0.00742134
-0.239967
0.229841
0.00188646
-0.0409471
0.0390606
-0.0380664
0.0367131
0.00135329
-0.0129559
0.0209636
-0.299296
0.291289
-0.0277451
0.0306818
-0.45264
0.449704
-0.0309038
0.0297932
-0.549405
0.550515
-0.0278069
0.0258975
-0.643648
0.645557
-0.0237157
0.0216141
-0.758292
0.760393
-0.0191591
0.0167388
-0.898584
0.901004
-0.0138684
0.0110586
-1.06868
1.07149
-0.00778263
0.00461968
-1.2748
1.27796
-0.000947502
-0.00262955
-1.52542
1.529
0.00615253
-0.00966149
-1.52631
1.52982
0.0126032
-0.0155839
-1.27698
1.27996
0.0180989
-0.0206403
-1.07167
1.07421
0.0227777
-0.0249507
-0.902201
0.904374
0.0268172
-0.0287589
-0.763071
0.765013
0.0304571
-0.0322267
-0.649818
0.651587
0.0330896
-0.0325803
-0.551072
0.550563
0.0293092
-0.0220897
-0.421498
0.414278
0.0136729
-0.00570142
-0.220894
0.212923
0.00145526
-0.0374185
0.0359632
-0.0355297
0.0344881
0.00104159
-0.0101179
0.0168926
-0.283917
0.277143
-0.0234173
0.0268129
-0.446504
0.443109
-0.0276112
0.0269351
-0.551376
0.552053
-0.0251892
0.0234291
-0.647406
0.649166
-0.021406
0.019452
-0.76244
0.764394
-0.0171618
0.0149112
-0.903307
0.905557
-0.0122602
0.00965903
-1.07414
1.07674
-0.00659704
0.00360022
-1.28102
1.28401
-8.62397e-05
-0.00334063
-1.53249
1.53592
0.00670135
-0.0100094
-1.53324
1.53655
0.0127322
-0.0154322
-1.28283
1.28553
0.017668
-0.0199021
-1.07661
1.07885
0.0217861
-0.0237094
-0.906411
0.908334
0.0253634
-0.0270885
-0.766808
0.768533
0.0285913
-0.0300489
-0.653216
0.654673
0.0304199
-0.0292223
-0.549725
0.548527
0.0253721
-0.0182764
-0.407099
0.400003
0.0109916
-0.00454824
-0.205788
0.199345
0.00116501
-0.0346722
0.0335071
-0.0335725
0.0327617
0.000810884
-0.00800593
0.0136953
-0.270935
0.265246
-0.0197369
0.0233401
-0.439591
0.435988
-0.0246288
0.0242073
-0.552622
0.553044
-0.022739
0.0210951
-0.650905
0.652549
-0.0191806
0.0173313
-0.766312
0.768161
-0.0151613
0.0130256
-0.907699
0.909835
-0.0105054
0.00803755
-1.0792
1.08167
-0.00514508
0.00232065
-1.28688
1.2897
0.000981612
-0.00419731
-1.53922
1.54244
0.00733073
-0.0103837
-1.53974
1.54279
0.0128695
-0.0153095
-1.28812
1.29056
0.0173192
-0.0193214
-1.08098
1.08299
0.0210008
-0.0227161
-0.910139
0.911855
0.0241976
-0.0257463
-0.770131
0.77168
0.0270698
-0.0281677
-0.655947
0.657045
0.0281836
-0.0263537
-0.547029
0.545199
0.0221509
-0.0153853
-0.39307
0.386304
0.00906814
-0.00373466
-0.19351
0.188176
0.000960394
-0.0324599
0.0314995
-0.0320493
0.031418
0.00063126
-0.00636372
0.0111145
-0.260049
0.255298
-0.0165521
0.0201567
-0.432372
0.428767
-0.0217883
0.0216229
-0.553356
0.553521
-0.0204322
0.0188925
-0.654175
0.655715
-0.017074
0.0152995
-0.769992
0.771767
-0.0132048
0.0111387
-0.911879
0.913946
-0.00870589
0.00633586
-1.08402
1.08639
-0.00357239
0.000891682
-1.29241
1.29509
0.00222514
-0.00524104
-1.54552
1.54854
0.00815278
-0.0109612
-1.54573
1.54853
0.0132275
-0.0154383
-1.29293
1.29514
0.0172516
-0.0190495
-1.08493
1.08673
0.02055
-0.0220705
-0.913463
0.914983
0.0233737
-0.0247288
-0.773089
0.774444
0.0258885
-0.0265907
-0.657925
0.658627
0.026252
-0.0239081
-0.543138
0.540794
0.0195274
-0.0131811
-0.379763
0.373417
0.00765873
-0.00314685
-0.183297
0.178785
0.000813456
-0.0306273
0.0298138
-0.0308679
0.0303833
0.000484668
-0.00502823
0.00895991
-0.25098
0.247049
-0.0137383
0.0171804
-0.425247
0.421805
-0.0189864
0.0190066
-0.553623
0.553602
-0.0180119
0.0165164
-0.657284
0.658779
-0.0147436
0.0130185
-0.773528
0.775253
-0.0109933
0.0090083
-0.915895
0.91788
-0.00667886
0.00441235
-1.08862
1.09088
-0.00177285
-0.000774214
-1.29764
1.30019
0.00371486
-0.00652611
-1.55142
1.55424
0.00921232
-0.0117767
-1.55123
1.55379
0.0138182
-0.0157829
-1.29727
1.29923
0.0173733
-0.0189321
-1.08843
1.08999
0.0202236
-0.021525
-0.9164
0.917701
0.0226484
-0.0238414
-0.77569
0.776883
0.0248455
-0.0252046
-0.659125
0.659484
0.0245187
-0.021794
-0.538292
0.535567
0.0173736
-0.0114751
-0.367321
0.361423
0.00660226
-0.00271237
-0.174622
0.170732
0.000705585
-0.0290684
0.0283628
-0.0299677
0.0296075
0.000360184
-0.00389392
0.00709401
-0.243504
0.240304
-0.0111928
0.0143656
-0.418509
0.415336
-0.0162416
0.0164403
-0.553538
0.553339
-0.0155656
0.0141748
-0.6603
0.661691
-0.0124368
0.0107331
-0.776979
0.778683
-0.00873262
0.00677642
-0.919749
0.921706
-0.00449287
0.00228768
-1.09302
1.09522
0.000253769
-0.00269088
-1.30261
1.30505
0.0054688
-0.00808868
-1.55691
1.55953
0.0105554
-0.0128692
-1.55623
1.55855
0.0146784
-0.0163905
-1.30112
1.30283
0.0177563
-0.0190845
-1.09146
1.09279
0.020183
-0.0213036
-0.918918
0.920038
0.0222826
-0.0233069
-0.777969
0.778993
0.0240644
-0.0241457
-0.659706
0.659787
0.0230973
-0.0200475
-0.532713
0.529663
0.0156475
-0.0101689
-0.355762
0.350284
0.00581851
-0.00239943
-0.167111
0.163692
0.000631415
-0.0277088
0.0270774
-0.0293106
0.0290634
0.000247196
-0.00287675
0.00539777
-0.237465
0.234944
-0.00879413
0.0115934
-0.41237
0.409571
-0.0134147
0.0137316
-0.553131
0.552814
-0.0129635
0.0116861
-0.663099
0.664376
-0.00998802
0.00828267
-0.78038
0.782085
-0.00626229
0.00429435
-0.923555
0.925523
-0.00202318
-0.000138673
-1.0973
1.09946
0.00261224
-0.00494759
-1.30736
1.3097
0.00757918
-0.0100286
-1.56202
1.56447
0.0122885
-0.0143513
-1.56074
1.5628
0.0159273
-0.0173916
-1.30447
1.30594
0.0185509
-0.0196673
-1.09406
1.09517
0.0205772
-0.0214868
-0.921068
0.921977
0.0222577
-0.0230212
-0.779878
0.780641
0.0234792
-0.0232865
-0.659694
0.659501
0.0218809
-0.0185747
-0.526522
0.523216
0.0142482
-0.00915667
-0.345039
0.339947
0.00522946
-0.00217085
-0.160491
0.157432
0.000579308
-0.0264897
0.0259104
-0.028878
0.0287393
0.000138697
-0.00191624
0.00378724
-0.232769
0.230898
-0.00646577
0.00880586
-0.407037
0.404697
-0.0104321
0.0107457
-0.552573
0.552259
-0.0100017
0.00875596
-0.665724
0.66697
-0.00704707
0.00532439
-0.783773
0.785496
-0.00330321
0.00135478
-0.927343
0.929291
0.000877522
-0.00299788
-1.10149
1.10361
0.00540172
-0.00765251
-1.3119
1.31416
0.010147
-0.0124101
-1.56678
1.56905
0.0144399
-0.0162345
-1.56473
1.56653
0.0175432
-0.0187016
-1.30731
1.30847
0.0195638
-0.0203502
-1.09619
1.09698
0.0209806
-0.0216203
-0.922798
0.923437
0.0221982
-0.0228261
-0.7813
0.781928
0.0230147
-0.0225431
-0.659085
0.658613
0.0208232
-0.0173401
-0.519861
0.516378
0.0131211
-0.00837449
-0.33508
0.330333
0.00478997
-0.00200798
-0.154552
0.15177
0.000544927
-0.0253679
0.0248229
-0.0286619
0.0286368
2.51618e-05
-0.000959513
0.00218437
-0.229372
0.228147
-0.00411738
0.00593697
-0.402664
0.400845
-0.00728919
0.00754891
-0.552085
0.551825
-0.00681824
0.00559849
-0.668324
0.669543
-0.00388087
0.00213792
-0.787174
0.788917
-8.63026e-05
-0.00189174
-0.931078
0.933056
0.00415424
-0.00628933
-1.10559
1.10773
0.00868231
-0.0108789
-1.31628
1.31848
0.01325
-0.0153292
-1.57115
1.57323
0.0171271
-0.0186547
-1.56818
1.56971
0.0197172
-0.0205977
-1.30954
1.31042
0.0212177
-0.0217441
-1.09769
1.09821
0.0221245
-0.0224815
-0.923989
0.924346
0.022786
-0.0231168
-0.782376
0.782707
0.0229784
-0.0221883
-0.657843
0.657053
0.0201425
-0.0164484
-0.512874
0.50918
0.0122992
-0.00782622
-0.325792
0.321319
0.00450206
-0.00191488
-0.149135
0.146548
0.000531288
-0.0243097
0.0237784
-0.0286666
0.0287587
-9.20947e-05
6.02631e-05
0.000512409
-0.227271
0.226698
-0.001665
0.00288444
-0.399371
0.398151
-0.00386345
0.0040229
-0.551748
0.551588
-0.00331672
0.00213337
-0.670877
0.67206
-0.000396328
-0.00142197
-0.790621
0.792439
0.00358632
-0.0056634
-0.934904
0.936981
0.00801011
-0.0101883
-1.10974
1.11192
0.012582
-0.0147388
-1.32055
1.32271
0.017016
-0.0189483
-1.57517
1.57711
0.0205329
-0.0217665
-1.57107
1.57231
0.0225141
-0.0230382
-1.3112
1.31173
0.0233342
-0.0235336
-1.09864
1.09884
0.0236376
-0.0237118
-0.924605
0.924679
0.0237796
-0.0237478
-0.782757
0.782725
0.0233287
-0.0220719
-0.655904
0.654647
0.019645
-0.0157659
-0.505503
0.501624
0.0116962
-0.00745188
-0.31705
0.312806
0.00432371
-0.00186897
-0.144086
0.141631
0.000530131
-0.0232761
0.0227459
-0.0289178
0.0291474
-0.000229569
0.00105959
-0.00119829
-0.226514
0.226653
0.000893367
-0.000364725
-0.397326
0.396798
-9.393e-05
-2.33636e-05
-0.551743
0.55186
0.000882054
-0.00216783
-0.67344
0.674726
0.00399654
-0.0059036
-0.794201
0.796108
0.00815424
-0.0102979
-0.938895
0.941039
0.0127074
-0.0149282
-1.11396
1.11618
0.0173433
-0.0194733
-1.32473
1.32686
0.0216504
-0.0234069
-1.57887
1.58063
0.0247256
-0.0256319
-1.57334
1.57425
0.0260588
-0.0262002
-1.31214
1.31228
0.0261463
-0.0259487
-1.0989
1.0987
0.0256978
-0.0254038
-0.924602
0.924308
0.0251354
-0.0247563
-0.782365
0.781986
0.0239708
-0.0222087
-0.653085
0.651323
0.0194724
-0.0154321
-0.497842
0.493802
0.0113929
-0.00728491
-0.308749
0.304641
0.00426895
-0.00187472
-0.139277
0.136883
0.000542183
-0.0222422
0.0217001
-0.029445
0.0298174
-0.000372461
0.00220568
-0.0030477
-0.22712
0.227962
0.00363078
-0.00386351
-0.396683
0.396916
0.00401529
-0.00445477
-0.552411
0.552851
0.00547472
-0.00690862
-0.676258
0.677692
0.0088914
-0.0109338
-0.797939
0.799982
0.0133265
-0.0155933
-0.943003
0.94527
0.0181333
-0.0204626
-1.11826
1.12059
0.0229697
-0.0251414
-1.32887
1.33104
0.0272819
-0.0288976
-1.58223
1.58385
0.0299874
-0.0305566
-1.57496
1.57553
0.0306548
-0.0303869
-1.31227
1.312
0.029926
-0.0292922
-1.0983
1.09766
0.0286488
-0.0279404
-0.923783
0.923074
0.0273144
-0.0265135
-0.781193
0.780393
0.0253134
-0.0230423
-0.649396
0.647125
0.0198998
-0.0155841
-0.489846
0.485531
0.0114741
-0.00738314
-0.30069
0.296599
0.00437084
-0.00194268
-0.134559
0.132131
0.000568231
-0.0211821
0.0206138
-0.0302751
0.0308285
-0.000553443
0.00344666
-0.00505204
-0.229206
0.230811
0.00654973
-0.00758781
-0.397533
0.398571
0.00845929
-0.00929986
-0.553821
0.554662
0.0105339
-0.0121265
-0.679397
0.68099
0.0143095
-0.0165771
-0.801964
0.804232
0.0192545
-0.0217931
-0.947407
0.949945
0.0246202
-0.0271759
-1.12282
1.12538
0.0298621
-0.0321103
-1.33311
1.33536
0.0342155
-0.03567
-1.58528
1.58673
0.036484
-0.0366694
-1.57585
1.57604
0.036377
-0.0356847
-1.31153
1.31084
0.0348271
-0.033754
-1.09679
1.09571
0.0327166
-0.031562
-0.922065
0.920911
0.0305534
-0.0292148
-0.779111
0.777772
0.0274691
-0.0245859
-0.644713
0.64183
0.0209899
-0.0163576
-0.481317
0.476684
0.0120876
-0.00785797
-0.292627
0.288397
0.00469675
-0.00210074
-0.129726
0.12713
0.000615012
-0.0200645
0.0194495
-0.0314687
0.0322361
-0.000767367
0.00484849
-0.00727408
-0.232831
0.235256
0.00977085
-0.0116944
-0.400045
0.401969
0.0134036
-0.0148009
-0.556162
0.557559
0.0164218
-0.0183008
-0.682936
0.684815
0.0208257
-0.0234416
-0.806465
0.809081
0.0265256
-0.0294276
-0.952379
0.955281
0.0326138
-0.0354347
-1.12784
1.13066
0.0383232
-0.0406565
-1.33749
1.33982
0.0427324
-0.0440177
-1.588
1.58928
0.0445226
-0.0442699
-1.57595
1.5757
0.0435215
-0.0423349
-1.30988
1.30869
0.0410249
-0.0394586
-1.09433
1.09276
0.037985
-0.0363741
-0.919389
0.917778
0.0349251
-0.032964
-0.775929
0.773968
0.0306627
-0.0271837
-0.63887
0.635392
0.0231207
-0.0180658
-0.472173
0.467118
0.0134508
-0.00883614
-0.284207
0.279593
0.00531855
-0.00238334
-0.124492
0.121556
0.000694817
-0.0188451
0.0181503
-0.0330823
0.0341133
-0.00103109
0.00650924
-0.00986074
-0.238084
0.241435
0.0134596
-0.0163642
-0.404446
0.40735
0.0190291
-0.0211705
-0.559815
0.561957
0.0234553
-0.0258693
-0.687217
0.689631
0.0289581
-0.032066
-0.811695
0.814803
0.0356456
-0.0389538
-0.958067
0.961375
0.0425271
-0.045639
-1.13336
1.13648
0.0487526
-0.051179
-1.34201
1.34444
0.0531913
-0.0542347
-1.59032
1.59137
0.054345
-0.0535725
-1.57512
1.57435
0.0522898
-0.0504782
-1.30713
1.30532
0.0486214
-0.0464973
-1.09081
1.08868
0.0445519
-0.0424582
-0.915714
0.913621
0.0405401
-0.0380356
-0.771532
0.769028
0.035194
-0.0310906
-0.631904
0.627801
0.0264389
-0.0207397
-0.462159
0.45646
0.0155334
-0.0102662
-0.274928
0.26966
0.00619388
-0.00276978
-0.118521
0.115097
0.000802155
-0.0174577
0.0166555
-0.0352115
0.0366036
-0.00139217
0.00870288
-0.0132014
-0.24517
0.249668
0.0180781
-0.0220574
-0.410924
0.414903
0.0257473
-0.0287026
-0.565175
0.56813
0.0317753
-0.0348779
-0.69273
0.695832
0.0387068
-0.0424365
-0.81792
0.82165
0.0466372
-0.0504616
-0.964577
0.968401
0.0545391
-0.0580351
-1.13948
1.14298
0.0614574
-0.0640224
-1.34671
1.34927
0.0659788
-0.0667575
-1.59213
1.59291
0.0664252
-0.0650556
-1.57319
1.57182
0.0631687
-0.0606663
-1.30309
1.30059
0.0581754
-0.0553871
-1.08603
1.08324
0.0528843
-0.0502628
-0.910984
0.908363
0.0478596
-0.0448085
-0.766056
0.763005
0.0413389
-0.0364211
-0.623664
0.618746
0.0309498
-0.024327
-0.450815
0.444193
0.0182673
-0.0120854
-0.264274
0.258093
0.00727945
-0.0032417
-0.111535
0.107497
0.000933496
-0.0158515
0.014918
-0.0380392
0.0399614
-0.00192223
0.0118108
-0.0178225
-0.254509
0.260521
0.0242673
-0.0295012
-0.419803
0.425037
0.0343132
-0.0381462
-0.572435
0.576268
0.0420856
-0.0459781
-0.699729
0.703622
0.0506721
-0.0551825
-0.825391
0.829902
0.0602047
-0.0647159
-0.972174
0.976685
0.0694462
-0.0734042
-1.1464
1.15035
0.0771469
-0.0798047
-1.35165
1.35431
0.0816224
-0.0820288
-1.59335
1.59375
0.0811458
-0.0790664
-1.57
1.56792
0.0764936
-0.0732147
-1.2976
1.29433
0.0700153
-0.0664823
-1.07985
1.07632
0.063358
-0.0600918
-0.904994
0.901728
0.05703
-0.0532215
-0.759375
0.755566
0.0489134
-0.0429413
-0.61372
0.607748
0.0364394
-0.0286359
-0.437621
0.429817
0.0214674
-0.0141357
-0.251761
0.24443
0.00846257
-0.00373991
-0.103319
0.0985959
0.00106799
-0.0139891
0.0129211
-0.041885
0.0446421
-0.00275712
0.0164885
-0.0245786
-0.266812
0.274902
0.0330417
-0.03985
-0.431734
0.438542
0.0460612
-0.0509776
-0.581915
0.586832
0.056046
-0.0610281
-0.708408
0.71339
0.0668152
-0.0722522
-0.834451
0.839888
0.0781977
-0.0834292
-0.981154
0.986386
0.0887594
-0.0930485
-1.15417
1.15846
0.096878
-0.0993594
-1.35665
1.35913
0.100696
-0.100402
-1.59365
1.59335
0.0986445
-0.0955728
-1.56526
1.56219
0.092125
-0.087954
-1.2905
1.28633
0.083995
-0.0796582
-1.07209
1.06775
0.0758053
-0.0717286
-0.89751
0.893433
0.0678426
-0.0631114
-0.751021
0.74629
0.0578209
-0.0506769
-0.601585
0.594441
0.0429552
-0.0336498
-0.422068
0.412763
0.0250689
-0.0163537
-0.236963
0.228248
0.00969807
-0.00423881
-0.0937628
0.0883035
0.00119535
-0.0118732
0.0106778
-0.0473297
0.051527
-0.00419727
0.0239297
-0.0349218
-0.283283
0.294275
0.0460749
-0.0550381
-0.447833
0.456796
0.0630946
-0.0694674
-0.594229
0.600602
0.0761485
-0.0825528
-0.719318
0.725722
0.08965
-0.0960214
-0.845327
0.851698
0.102747
-0.108445
-0.991451
0.997149
0.113984
-0.118176
-1.16238
1.16657
0.121583
-0.123394
-1.36102
1.36283
0.123687
-0.122168
-1.59225
1.59073
0.119044
-0.114523
-1.55827
1.55375
0.10984
-0.104457
-1.28145
1.27606
0.0995415
-0.0943163
-1.06267
1.05745
0.0897677
-0.0849461
-0.888248
0.883426
0.0803481
-0.074717
-0.740649
0.735018
0.068429
-0.0598643
-0.586983
0.578418
0.0505391
-0.0392829
-0.403437
0.392181
0.0289901
-0.0186972
-0.2195
0.209207
0.0109552
-0.00471617
-0.0828128
0.0765738
0.0013052
-0.00952725
0.00822205
-0.0554579
0.0627099
-0.00725207
0.0372409
-0.0525418
-0.306123
0.321423
0.0674456
-0.079193
-0.469616
0.481364
0.0892026
-0.0971773
-0.61012
0.618094
0.105676
-0.113465
-0.732892
0.740681
0.121615
-0.128532
-0.857876
0.864793
0.135447
-0.14097
-1.00239
1.00791
0.145986
-0.149416
-1.17005
1.17348
0.151723
-0.152267
-1.36372
1.36426
0.150956
-0.14776
-1.58811
1.58492
0.142949
-0.136739
-1.54816
1.54195
0.130625
-0.123809
-1.26977
1.26295
0.117716
-0.111401
-1.0513
1.04499
0.106052
-0.100559
-0.877422
0.871929
0.0954167
-0.0888943
-0.728307
0.721785
0.0811676
-0.070441
-0.569206
0.558479
0.0588689
-0.0453038
-0.380731
0.367166
0.0331739
-0.0212071
-0.199114
0.187147
0.012271
-0.00518386
-0.0705017
0.0634145
0.00139257
-0.00700227
0.0056097
-0.0695352
0.0734595
-0.00392421
0.0278931
-0.0410424
-0.339264
0.352413
0.0542312
-0.0647556
-0.498221
0.508745
0.0743584
-0.0837255
-0.629555
0.638922
0.0943732
-0.103781
-0.748323
0.757731
0.114207
-0.123429
-0.87091
0.880132
0.133069
-0.141435
-1.01246
1.02082
0.149895
-0.156849
-1.17575
1.18271
0.163298
-0.167875
-1.36358
1.36815
0.171009
-0.171716
-1.58046
1.58117
0.169878
-0.165919
-1.53461
1.53065
0.160891
-0.154365
-1.25519
1.24867
0.148079
-0.140673
-1.03765
1.03024
0.134283
-0.127381
-0.864983
0.85808
0.120492
-0.111015
-0.713463
0.703985
0.0988733
-0.0829969
-0.546515
0.530639
0.0671363
-0.0494558
-0.353214
0.335533
0.0346292
-0.0208905
-0.175585
0.161846
0.0113359
-0.00443733
-0.0570305
0.050132
0.00106619
-0.00440918
0.00334299
-0.0804637
0.0784045
0.00205917
0.00595258
-0.0142152
-0.368375
0.376638
0.0240204
-0.031543
-0.523887
0.53141
0.0393933
-0.04747
-0.650522
0.658599
0.0571671
-0.066033
-0.766945
0.775811
0.0753827
-0.0838528
-0.888813
0.897283
0.0927102
-0.100128
-1.02889
1.03631
0.10789
-0.113994
-1.18953
1.19563
0.119716
-0.12363
-1.37255
1.37647
0.125955
-0.126174
-1.58129
1.58151
0.124003
-0.119832
-1.52626
1.52209
0.114431
-0.107431
-1.24192
1.23492
0.100439
-0.0920433
-1.02213
1.01374
0.083653
-0.0735332
-0.847784
0.837664
0.0636062
-0.0524837
-0.688794
0.677672
0.0420549
-0.0304964
-0.512076
0.500517
0.0208468
-0.0124397
-0.317417
0.30901
0.00698231
-0.00309031
-0.14869
0.144798
0.00108665
-0.000161804
-0.043775
0.0428502
-4.53715e-05
-0.00221175
0.00225712
-0.0814302
0.0784522
0.00297797
-0.00299856
-0.0013533
-0.387609
0.391961
0.00769584
-0.0132025
-0.542748
0.548255
0.0191802
-0.0259696
-0.668337
0.675127
0.034166
-0.0417286
-0.783847
0.791409
0.0499893
-0.0573734
-0.905019
0.912403
0.0649337
-0.0716995
-1.0436
1.05036
0.0786579
-0.0843132
-1.20143
1.20708
0.0892976
-0.0926325
-1.37993
1.38326
0.0947618
-0.0947011
-1.5813
1.58124
0.0923076
-0.0879359
-1.51753
1.51316
0.0823757
-0.0752445
-1.22781
1.22068
0.0675463
-0.058338
-1.0044
0.995195
0.0489888
-0.0379146
-0.825903
0.814829
0.0277875
-0.0173383
-0.662973
0.652523
0.00890388
-0.00103822
-0.486983
0.479117
-0.00371603
0.0060928
-0.299132
0.296755
-0.00634204
0.00525088
-0.139322
0.140413
-0.00365801
0.0018414
-0.0413097
0.0431263
-0.000590615
-0.00202446
0.00261508
-0.079906
0.0770733
0.0028327
-0.00630046
0.00450612
-0.399892
0.401687
-0.000841793
-0.00315535
-0.556651
0.560648
0.0081491
-0.0136699
-0.682662
0.688183
0.0204813
-0.0268673
-0.798419
0.804805
0.0338957
-0.0402677
-0.919293
0.925665
0.0472523
-0.0531692
-1.05678
1.0627
0.0595067
-0.0642733
-1.21246
1.21723
0.0688469
-0.0718858
-1.38653
1.38957
0.0735884
-0.0729743
-1.58086
1.58025
0.0704094
-0.0658409
-1.50821
1.50364
0.0600661
-0.052376
-1.2131
1.20541
0.0445568
-0.0353117
-0.985294
0.976049
0.0260285
-0.0157754
-0.802977
0.792724
0.0064803
0.00222027
-0.639743
0.631043
-0.00840602
0.0130484
-0.469672
0.46503
-0.0147447
0.0139623
-0.291198
0.29198
-0.0118161
0.00858533
-0.139676
0.142907
-0.00562754
0.00266023
-0.044014
0.0469813
-0.000805174
-0.00283318
0.00363835
-0.0782134
0.0757744
0.00243895
-0.00704924
0.00670877
-0.407824
0.408165
-0.00412939
0.00139318
-0.567551
0.570287
0.00249803
-0.00735049
-0.694279
0.699131
0.0128925
-0.0184142
-0.810544
0.816066
0.0244805
-0.0300679
-0.931645
0.937232
0.036189
-0.0416146
-1.06856
1.07398
0.0471971
-0.0517654
-1.22195
1.22652
0.055895
-0.0585722
-1.39233
1.39501
0.0599127
-0.0589948
-1.57944
1.57853
0.0561867
-0.0512531
-1.49829
1.49335
0.0454364
-0.0379987
-1.19755
1.19012
0.0304806
-0.0216878
-0.96642
0.957627
0.0133923
-0.00440289
-0.782066
0.773076
-0.0032581
0.0102643
-0.620871
0.613865
-0.0148032
0.0177442
-0.458076
0.455135
-0.0184278
0.0165624
-0.288818
0.290684
-0.0134394
0.00965945
-0.1441
0.14788
-0.00625028
0.00290274
-0.0489053
0.0522528
-0.000883131
-0.0040943
0.00497743
-0.0767598
0.0747241
0.00203563
-0.00658053
0.00658067
-0.41313
0.41313
-0.00527447
0.00308433
-0.575675
0.577865
0.000624327
-0.0046749
-0.703812
0.707862
0.00934596
-0.0140846
-0.820843
0.825582
0.0194764
-0.0245208
-0.942529
0.947573
0.0302169
-0.0350899
-1.07919
1.08406
0.0402466
-0.0444725
-1.23086
1.23509
0.0482158
-0.0505814
-1.39744
1.39981
0.0516094
-0.0508403
-1.57746
1.5767
0.0479034
-0.0431826
-1.48792
1.4832
0.0375966
-0.0306253
-1.18254
1.17557
0.0239803
-0.0160547
-0.948889
0.940963
0.00883779
-0.00134963
-0.764083
0.756595
-0.00495556
0.0106454
-0.60571
0.60002
-0.0143683
0.0168301
-0.449764
0.447302
-0.0170621
0.0152615
-0.288842
0.290643
-0.0124827
0.0089079
-0.149574
0.153149
-0.00569839
0.00267156
-0.0542057
0.0572326
-0.000822996
-0.00543737
0.00626037
-0.0757529
0.0742094
0.00154352
-0.00541441
0.00558393
-0.417096
0.416927
-0.00451649
0.0029189
-0.58275
0.584348
0.000579041
-0.00420684
-0.711913
0.71554
0.00863034
-0.0126897
-0.829977
0.834037
0.0174447
-0.0219637
-0.952636
0.957155
0.0274233
-0.0319185
-1.08901
1.0935
0.0365844
-0.0406196
-1.23916
1.24319
0.0444864
-0.0466563
-1.40218
1.40435
0.0476764
-0.0468198
-1.5755
1.57464
0.0442994
-0.0396359
-1.47826
1.4736
0.0346418
-0.0284732
-1.16855
1.16239
0.0224595
-0.0157238
-0.933303
0.926567
0.00949551
-0.00298087
-0.748982
0.742468
-0.00211955
0.00699002
-0.593294
0.588424
-0.0102586
0.0121724
-0.442576
0.440662
-0.0126082
0.0115544
-0.289238
0.290292
-0.00943934
0.00667658
-0.154341
0.157104
-0.00425383
0.00201141
-0.0586573
0.0608997
-0.000635777
-0.00657876
0.00721454
-0.0753224
0.0741435
0.00117894
-0.00414088
0.00428331
-0.420359
0.420216
-0.00313296
0.00149668
-0.588971
0.590607
0.00178312
-0.00500299
-0.719183
0.722403
0.00878394
-0.0127307
-0.838101
0.842048
0.0171516
-0.0218277
-0.961529
0.966205
0.0265826
-0.0308942
-1.09811
1.10242
0.0356666
-0.0394286
-1.24712
1.25088
0.042776
-0.0453002
-1.40642
1.40894
0.0464448
-0.0458475
-1.57381
1.57321
0.0435311
-0.0395596
-1.46915
1.46518
0.0350748
-0.0295375
-1.15602
1.15048
0.0242738
-0.0183404
-0.919876
0.913943
0.0129273
-0.00741593
-0.73605
0.730539
0.0026667
0.00167074
-0.582638
0.578301
-0.00457009
0.00660711
-0.436486
0.434449
-0.00724788
0.00666358
-0.288727
0.289312
-0.00546939
0.00379779
-0.157366
0.159038
-0.00239923
0.00114957
-0.0615438
0.0627935
-0.00038996
-0.00734944
0.0077394
-0.0754633
0.0744978
0.0009655
-0.00275198
0.00255771
-0.423488
0.423682
-0.00148109
-0.000233713
-0.594831
0.596546
0.0033565
-0.00655191
-0.725991
0.729186
0.0102425
-0.0138465
-0.845846
0.84945
0.0184189
-0.0223349
-0.970353
0.974269
0.0270531
-0.0311659
-1.1069
1.11101
0.0357878
-0.0396971
-1.25462
1.25853
0.0432692
-0.0455303
-1.41121
1.41347
0.0469707
-0.04676
-1.57253
1.57232
0.0451011
-0.0415216
-1.4611
1.45752
0.0375936
-0.0326401
-1.1451
1.14015
0.0279689
-0.0226139
-0.907897
0.902542
0.0178891
-0.01288
-0.724825
0.719816
0.00863904
-0.00460868
-0.573263
0.569233
0.00164894
0.000406914
-0.430465
0.428409
-0.00146171
0.00161724
-0.2871
0.286944
-0.00150201
0.00108187
-0.1583
0.15872
-0.000721832
0.000426649
-0.0625644
0.0628596
-0.000178864
-0.00766734
0.00784621
-0.0759083
0.0752519
0.000656376
-0.00156524
0.000950335
-0.42691
0.427525
-2.98508e-05
-0.00212802
-0.600029
0.602187
0.00499217
-0.00814706
-0.732469
0.735624
0.0117559
-0.0155482
-0.852986
0.856778
0.0195581
-0.0236446
-0.978423
0.982509
0.0283173
-0.0322024
-1.11555
1.11944
0.0368736
-0.0406946
-1.26224
1.26606
0.0442762
-0.0470198
-1.41612
1.41887
0.0489135
-0.0489792
-1.57214
1.5722
0.0475904
-0.0447635
-1.45412
1.45129
0.0414326
-0.0369323
-1.1351
1.1306
0.0326156
-0.0279244
-0.897159
0.892468
0.0232718
-0.018806
-0.714549
0.710084
0.0148675
-0.0109433
-0.564772
0.560848
0.00808319
-0.00562517
-0.424387
0.421929
0.00410283
-0.00296332
-0.284211
0.283072
0.00213443
-0.00130198
-0.157036
0.156203
0.000593315
-8.70043e-05
-0.0618221
0.0613158
-6.40496e-05
-0.00750427
0.00756832
-0.0767625
0.0762616
0.000500934
-0.000597401
8.22557e-05
-0.430683
0.431198
0.00169925
-0.00368452
-0.605655
0.60764
0.0067695
-0.0098809
-0.738633
0.741744
0.0134211
-0.0168817
-0.860313
0.863774
0.0210553
-0.0248472
-0.986633
0.990425
0.0294639
-0.0337572
-1.12377
1.12807
0.0380399
-0.0421501
-1.26992
1.27403
0.046108
-0.0489148
-1.4215
1.42431
0.0511592
-0.0519969
-1.57248
1.57332
0.0510627
-0.048879
-1.44834
1.44616
0.0457863
-0.0417759
-1.12613
1.12212
0.0378976
-0.0334157
-0.887385
0.882903
0.0291734
-0.0248633
-0.705094
0.700784
0.0210641
-0.0170952
-0.556388
0.552419
0.013967
-0.0111585
-0.417931
0.415123
0.00887935
-0.00686418
-0.279654
0.277639
0.00508331
-0.00323587
-0.15361
0.151763
0.00176696
-0.000622403
-0.0595912
0.0584467
9.95757e-05
-0.00704953
0.00694996
-0.0778775
0.0775586
0.000318973
0.000471885
-0.00130064
-0.434583
0.435412
0.00289174
-0.0052236
-0.610967
0.613299
0.00830949
-0.0113378
-0.744728
0.747756
0.0150307
-0.0183982
-0.867273
0.87064
0.0224573
-0.0263844
-0.994719
0.998646
0.0309022
-0.0351451
-1.13222
1.13646
0.0396193
-0.0437272
-1.27806
1.28216
0.0478399
-0.0513643
-1.4274
1.43092
0.0540353
-0.0551651
-1.57409
1.57522
0.0549216
-0.0530674
-1.44386
1.442
0.0505306
-0.0470436
-1.11802
1.11454
0.0432315
-0.0389722
-0.878126
0.873867
0.0349075