/*--------------------------------*- C++ -*----------------------------------*\
| =========                 |                                                 |
| \\      /  F ield         | OpenFOAM: The Open Source CFD Toolbox           |
|  \\    /   O peration     | Version:  2112                                  |
|   \\  /    A nd           | Website:  www.openfoam.com                      |
|    \\/     M anipulation  |                                                 |
\*---------------------------------------------------------------------------*/
FoamFile
{
    version     2.0;
    format      ascii;
    arch        "LSB;label=32;scalar=64";
    class       volScalarField;
    location    "21";
    object      p;
}
// * * * * * * * * * * * * * * * * * * * * * * * * * * * * * * * * * * * * * //

dimensions      [0 2 -2 0 0 0 0];

internalField   nonuniform List<scalar> 
400
(
1.0740727e-06
-0.00067165009
-0.0013840903
-0.0019414176
-0.0022186828
-0.0021551569
-0.0017264359
-0.00092483604
0.00023678595
0.0017087651
0.0033886347
0.0051135316
0.0066748038
0.0078504286
0.0084597301
0.0084250516
0.0078147976
0.0068459509
0.0058627531
0.005300405
0.00065903209
-3.9302752e-05
-0.00056841684
-0.00093936021
-0.0011095739
-0.0010386082
-0.00070445646
-9.4195145e-05
0.00079045777
0.0019175469
0.0032109443
0.0045560601
0.0057833172
0.0067176155
0.0072157959
0.0072159222
0.0067713741
0.0060542124
0.005311987
0.004739954
0.0014248741
0.0004418541
-0.00011537416
-0.00045199548
-0.00061353671
-0.00058351368
-0.00034525669
0.00012108958
0.00082982221
0.0017712775
0.0028956651
0.0040995389
0.0052296164
0.0061123558
0.0065952621
0.0065990743
0.0061571694
0.0054229655
0.0045952194
0.003749718
0.002015349
0.00068287476
1.7983029e-05
-0.00035761557
-0.00057028425
-0.00062526395
-0.00050875435
-0.00018927096
0.00036988772
0.0011857882
0.0022313217
0.0034188357
0.0045927745
0.0055583529
0.0061249744
0.006167995
0.005685074
0.0048185268
0.0037487906
0.0024751148
0.0021684081
0.00049730045
-0.00029504875
-0.00074746705
-0.0010569805
-0.0012439576
-0.001291393
-0.0011499044
-0.00075361632
-5.1641125e-05
0.0009584945
0.0022117521
0.0035461725
0.0047341224
0.0055233038
0.0057113518
0.0052307695
0.0042031093
0.0028077139
0.00098551769
0.0016551054
-0.00031328532
-0.0012375631
-0.0017980436
-0.002251361
-0.0026265554
-0.0028972095
-0.002989615
-0.0028010219
-0.0022361285
-0.0012495317
0.0001324572
0.0017461984
0.0033286453
0.0045431654
0.0050672949
0.0047190181
0.0035677396
0.001791161
-0.00072431895
0.00028819965
-0.0019183432
-0.0029717373
-0.0036700816
-0.0043189413
-0.0049517771
-0.0055286213
-0.0059463804
-0.0060573676
-0.0057057006
-0.0047740095
-0.0032569921
-0.0012648273
0.00090882631
0.0028247406
0.0039884241
0.0040266724
0.0028892949
0.00071699113
-0.0026788452
-0.0020751942
-0.0044499075
-0.0056254829
-0.0064909537
-0.0073914843
-0.0083642424
-0.0093553058
-0.010230072
-0.010789177
-0.010802991
-0.01006148
-0.0084598807
-0.0060389146
-0.0030814154
-0.00012456597
0.0021143087
0.002965477
0.0021372228
-0.00036437357
-0.0048709007
-0.0055228439
-0.0079907508
-0.0092765199
-0.010332332
-0.011536461
-0.012933778
-0.014460957
-0.015954454
-0.017160496
-0.01776399
-0.017436001
-0.015917393
-0.013120912
-0.009249777
-0.0048971105
-0.0010282054
0.0012711511
0.001279469
-0.0013322477
-0.0071999165
-0.010075481
-0.012563638
-0.013935171
-0.015182449
-0.016716734
-0.018600861
-0.020772309
-0.023046746
-0.025119549
-0.026584124
-0.026967075
-0.025810663
-0.022843439
-0.018072286
-0.012049031
-0.0059500069
-0.0013688955
0.00030236856
-0.0019454466
-0.0093804242
-0.015683438
-0.018130854
-0.019535966
-0.020925157
-0.022755992
-0.025128004
-0.027994994
-0.031164252
-0.034289194
-0.036874477
-0.038291746
-0.037841836
-0.035063466
-0.029599165
-0.021820306
-0.012983515
-0.0051830405
-0.00071391475
-0.0017624097
-0.010790438
-0.022241939
-0.024611386
-0.025943917
-0.027333222
-0.029322334
-0.032077277
-0.035586844
-0.03966241
-0.043924908
-0.047798846
-0.050527686
-0.051233995
-0.048954431
-0.043141187
-0.033766771
-0.021924228
-0.010034901
-0.0014135771
-8.0702152e-06
-0.010223822
-0.029639464
-0.031922173
-0.032977011
-0.034078082
-0.035937636
-0.038829529
-0.042793488
-0.047649316
-0.052988145
-0.05816112
-0.062281751
-0.06426306
-0.062872755
-0.057109884
-0.046474555
-0.03164702
-0.015035913
-0.00086254889
0.0046485247
-0.0055198085
-0.037864189
-0.040046749
-0.040438384
-0.040750727
-0.042013177
-0.044651092
-0.048756095
-0.054141828
-0.060353688
-0.066662938
-0.072058273
-0.07526592
-0.074809098
-0.069267125
-0.057626289
-0.039959601
-0.018246158
0.0027907726
0.014446824
0.0069091552
-0.047228747
-0.049132583
-0.048138844
-0.046880565
-0.046903703
-0.048796791
-0.05266627
-0.058273871
-0.065073855
-0.072229696
-0.07859348
-0.082710112
-0.08287813
-0.077307466
-0.064522161
-0.043933291
-0.0167464
0.012504491
0.032940292
0.032410395
-0.058894984
-0.059638142
-0.055882226
-0.051939422
-0.049970657
-0.050628111
-0.053926747
-0.059493314
-0.06660973
-0.074283119
-0.081189017
-0.085677353
-0.085829902
-0.079520484
-0.064874566
-0.040687866
-0.0072395986
0.032140676
0.064982751
0.077750436
-0.076224806
-0.072612107
-0.063514593
-0.055433865
-0.050723518
-0.049780001
-0.052310598
-0.057662471
-0.064889811
-0.072772911
-0.079777336
-0.084034825
-0.083389904
-0.075347418
-0.057601331
-0.028373958
0.012934409
0.065397569
0.11555261
0.1515073
-0.10809065
-0.089554903
-0.071232439
-0.057231645
-0.049070768
-0.046328765
-0.048075663
-0.05320084
-0.060432726
-0.068293906
-0.075025458
-0.078525084
-0.076387347
-0.065808226
-0.043864243
-0.0078173862
0.044394622
0.11299908
0.18838137
0.2718617
-0.17684403
-0.10828836
-0.076201279
-0.054650058
-0.042991157
-0.038996695
-0.040569015
-0.045926377
-0.053439732
-0.061436479
-0.068025715
-0.070960784
-0.067549529
-0.054738414
-0.029147594
0.013564645
0.078147884
0.17006523
0.28949633
0.4742191
-0.37208201
-0.1247071
-0.054971842
-0.031961375
-0.022062402
-0.020299265
-0.024358041
-0.031956411
-0.041259823
-0.050639059
-0.058315059
-0.062185684
-0.059780902
-0.048055354
-0.022657268
0.021475298
0.092819687
0.21015367
0.40288931
0.77641018
)
;

boundaryField
{
    movingWall
    {
        type            zeroGradient;
    }
    fixedWalls
    {
        type            zeroGradient;
    }
    frontAndBack
    {
        type            empty;
    }
}


// ************************************************************************* //
