/*--------------------------------*- C++ -*----------------------------------*\
| =========                 |                                                 |
| \\      /  F ield         | OpenFOAM: The Open Source CFD Toolbox           |
|  \\    /   O peration     | Version:  2112                                  |
|   \\  /    A nd           | Website:  www.openfoam.com                      |
|    \\/     M anipulation  |                                                 |
\*---------------------------------------------------------------------------*/
FoamFile
{
    version     2.0;
    format      ascii;
    arch        "LSB;label=32;scalar=64";
    class       surfaceScalarField;
    location    "21";
    object      phi_0;
}
// * * * * * * * * * * * * * * * * * * * * * * * * * * * * * * * * * * * * * //

dimensions      [0 3 -1 0 0 0 0];

oriented        oriented;

internalField   nonuniform List<scalar> 
760
(
1.2696231e-05
-1.2708718e-05
-2.872649e-05
4.1422726e-05
-0.00012229208
9.3565594e-05
-0.00025039352
0.00012810145
-0.00039606965
0.00014567614
-0.00054538326
0.00014931363
-0.00068626151
0.00014087826
-0.00080688026
0.00012061876
-0.0008949394
8.8059156e-05
-0.00093837713
4.343774e-05
-0.0009272616
-1.1115514e-05
-0.00085685052
-7.0411072e-05
-0.00073042018
-0.00012643032
-0.00056133561
-0.00016908456
-0.00037275736
-0.00018857824
-0.00019447375
-0.0001782836
-5.6523327e-05
-0.00013795041
1.9612693e-05
-7.6136009e-05
3.041034e-05
-1.0797635e-05
3.0410354e-05
-4.3185018e-05
3.0476304e-05
-0.00020456533
0.00020280305
-0.00046831791
0.00035731819
-0.00080069378
0.00046047733
-0.0011673286
0.00051231095
-0.0015364198
0.00051840486
-0.001878191
0.00048264953
-0.0021636402
0.00040606794
-0.0023644991
0.00028891807
-0.0024553055
0.00013424419
-0.002418101
-4.832003e-05
-0.0022453217
-0.00024319035
-0.0019475269
-0.00042422509
-0.0015544476
-0.00056216379
-0.0011143079
-0.00062871797
-0.00068746835
-0.00060512309
-0.00033452416
-0.00049089458
-0.0001008976
-0.00030976254
-1.5527622e-06
-0.00011014244
2.8857602e-05
-0.00011002633
0.00014050264
-0.00040302544
0.00049580218
-0.00083137361
0.00078566638
-0.0013455925
0.00097469627
-0.001898563
0.0010652815
-0.0024465347
0.0010663765
-0.0029479771
0.00098409199
-0.0033625564
0.00082064728
-0.0036518244
0.00057818607
-0.0037822509
0.00026467075
-0.00372976
-0.00010081097
-0.0034857548
-0.00048719549
-0.0030632257
-0.00084675416
-0.0024999557
-0.0011254338
-0.0018582084
-0.0012704653
-0.001218129
-0.0012452024
-0.00066372995
-0.0010452936
-0.00026308804
-0.00071040442
-4.7956586e-05
-0.00032527387
-1.909897e-05
-0.00017343654
0.00031393919
-0.00059328117
0.00091564682
-0.0011776728
0.001370058
-0.0018583347
0.0016553582
-0.0025768602
0.001783807
-0.0032812469
0.0017707632
-0.0039227214
0.0016255665
-0.0044540555
0.0013519814
-0.0048301739
0.00095430446
-0.0050111468
0.00044564374
-0.0049671691
-0.00014478872
-0.0046843541
-0.0007700104
-0.0041722812
-0.0013588271
-0.0034690723
-0.0018286426
-0.00264397
-0.0020955676
-0.0017931759
-0.0020959965
-0.0010258376
-0.0018126319
-0.00044021021
-0.0012960318
-9.6723189e-05
-0.00066876086
-0.00011582214
-0.00022979075
0.00054372995
-0.00076505914
0.0014509152
-0.0014914557
0.0020964546
-0.0023225024
0.0024864049
-0.0031900801
0.0026513847
-0.004036748
0.0026174311
-0.0048099505
0.0023987691
-0.00545887
0.0020009009
-0.0059340822
0.0014295167
-0.006189713
0.00070127455
-0.0061882983
-0.00014620339
-0.005905478
-0.0010528306
-0.005340328
-0.0019239771
-0.0045230438
-0.0026459268
-0.0035229226
-0.0030956887
-0.002449769
-0.0031691501
-0.0014425194
-0.0028198815
-0.00064122295
-0.0020973282
-0.00014883519
-0.0011611486
-0.00026465732
-0.00027729195
0.00082102191
-0.00091152855
0.0020851518
-0.0017606958
0.0029456219
-0.002722757
0.0034484661
-0.003722143
0.0036507706
-0.0046986115
0.0035938996
-0.0055987959
0.0032989535
-0.0063710871
0.0027731922
-0.0069636199
0.0020220495
-0.0073247274
0.001062382
-0.0074073541
-6.3576649e-05
-0.007171594
-0.0012885906
-0.006598796
-0.0024967751
-0.0057016003
-0.0035431225
-0.0045399561
-0.0042573328
-0.003231798
-0.0044773082
-0.0019489943
-0.0041026851
-0.00088727581
-0.0031590467
-0.00021159144
-0.0018368329
-0.00047624874
-0.00031410908
0.001135131
-0.0010263176
0.0027973603
-0.0019734681
0.0038927725
-0.0030416953
0.0045166933
-0.0041506396
0.004759715
-0.0052398509
0.004683111
-0.0062579679
0.0043170705
-0.0071554116
0.0036706359
-0.0078802488
0.0027468867
-0.0083767232
0.0015588565
-0.0085852731
0.00014497332
-0.00845121
-0.0014226536
-0.0079293995
-0.0030185856
-0.007004877
-0.0044676449
-0.0057149734
-0.0055472365
-0.0041735295
-0.006018752
-0.0025818123
-0.0056944023
-0.0012040894
-0.0045367696
-0.00029450016
-0.0027464221
-0.00077074888
-0.00033824162
0.0014733726
-0.0011031477
0.0035622664
-0.0021175943
0.0049072192
-0.0032598307
0.0056589297
-0.0044473302
0.0059472144
-0.0056218696
0.0058576505
-0.0067368445
0.0054320455
-0.0077478543
0.0046816457
-0.0086062574
0.0036052899
-0.0092551328
0.0022077319
-0.0096268988
0.00051673937
-0.0096490954
-0.001400457
-0.0092488785
-0.0034188025
-0.0083738527
-0.0053426707
-0.007021997
-0.0068990921
-0.0052817564
-0.0077589926
-0.0033676294
-0.0076085292
-0.0016173448
-0.0062870542
-0.0004082639
-0.0039555029
-0.0011790128
-0.00034815062
0.0018215233
-0.0011371974
0.0043513133
-0.0021827558
0.0059527776
-0.0033585715
0.0068347454
-0.0045821797
0.0071708226
-0.0057997474
0.0070752182
-0.0069721112
0.0066044093
-0.008063579
0.0057731136
-0.0090333502
0.0045750611
-0.0098289021
0.0030032838
-0.010381185
0.0010690218
-0.010604439
-0.0011772027
-0.010400695
-0.0036225463
-0.0096748189
-0.0060685467
-0.0083686074
-0.0082053036
-0.0065156307
-0.0096119693
-0.0043098464
-0.0098143135
-0.0021483029
-0.0084485976
-0.0005649193
-0.0055388865
-0.001743932
-0.00034393158
0.0021654549
-0.001127849
0.0051352307
-0.0021646894
0.0069896181
-0.0033258715
0.0079959276
-0.004530763
0.0083757141
-0.0057318979
0.0082763532
-0.0069001707
0.0077726821
-0.0080123289
0.0068852718
-0.0090407736
0.0056035059
-0.0099449156
0.0039074259
-0.010663345
0.0017874511
-0.011106696
-0.00073385136
-0.011163371
-0.0035658716
-0.010697078
-0.0065348391
-0.0095825508
-0.009319831
-0.0077667333
-0.011427787
-0.0053714668
-0.01220958
-0.0028071582
-0.011012906
-0.00077836226
-0.0075676824
-0.0025222943
-0.00032890763
0.0024943625
-0.0010824194
0.0058887425
-0.0020707721
0.0079779708
-0.0031636045
0.00908876
-0.0042838909
0.0094960005
-0.0053928412
0.0093853036
-0.0064741289
0.0088539699
-0.0075205389
0.0079316819
-0.008522912
0.006605879
-0.0094603417
0.0048448557
-0.010291331
0.0026184407
-0.010933224
-9.1958262e-05
-0.011283206
-0.0032158894
-0.011173622
-0.0066444236
-0.010415696
-0.010077757
-0.0088467127
-0.01299677
-0.0064557302
-0.014600562
-0.0035815097
-0.013887127
-0.0010642161
-0.010084976
-0.0035865104
-0.00031178709
0.0028061496
-0.0010206866
0.0065976421
-0.0019261122
0.0088833965
-0.0028949654
0.010057613
-0.0038569034
0.010457939
-0.0047855889
0.010313989
-0.0056807974
0.0097491785
-0.0065544926
0.0088053771
-0.0074199318
0.0074713183
-0.0082818716
0.0057067956
-0.0091252035
0.0034617726
-0.0099086878
0.00069152606
-0.010527298
-0.0025972788
-0.010827045
-0.0063446764
-0.010573646
-0.010331156
-0.0094932127
-0.014077203
-0.0073911322
-0.016702643
-0.0044189044
-0.016859354
-0.001437206
-0.013066674
-0.0050237163
-0.00031004885
0.0031161985
-0.00098038174
0.007267975
-0.0017790778
0.0096820926
-0.0025694066
0.010847942
-0.0032946472
0.011183179
-0.0039479583
0.0109673
-0.0045500412
0.010351261
-0.0051348646
0.0093902007
-0.0057400058
0.0080764594
-0.0063986144
0.0063654043
-0.0071302183
0.0041933766
-0.0079303481
0.0014916559
-0.0087388879
-0.0017887389
-0.0094304292
-0.0056531351
-0.0097686348
-0.0099929506
-0.0094003775
-0.01444546
-0.0079305938
-0.018172427
-0.0052061618
-0.019583786
-0.0019026089
-0.016370227
-0.0069263253
-0.00035604893
0.0034722474
-0.0010240223
0.0079359484
-0.0017042741
0.010362344
-0.0022608606
0.011404529
-0.0026658002
0.011588119
-0.0029441023
0.011245602
-0.0031443531
0.010551512
-0.0033249796
0.0095708272
-0.0035473107
0.0082987906
-0.0038711661
0.0066892598
-0.0043492906
0.0046715012
-0.0050184961
0.0021608614
-0.0058767213
-0.00093051363
-0.0068579319
-0.0046719245
-0.0077763682
-0.0090745142
-0.0082658939
-0.013955935
-0.0077687747
-0.018669546
-0.0057511126
-0.021601448
-0.002436672
-0.019684668
-0.0093629973
-0.0005082717
0.0039805192
-0.0012456625
0.0086733393
-0.0017959387
0.010912621
-0.0020480775
0.011656667
-0.0020326052
0.011572647
-0.0018255422
0.01103854
-0.0015123211
0.010238291
-0.0011779967
0.0092365029
-0.0009048536
0.0080256475
-0.00077386033
0.0065582666
-0.00086362669
0.0047612677
-0.0012474878
0.0025447227
-0.001982953
-0.00019504845
-0.0030819772
-0.0035729002
-0.004460125
-0.0076963663
-0.0058275602
-0.012588499
-0.006566213
-0.017930893
-0.0057684713
-0.02239919
-0.0029512305
-0.022501908
-0.012314228
-0.00086856428
0.0048490835
-0.0017630159
0.0095677909
-0.0021214134
0.011271018
-0.0019369285
0.011472182
-0.001351027
0.010986745
-0.00051631487
0.010203827
0.00043690693
0.0092850693
0.0013994733
0.0082739366
0.0022722358
0.0071528851
0.0029607779
0.0058697246
0.0033690198
0.0043530258
0.0033966775
0.002517065
0.002938434
0.00026319507
0.0019095106
-0.0025439768
0.00026959751
-0.0060564532
-0.0018542353
-0.010464667
-0.0039516489
-0.015833479
-0.0048608642
-0.021489975
-0.0032547126
-0.02410806
-0.01556894
-0.0015910924
0.0064401759
-0.0026108802
0.010587579
-0.0025131871
0.011173325
-0.0015899812
0.010548977
-0.00017226698
0.0095690309
0.0014926868
0.0085388737
0.0032327714
0.0075449847
0.0049231047
0.0065836033
0.0064628632
0.0056131267
0.0077573721
0.0045752157
0.0087073862
0.0034030118
0.0092013852
0.002023066
0.0091032426
0.00036133773
0.0082750042
-0.0017157383
0.0065653866
-0.0043468356
0.0039041745
-0.0078034546
0.00055890965
-0.012488215
-0.002468083
-0.018462982
-0.0030273275
-0.023548815
-0.018596268
-0.0027183627
0.0091585386
-0.0031498796
0.011019096
-0.0018030298
0.0098264756
0.00046665011
0.0082792967
0.0030893522
0.0069463289
0.0057737223
0.0058545036
0.0083627962
0.0049559109
0.010760286
0.0041861136
0.012893379
0.0034800336
0.014690551
0.0027780443
0.016068243
0.0020253192
0.016923193
0.0011681164
0.017119634
0.0001648965
0.016490763
-0.0010868677
0.014816787
-0.0026728586
0.011846615
-0.0048332827
0.0074354596
-0.0080770595
0.0022629079
-0.01329043
-0.0012724763
-0.020013431
-0.019868744
-0.0024132765
0.011571815
2.805764e-05
0.0085777613
0.0042551309
0.0055994024
0.0084161013
0.0041183263
0.012231447
0.003130983
0.01565621
0.0024297407
0.01868648
0.001925641
0.021329114
0.0015434795
0.023583411
0.0012257373
0.025429147
0.0009323081
0.026820096
0.00063436982
0.027677118
0.00031109502
0.027900152
-5.8137562e-05
0.027347185
-0.00053390103
0.025771603
-0.001097277
0.022843027
-0.0019047063
0.018054756
-0.0032887886
0.011113578
-0.0063492516
0.0033886715
-0.012288525
-0.016480073
0.011571815
0.020149577
0.025748979
0.029867305
0.032998288
0.035428029
0.03735367
0.03889715
0.040122887
0.041055195
0.041689565
0.04200066
0.041942522
0.041408621
0.040311344
0.038406638
0.035117849
0.028768598
0.016480073
)
;

boundaryField
{
    movingWall
    {
        type            calculated;
        value           uniform 0;
    }
    fixedWalls
    {
        type            calculated;
        value           uniform 0;
    }
    frontAndBack
    {
        type            empty;
        value           nonuniform List<scalar> 0();
    }
}


// ************************************************************************* //
