/*--------------------------------*- C++ -*----------------------------------*\
| =========                 |                                                 |
| \\      /  F ield         | OpenFOAM: The Open Source CFD Toolbox           |
|  \\    /   O peration     | Version:  2112                                  |
|   \\  /    A nd           | Website:  www.openfoam.com                      |
|    \\/     M anipulation  |                                                 |
\*---------------------------------------------------------------------------*/
FoamFile
{
    version     2.0;
    format      ascii;
    arch        "LSB;label=32;scalar=64";
    class       volVectorField;
    location    "21";
    object      U;
}
// * * * * * * * * * * * * * * * * * * * * * * * * * * * * * * * * * * * * * //

dimensions      [0 1 -1 0 0 0 0];

internalField   nonuniform List<vector> 
400
(
(0.00028435928 -0.00028146161 0)
(0.00011057649 7.9930944e-05 0)
(-0.0013272291 0.00047800977 0)
(-0.0036218734 0.00073591289 0)
(-0.0064235726 0.0008675054 0)
(-0.0094313473 0.00090725484 0)
(-0.012387822 0.00087485305 0)
(-0.015056224 0.00077151881 0)
(-0.017194299 0.00058848057 0)
(-0.018552587 0.00032008007 0)
(-0.018902355 -2.4809663e-05 0)
(-0.018085899 -0.00041825717 0)
(-0.016079686 -0.00079970541 0)
(-0.013048789 -0.0010930615 0)
(-0.0093663004 -0.0012211904 0)
(-0.0055776288 -0.0011294636 0)
(-0.0023003562 -0.00081286317 0)
(-8.2988779e-05 -0.00033798518 0)
(0.00076012123 0.00015228327 0)
(0.00040943097 0.00038932827 0)
(-8.6101947e-05 -0.00012367366 0)
(-0.0018692976 0.0017871697 0)
(-0.0063064644 0.0036259677 0)
(-0.012452508 0.0048624009 0)
(-0.019600344 0.0054984315 0)
(-0.027106521 0.0056205753 0)
(-0.034358345 0.0052859422 0)
(-0.040768232 0.0045043057 0)
(-0.045757457 0.0032661698 0)
(-0.04877516 0.0015896366 0)
(-0.049365937 -0.00043544396 0)
(-0.047253195 -0.0026181235 0)
(-0.042451466 -0.0046644435 0)
(-0.035361084 -0.0062188049 0)
(-0.026778338 -0.0069374777 0)
(-0.017827112 -0.0065921795 0)
(-0.0097754853 -0.0051797264 0)
(-0.0037463059 -0.0029994242 0)
(-0.00038878094 -0.00066556041 0)
(0.0002898811 0.00078351885 0)
(-0.0005880863 0.0014335743 0)
(-0.0042427582 0.0063773696 0)
(-0.01175838 0.010640378 0)
(-0.021468339 0.013483364 0)
(-0.032365653 0.014898044 0)
(-0.043587283 0.015017128 0)
(-0.054286512 0.013935927 0)
(-0.063641517 0.01168405 0)
(-0.070854719 0.0082812431 0)
(-0.075187217 0.0038286295 0)
(-0.076038442 -0.0014058244 0)
(-0.073056744 -0.0069354698 0)
(-0.066265781 -0.012071495 0)
(-0.056168636 -0.015999963 0)
(-0.04378029 -0.017942457 0)
(-0.030568857 -0.017379709 0)
(-0.018250487 -0.014289809 0)
(-0.0084179185 -0.0093122289 0)
(-0.0021511243 -0.0037618464 0)
(-1.9790356e-06 0.00031692547 0)
(-0.0010530486 0.0043002874 0)
(-0.0065147394 0.01356546 0)
(-0.016998805 0.020863684 0)
(-0.03003034 0.025560759 0)
(-0.044299784 0.027760946 0)
(-0.058783257 0.027687461 0)
(-0.072486285 0.025487194 0)
(-0.084445498 0.021218078 0)
(-0.093727405 0.01494492 0)
(-0.099462643 0.0068783635 0)
(-0.10092861 -0.0025011041 0)
(-0.097661394 -0.012378088 0)
(-0.089591783 -0.021604929 0)
(-0.077181145 -0.028824237 0)
(-0.061504264 -0.032705516 0)
(-0.044253081 -0.032299441 0)
(-0.027561897 -0.027445548 0)
(-0.013581618 -0.019080514 0)
(-0.0040263223 -0.0092706569 0)
(-0.00026772342 -0.0011082293 0)
(-0.0014558311 0.0083648446 0)
(-0.0085488718 0.023180724 0)
(-0.021745747 0.034050921 0)
(-0.037791646 0.040762216 0)
(-0.055095751 0.043700852 0)
(-0.072518091 0.043258171 0)
(-0.088982659 0.039660735 0)
(-0.10345648 0.033000808 0)
(-0.11493011 0.02338394 0)
(-0.12243475 0.011116749 0)
(-0.12511321 -0.0031286356 0)
(-0.12231791 -0.0182188 0)
(-0.11375976 -0.03254082 0)
(-0.099696771 -0.044131706 0)
(-0.08109934 -0.050965348 0)
(-0.05977551 -0.05144039 0)
(-0.038290684 -0.045012993 0)
(-0.019520215 -0.032755158 0)
(-0.0060922739 -0.017491711 0)
(-0.00051101939 -0.003522044 0)
(-0.0017888895 0.013475135 0)
(-0.010269477 0.034960053 0)
(-0.02580493 0.049907513 0)
(-0.044465802 0.058793521 0)
(-0.064426373 0.062457068 0)
(-0.084475858 0.06154969 0)
(-0.10351459 0.056415022 0)
(-0.12050132 0.047181467 0)
(-0.13440162 0.033969963 0)
(-0.14417155 0.017132379 0)
(-0.14880114 -0.0025354991 0)
(-0.14739111 -0.023635631 0)
(-0.13930915 -0.044141556 0)
(-0.12443387 -0.06144089 0)
(-0.10343027 -0.072641031 0)
(-0.078054896 -0.075172729 0)
(-0.051260275 -0.067705795 0)
(-0.026809121 -0.051123549 0)
(-0.0086121972 -0.028965372 0)
(-0.00078706408 -0.0070521277 0)
(-0.0020419862 0.01943606 0)
(-0.011605395 0.048527802 0)
(-0.028995184 0.067996822 0)
(-0.049756719 0.079224325 0)
(-0.071890227 0.083655698 0)
(-0.094160321 0.082296173 0)
(-0.11549799 0.075648392 0)
(-0.13491274 0.063875976 0)
(-0.15140087 0.047075503 0)
(-0.16388231 0.025567789 0)
(-0.17118996 0.00016355728 0)
(-0.17215226 -0.027609643 0)
(-0.16571356 -0.055394963 0)
(-0.15119012 -0.07994412 0)
(-0.12869906 -0.097349475 0)
(-0.099668833 -0.10369694 0)
(-0.067241047 -0.096284744 0)
(-0.036118698 -0.07521926 0)
(-0.011929588 -0.044539338 0)
(-0.0011708016 -0.012001398 0)
(-0.0022012422 0.026012757 0)
(-0.012484481 0.063418138 0)
(-0.031139345 0.087762534 0)
(-0.053353628 0.10148812 0)
(-0.077016423 0.10677501 0)
(-0.10091044 0.10507183 0)
(-0.1240482 0.097086607 0)
(-0.14554968 0.083020258 0)
(-0.16450742 0.062901617 0)
(-0.1798737 0.03693083 0)
(-0.19039701 0.0057961267 0)
(-0.19465354 -0.029032275 0)
(-0.19113429 -0.065016505 0)
(-0.17848794 -0.09838917 0)
(-0.15602335 -0.1241754 0)
(-0.12444366 -0.13676077 0)
(-0.086645737 -0.1313273 0)
(-0.048063247 -0.10623152 0)
(-0.016429181 -0.065392503 0)
(-0.0017537683 -0.018878243 0)
(-0.0022556731 0.032932508 0)
(-0.012853522 0.079086752 0)
(-0.032098461 0.10853271 0)
(-0.054981075 0.12486174 0)
(-0.079333806 0.13109041 0)
(-0.10399289 0.12919706 0)
(-0.12809881 0.12014953 0)
(-0.15094342 0.1042002 0)
(-0.17179558 0.081277695 0)
(-0.18974295 0.051375585 0)
(-0.20357449 0.014916057 0)
(-0.21172738 -0.026874874 0)
(-0.21232354 -0.071530607 0)
(-0.20333663 -0.11502395 0)
(-0.18306141 -0.15144473 0)
(-0.15101671 -0.17328268 0)
(-0.10916468 -0.17281969 0)
(-0.063025809 -0.14524212 0)
(-0.022524747 -0.092977042 0)
(-0.0026589275 -0.028421903 0)
(-0.0022086142 0.039903661 0)
(-0.012716966 0.094942259 0)
(-0.031841004 0.12953757 0)
(-0.05449632 0.14845569 0)
(-0.078499385 0.15563273 0)
(-0.10277014 0.15366399 0)
(-0.12662045 0.14384407 0)
(-0.14957556 0.12651201 0)
(-0.17116987 0.10149182 0)
(-0.19075472 0.068517139 0)
(-0.20732609 0.02762824 0)
(-0.21937674 -0.020392978 0)
(-0.22488682 -0.073460144 0)
(-0.2213056 -0.12768659 0)
(-0.20585381 -0.17661809 0)
(-0.17647533 -0.2109894 0)
(-0.13334577 -0.21961063 0)
(-0.080898611 -0.19275184 0)
(-0.030641646 -0.12885126 0)
(-0.0040700265 -0.041636619 0)
(-0.0020933518 0.04666239 0)
(-0.012189714 0.11041647 0)
(-0.030536149 0.14996305 0)
(-0.052017457 0.17124001 0)
(-0.074464801 0.17918962 0)
(-0.096919668 0.17711855 0)
(-0.11891381 0.16672778 0)
(-0.14026629 0.14850141 0)
(-0.16086192 0.12219182 0)
(-0.18044313 0.087272705 0)
(-0.19840289 0.04335332 0)
(-0.21353679 -0.0093883604 0)
(-0.22401454 -0.069674899 0)
(-0.22708272 -0.13413131 0)
(-0.2190893 -0.19645087 0)
(-0.19626606 -0.24624958 0)
(-0.15621878 -0.2688577 0)
(-0.1007058 -0.24798577 0)
(-0.041145773 -0.17433342 0)
(-0.0062705646 -0.059833372 0)
(-0.0019963552 0.053056593 0)
(-0.011565607 0.12508145 0)
(-0.028661157 0.16904243 0)
(-0.0480569 0.19210615 0)
(-0.067638798 0.20035378 0)
(-0.086644333 0.19791032 0)
(-0.10489644 0.1869653 0)
(-0.12257009 0.16821733 0)
(-0.13996477 0.14140855 0)
(-0.15729846 0.10579919 0)
(-0.17451653 0.060572566 0)
(-0.19108466 0.0052270276 0)
(-0.2056025 -0.059920759 0)
(-0.2155066 -0.13260593 0)
(-0.21690187 -0.20752567 0)
(-0.20457827 -0.27431573 0)
(-0.17317484 -0.31571532 0)
(-0.12017076 -0.30807747 0)
(-0.054147298 -0.229882 0)
(-0.0096748454 -0.084652465 0)
(-0.0020996505 0.059183492 0)
(-0.011415078 0.13881397 0)
(-0.027115837 0.18617081 0)
(-0.043625546 0.20994428 0)
(-0.058982141 0.21759882 0)
(-0.072778938 0.21419541 0)
(-0.085251265 0.20247185 0)
(-0.097002637 0.18339304 0)
(-0.10879023 0.15675578 0)
(-0.12135204 0.12168653 0)
(-0.13525576 0.07701622 0)
(-0.15070456 0.02161944 0)
(-0.16712378 -0.045109216 0)
(-0.18274158 -0.12251432 0)
(-0.19405482 -0.20712426 0)
(-0.19523593 -0.29011269 0)
(-0.17829473 -0.35358292 0)
(-0.13540557 -0.36743594 0)
(-0.069088941 -0.29415117 0)
(-0.014794977 -0.11798369 0)
(-0.0027677629 0.065619328 0)
(-0.012741305 0.15199694 0)
(-0.02733066 0.20099502 0)
(-0.040245569 0.22368115 0)
(-0.049929952 0.22932843 0)
(-0.056645049 0.22403543 0)
(-0.061234429 0.21107903 0)
(-0.064818025 0.19168083 0)
(-0.068622846 0.16572015 0)
(-0.07387722 0.13227384 0)
(-0.081730438 0.089961066 0)
(-0.093122309 0.037201306 0)
(-0.10847139 -0.027477691 0)
(-0.12721577 -0.10497489 0)
(-0.14705593 -0.1942192 0)
(-0.16280481 -0.28948482 0)
(-0.16509165 -0.37509766 0)
(-0.14090192 -0.41772516 0)
(-0.084061639 -0.36281239 0)
(-0.022011607 -0.16157327 0)
(-0.0047196622 0.073834332 0)
(-0.017222796 0.16572516 0)
(-0.031285154 0.21337652 0)
(-0.039684455 0.23217213 0)
(-0.041885116 0.23380043 0)
(-0.039353051 0.22539287 0)
(-0.033814774 0.21061121 0)
(-0.027002779 0.19081005 0)
(-0.020594533 0.16589781 0)
(-0.016217976 0.13493959 0)
(-0.015478882 0.096471664 0)
(-0.019927994 0.04869108 0)
(-0.030920927 -0.010411489 0)
(-0.049236395 -0.082919224 0)
(-0.074400983 -0.17014191 0)
(-0.10327821 -0.27050137 0)
(-0.12725573 -0.37369412 0)
(-0.12973566 -0.44868648 0)
(-0.094915041 -0.42750567 0)
(-0.030930678 -0.2161273 0)
(-0.0093000777 0.086951949 0)
(-0.027432477 0.18185262 0)
(-0.040982477 0.2230323 0)
(-0.042680752 0.23378809 0)
(-0.034407101 0.22880079 0)
(-0.019624635 0.21592167 0)
(-0.0012406689 0.19877906 0)
(0.01834315 0.17856419 0)
(0.037069067 0.15508346 0)
(0.053053302 0.12735967 0)
(0.064419285 0.093936906 0)
(0.069228786 0.05301543 0)
(0.065413071 0.0024635719 0)
(0.051045553 -0.060338371 0)
(0.024641271 -0.13837573 0)
(-0.013703436 -0.23417062 0)
(-0.058755005 -0.34516957 0)
(-0.093511726 -0.44953919 0)
(-0.094470256 -0.4755874 0)
(-0.039216174 -0.28048225 0)
(-0.018580367 0.11087147 0)
(-0.046039955 0.20177619 0)
(-0.055230745 0.22793091 0)
(-0.043985937 0.22501668 0)
(-0.019373938 0.21061191 0)
(0.01233162 0.1922791 0)
(0.046991094 0.17278424 0)
(0.081752031 0.15265355 0)
(0.1144357 0.13135272 0)
(0.14315106 0.10779572 0)
(0.16601472 0.080592046 0)
(0.18097918 0.04811277 0)
(0.18557425 0.0084499701 0)
(0.17716405 -0.040816832 0)
(0.152758 -0.10317562 0)
(0.10948755 -0.18390575 0)
(0.047239493 -0.2885543 0)
(-0.021440015 -0.41051004 0)
(-0.072253296 -0.4910166 0)
(-0.041147564 -0.3505426 0)
(-0.033352244 0.15561555 0)
(-0.06860177 0.22040437 0)
(-0.055187734 0.21729192 0)
(-0.01607938 0.19532388 0)
(0.034510079 0.17092286 0)
(0.088506392 0.14849404 0)
(0.14176691 0.12861212 0)
(0.19196718 0.11057728 0)
(0.23753876 0.093297486 0)
(0.27711824 0.075575166 0)
(0.30921632 0.056181731 0)
(0.33204163 0.033823693 0)
(0.34317418 0.0070277129 0)
(0.33982758 -0.025910038 0)
(0.31813143 -0.067741392 0)
(0.27327638 -0.12410769 0)
(0.20044655 -0.20584696 0)
(0.10213928 -0.325069 0)
(-0.01238754 -0.45457154 0)
(-0.023756725 -0.40864057 0)
(-0.033081075 0.23907328 0)
(-0.042647086 0.21792018 0)
(0.042207183 0.16426622 0)
(0.12760434 0.12783559 0)
(0.20769746 0.10143523 0)
(0.28028079 0.081657878 0)
(0.34487202 0.066647889 0)
(0.40158173 0.054702883 0)
(0.45054922 0.044399414 0)
(0.49161897 0.034639972 0)
(0.52416048 0.024550723 0)
(0.54698483 0.0133819 0)
(0.55822131 0.00039996312 0)
(0.55570857 -0.015137111 0)
(0.5355256 -0.034968995 0)
(0.49244614 -0.062488065 0)
(0.41797241 -0.10694756 0)
(0.30410573 -0.19317542 0)
(0.1231377 -0.33691904 0)
(0.052374165 -0.39437912 0)
(0.24299931 0.15257483 0)
(0.3052963 0.11854292 0)
(0.45481228 0.076108162 0)
(0.56000891 0.050840179 0)
(0.63223315 0.035126043 0)
(0.68654893 0.024812251 0)
(0.72943789 0.017960047 0)
(0.76379583 0.013255891 0)
(0.79127873 0.0097621914 0)
(0.81275089 0.0068543771 0)
(0.82841084 0.0041185571 0)
(0.83794352 0.0012769082 0)
(0.84057041 -0.0018441551 0)
(0.83497536 -0.0053262128 0)
(0.81886688 -0.0098289233 0)
(0.78942865 -0.016232723 0)
(0.7378429 -0.026935698 0)
(0.65316766 -0.051286555 0)
(0.45609768 -0.11374604 0)
(0.31788988 -0.17206003 0)
)
;

boundaryField
{
    movingWall
    {
        type            fixedValue;
        value           uniform (1 0 0);
    }
    fixedWalls
    {
        type            fixedValue;
        value           uniform (0 0 0);
    }
    frontAndBack
    {
        type            empty;
    }
}


// ************************************************************************* //
