/*--------------------------------*- C++ -*----------------------------------*\
| =========                 |                                                 |
| \\      /  F ield         | OpenFOAM: The Open Source CFD Toolbox           |
|  \\    /   O peration     | Version:  2112                                  |
|   \\  /    A nd           | Website:  www.openfoam.com                      |
|    \\/     M anipulation  |                                                 |
\*---------------------------------------------------------------------------*/
FoamFile
{
    version     2.0;
    format      ascii;
    arch        "LSB;label=32;scalar=64";
    class       volVectorField;
    location    "21";
    object      U_0;
}
// * * * * * * * * * * * * * * * * * * * * * * * * * * * * * * * * * * * * * //

dimensions      [0 1 -1 0 0 0 0];

internalField   nonuniform List<vector> 
400
(
(0.00028435909 -0.0002814617 0)
(0.00011057621 7.9930894e-05 0)
(-0.0013272292 0.00047800973 0)
(-0.0036218731 0.0007359128 0)
(-0.0064235719 0.00086750527 0)
(-0.0094313463 0.00090725471 0)
(-0.012387821 0.00087485297 0)
(-0.015056222 0.00077151876 0)
(-0.017194297 0.00058848049 0)
(-0.018552584 0.00032007997 0)
(-0.018902353 -2.480971e-05 0)
(-0.018085897 -0.00041825708 0)
(-0.016079684 -0.00079970522 0)
(-0.013048788 -0.0010930614 0)
(-0.0093662997 -0.0012211903 0)
(-0.0055776285 -0.0011294636 0)
(-0.0023003564 -0.00081286314 0)
(-8.2989093e-05 -0.00033798512 0)
(0.00076012101 0.00015228328 0)
(0.00040943091 0.00038932824 0)
(-8.6102011e-05 -0.0001236738 0)
(-0.0018692975 0.0017871694 0)
(-0.0063064638 0.0036259673 0)
(-0.012452506 0.0048624002 0)
(-0.019600342 0.0054984307 0)
(-0.027106518 0.0056205745 0)
(-0.034358341 0.0052859415 0)
(-0.040768227 0.0045043052 0)
(-0.045757451 0.0032661694 0)
(-0.048775154 0.0015896364 0)
(-0.049365931 -0.0004354439 0)
(-0.04725319 -0.0026181231 0)
(-0.042451462 -0.0046644428 0)
(-0.035361081 -0.006218804 0)
(-0.026778336 -0.0069374769 0)
(-0.01782711 -0.006592179 0)
(-0.0097754848 -0.0051797261 0)
(-0.0037463059 -0.0029994241 0)
(-0.00038878119 -0.00066556047 0)
(0.00028988098 0.00078351871 0)
(-0.00058808625 0.0014335741 0)
(-0.0042427577 0.0063773687 0)
(-0.011758378 0.010640376 0)
(-0.021468336 0.013483363 0)
(-0.032365649 0.014898042 0)
(-0.043587277 0.015017126 0)
(-0.054286505 0.013935925 0)
(-0.063641509 0.011684049 0)
(-0.070854711 0.0082812423 0)
(-0.075187208 0.0038286294 0)
(-0.076038433 -0.0014058238 0)
(-0.073056736 -0.0069354687 0)
(-0.066265774 -0.012071493 0)
(-0.056168631 -0.015999961 0)
(-0.043780286 -0.017942454 0)
(-0.030568854 -0.017379708 0)
(-0.018250486 -0.014289808 0)
(-0.0084179181 -0.0093122285 0)
(-0.0021511243 -0.0037618465 0)
(-1.979128e-06 0.0003169252 0)
(-0.0010530484 0.0043002868 0)
(-0.0065147385 0.013565458 0)
(-0.016998803 0.020863681 0)
(-0.030030336 0.025560756 0)
(-0.044299778 0.027760943 0)
(-0.058783249 0.027687457 0)
(-0.072486276 0.025487191 0)
(-0.084445487 0.021218076 0)
(-0.093727393 0.014944919 0)
(-0.099462632 0.0068783634 0)
(-0.1009286 -0.0025011029 0)
(-0.097661384 -0.012378086 0)
(-0.089591774 -0.021604926 0)
(-0.077181137 -0.028824233 0)
(-0.061504258 -0.032705512 0)
(-0.044253077 -0.032299438 0)
(-0.027561894 -0.027445545 0)
(-0.013581618 -0.019080512 0)
(-0.0040263221 -0.0092706567 0)
(-0.00026772344 -0.0011082296 0)
(-0.001455831 0.0083648434 0)
(-0.0085488705 0.02318072 0)
(-0.021745743 0.034050917 0)
(-0.03779164 0.04076221 0)
(-0.055095743 0.043700846 0)
(-0.072518081 0.043258166 0)
(-0.088982647 0.039660731 0)
(-0.10345646 0.033000804 0)
(-0.1149301 0.023383938 0)
(-0.12243474 0.011116749 0)
(-0.1251132 -0.0031286337 0)
(-0.1223179 -0.018218796 0)
(-0.11375975 -0.032540815 0)
(-0.099696761 -0.044131701 0)
(-0.081099333 -0.050965342 0)
(-0.059775505 -0.051440385 0)
(-0.038290681 -0.045012989 0)
(-0.019520214 -0.032755156 0)
(-0.0060922735 -0.01749171 0)
(-0.00051101935 -0.0035220442 0)
(-0.0017888892 0.013475133 0)
(-0.010269476 0.034960048 0)
(-0.025804927 0.049907506 0)
(-0.044465796 0.058793513 0)
(-0.064426365 0.06245706 0)
(-0.084475848 0.061549682 0)
(-0.10351457 0.056415016 0)
(-0.12050131 0.047181463 0)
(-0.13440161 0.03396996 0)
(-0.14417154 0.017132378 0)
(-0.14880112 -0.0025354968 0)
(-0.14739109 -0.023635627 0)
(-0.13930914 -0.044141549 0)
(-0.12443386 -0.061440882 0)
(-0.10343026 -0.072641023 0)
(-0.078054889 -0.075172722 0)
(-0.051260271 -0.067705789 0)
(-0.026809119 -0.051123545 0)
(-0.0086121965 -0.028965371 0)
(-0.00078706401 -0.0070521276 0)
(-0.0020419859 0.019436057 0)
(-0.011605394 0.048527795 0)
(-0.02899518 0.067996813 0)
(-0.049756713 0.079224314 0)
(-0.071890218 0.083655687 0)
(-0.09416031 0.082296164 0)
(-0.11549798 0.075648384 0)
(-0.13491273 0.06387597 0)
(-0.15140085 0.047075501 0)
(-0.16388229 0.025567789 0)
(-0.17118995 0.00016356006 0)
(-0.17215224 -0.027609637 0)
(-0.16571354 -0.055394955 0)
(-0.15119011 -0.07994411 0)
(-0.12869905 -0.097349465 0)
(-0.099668826 -0.10369693 0)
(-0.067241042 -0.096284736 0)
(-0.036118695 -0.075219254 0)
(-0.011929588 -0.044539335 0)
(-0.0011708015 -0.012001397 0)
(-0.0022012419 0.026012754 0)
(-0.012484479 0.06341813 0)
(-0.031139342 0.087762522 0)
(-0.053353622 0.10148811 0)
(-0.077016416 0.10677499 0)
(-0.10091043 0.10507182 0)
(-0.12404819 0.097086597 0)
(-0.14554966 0.083020251 0)
(-0.16450741 0.062901614 0)
(-0.17987369 0.03693083 0)
(-0.190397 0.0057961301 0)
(-0.19465352 -0.029032269 0)
(-0.19113428 -0.065016496 0)
(-0.17848793 -0.098389158 0)
(-0.15602334 -0.12417539 0)
(-0.12444365 -0.13676075 0)
(-0.086645732 -0.13132729 0)
(-0.048063244 -0.10623151 0)
(-0.016429179 -0.065392499 0)
(-0.0017537682 -0.018878242 0)
(-0.0022556729 0.032932503 0)
(-0.012853521 0.079086742 0)
(-0.032098458 0.1085327 0)
(-0.054981071 0.12486173 0)
(-0.079333799 0.13109039 0)
(-0.10399289 0.12919705 0)
(-0.12809881 0.12014952 0)
(-0.15094341 0.1042002 0)
(-0.17179557 0.081277691 0)
(-0.18974294 0.051375585 0)
(-0.20357448 0.014916061 0)
(-0.21172737 -0.026874867 0)
(-0.21232353 -0.071530597 0)
(-0.20333662 -0.11502394 0)
(-0.1830614 -0.15144472 0)
(-0.15101671 -0.17328267 0)
(-0.10916468 -0.17281967 0)
(-0.063025805 -0.14524211 0)
(-0.022524746 -0.092977036 0)
(-0.0026589273 -0.028421901 0)
(-0.0022086142 0.039903657 0)
(-0.012716965 0.094942248 0)
(-0.031841002 0.12953756 0)
(-0.054496317 0.14845568 0)
(-0.078499381 0.15563271 0)
(-0.10277014 0.15366397 0)
(-0.12662045 0.14384406 0)
(-0.14957555 0.126512 0)
(-0.17116987 0.10149182 0)
(-0.19075472 0.068517139 0)
(-0.20732609 0.027628244 0)
(-0.21937673 -0.02039297 0)
(-0.22488681 -0.073460134 0)
(-0.22130559 -0.12768658 0)
(-0.20585381 -0.17661807 0)
(-0.17647532 -0.21098938 0)
(-0.13334576 -0.21961061 0)
(-0.080898608 -0.19275182 0)
(-0.030641644 -0.12885125 0)
(-0.0040700262 -0.041636617 0)
(-0.0020933518 0.046662384 0)
(-0.012189714 0.11041646 0)
(-0.030536149 0.14996304 0)
(-0.052017456 0.17123999 0)
(-0.074464799 0.1791896 0)
(-0.096919666 0.17711854 0)
(-0.1189138 0.16672776 0)
(-0.14026629 0.1485014 0)
(-0.16086192 0.12219181 0)
(-0.18044313 0.087272705 0)
(-0.19840289 0.043353324 0)
(-0.21353679 -0.0093883529 0)
(-0.22401454 -0.069674889 0)
(-0.22708272 -0.13413129 0)
(-0.21908929 -0.19645086 0)
(-0.19626606 -0.24624956 0)
(-0.15621878 -0.26885768 0)
(-0.1007058 -0.24798576 0)
(-0.041145771 -0.17433341 0)
(-0.0062705642 -0.059833369 0)
(-0.0019963553 0.053056588 0)
(-0.011565607 0.12508143 0)
(-0.028661158 0.16904242 0)
(-0.048056902 0.19210613 0)
(-0.0676388 0.20035377 0)
(-0.086644335 0.19791031 0)
(-0.10489645 0.18696529 0)
(-0.12257009 0.16821732 0)
(-0.13996478 0.14140855 0)
(-0.15729847 0.1057992 0)
(-0.17451654 0.06057257 0)
(-0.19108466 0.0052270346 0)
(-0.2056025 -0.05992075 0)
(-0.21550661 -0.13260592 0)
(-0.21690187 -0.20752565 0)
(-0.20457827 -0.27431572 0)
(-0.17317484 -0.3157153 0)
(-0.12017076 -0.30807746 0)
(-0.054147297 -0.22988199 0)
(-0.0096748451 -0.084652461 0)
(-0.0020996508 0.059183488 0)
(-0.01141508 0.13881396 0)
(-0.027115839 0.1861708 0)
(-0.04362555 0.20994427 0)
(-0.058982147 0.21759881 0)
(-0.072778945 0.2141954 0)
(-0.085251271 0.20247184 0)
(-0.097002644 0.18339303 0)
(-0.10879024 0.15675578 0)
(-0.12135205 0.12168653 0)
(-0.13525577 0.077016225 0)
(-0.15070457 0.021619447 0)
(-0.16712379 -0.045109208 0)
(-0.18274158 -0.12251432 0)
(-0.19405482 -0.20712425 0)
(-0.19523594 -0.29011268 0)
(-0.17829473 -0.35358291 0)
(-0.13540557 -0.36743592 0)
(-0.06908894 -0.29415116 0)
(-0.014794977 -0.11798369 0)
(-0.0027677635 0.065619324 0)
(-0.012741307 0.15199694 0)
(-0.027330664 0.200995 0)
(-0.040245574 0.22368114 0)
(-0.049929959 0.22932842 0)
(-0.056645059 0.22403542 0)
(-0.06123444 0.21107902 0)
(-0.064818037 0.19168083 0)
(-0.068622859 0.16572014 0)
(-0.073877233 0.13227385 0)
(-0.081730452 0.089961071 0)
(-0.093122322 0.037201312 0)
(-0.1084714 -0.027477683 0)
(-0.12721578 -0.10497488 0)
(-0.14705594 -0.19421919 0)
(-0.16280482 -0.28948481 0)
(-0.16509165 -0.37509765 0)
(-0.14090192 -0.41772515 0)
(-0.084061639 -0.36281238 0)
(-0.022011607 -0.16157326 0)
(-0.0047196625 0.07383433 0)
(-0.017222798 0.16572515 0)
(-0.03128516 0.21337651 0)
(-0.039684462 0.23217211 0)
(-0.041885124 0.23380041 0)
(-0.039353063 0.22539286 0)
(-0.033814789 0.2106112 0)
(-0.027002794 0.19081005 0)
(-0.020594548 0.16589781 0)
(-0.016217992 0.13493959 0)
(-0.015478897 0.096471668 0)
(-0.019928009 0.048691087 0)
(-0.030920941 -0.010411482 0)
(-0.049236408 -0.082919217 0)
(-0.074400994 -0.17014191 0)
(-0.10327822 -0.27050136 0)
(-0.12725574 -0.37369411 0)
(-0.12973566 -0.44868647 0)
(-0.094915042 -0.42750566 0)
(-0.030930678 -0.2161273 0)
(-0.0093000774 0.086951947 0)
(-0.027432479 0.18185262 0)
(-0.040982484 0.22303229 0)
(-0.042680761 0.23378808 0)
(-0.034407111 0.22880078 0)
(-0.019624648 0.21592166 0)
(-0.001240684 0.19877906 0)
(0.018343133 0.17856419 0)
(0.03706905 0.15508345 0)
(0.053053286 0.12735967 0)
(0.06441927 0.09393691 0)
(0.069228772 0.053015435 0)
(0.065413057 0.0024635778 0)
(0.051045541 -0.060338365 0)
(0.02464126 -0.13837572 0)
(-0.013703446 -0.23417062 0)
(-0.058755012 -0.34516957 0)
(-0.093511731 -0.44953918 0)
(-0.094470258 -0.47558739 0)
(-0.039216174 -0.28048225 0)
(-0.018580367 0.11087147 0)
(-0.046039954 0.20177618 0)
(-0.055230749 0.22793091 0)
(-0.043985947 0.22501667 0)
(-0.019373949 0.2106119 0)
(0.012331608 0.19227909 0)
(0.046991081 0.17278423 0)
(0.081752015 0.15265354 0)
(0.11443568 0.13135272 0)
(0.14315104 0.10779572 0)
(0.1660147 0.080592048 0)
(0.18097917 0.048112774 0)
(0.18557423 0.0084499745 0)
(0.17716404 -0.040816827 0)
(0.15275799 -0.10317562 0)
(0.10948754 -0.18390574 0)
(0.047239487 -0.2885543 0)
(-0.021440019 -0.41051004 0)
(-0.072253298 -0.49101659 0)
(-0.041147565 -0.3505426 0)
(-0.033352247 0.15561555 0)
(-0.068601771 0.22040436 0)
(-0.055187733 0.21729191 0)
(-0.016079384 0.19532387 0)
(0.03451007 0.17092286 0)
(0.088506382 0.14849404 0)
(0.1417669 0.12861212 0)
(0.19196717 0.11057727 0)
(0.23753874 0.093297485 0)
(0.27711822 0.075575167 0)
(0.30921631 0.056181732 0)
(0.33204161 0.033823696 0)
(0.34317417 0.0070277159 0)
(0.33982757 -0.025910036 0)
(0.31813142 -0.06774139 0)
(0.27327637 -0.12410769 0)
(0.20044655 -0.20584695 0)
(0.10213928 -0.325069 0)
(-0.012387542 -0.45457154 0)
(-0.023756725 -0.40864057 0)
(-0.03308108 0.23907328 0)
(-0.042647091 0.21792018 0)
(0.042207184 0.16426622 0)
(0.12760434 0.12783559 0)
(0.20769746 0.10143523 0)
(0.28028078 0.081657876 0)
(0.34487201 0.066647888 0)
(0.40158172 0.054702882 0)
(0.45054921 0.044399413 0)
(0.49161896 0.034639972 0)
(0.52416047 0.024550724 0)
(0.54698482 0.013381901 0)
(0.55822131 0.00039996443 0)
(0.55570857 -0.01513711 0)
(0.53552559 -0.034968994 0)
(0.49244614 -0.062488064 0)
(0.41797241 -0.10694756 0)
(0.30410573 -0.19317542 0)
(0.12313769 -0.33691904 0)
(0.052374164 -0.39437912 0)
(0.24299931 0.15257484 0)
(0.3052963 0.11854293 0)
(0.45481228 0.076108165 0)
(0.56000891 0.050840179 0)
(0.63223315 0.035126042 0)
(0.68654893 0.024812251 0)
(0.72943789 0.017960046 0)
(0.76379582 0.01325589 0)
(0.79127872 0.0097621914 0)
(0.81275089 0.0068543771 0)
(0.82841084 0.0041185573 0)
(0.83794352 0.0012769085 0)
(0.84057041 -0.0018441548 0)
(0.83497536 -0.0053262125 0)
(0.81886688 -0.009828923 0)
(0.78942865 -0.016232723 0)
(0.7378429 -0.026935698 0)
(0.65316766 -0.051286555 0)
(0.45609768 -0.11374604 0)
(0.31788988 -0.17206003 0)
)
;

boundaryField
{
    movingWall
    {
        type            fixedValue;
        value           uniform (1 0 0);
    }
    fixedWalls
    {
        type            fixedValue;
        value           uniform (0 0 0);
    }
    frontAndBack
    {
        type            empty;
    }
}


// ************************************************************************* //
