/*--------------------------------*- C++ -*----------------------------------*\
| =========                 |                                                 |
| \\      /  F ield         | OpenFOAM: The Open Source CFD Toolbox           |
|  \\    /   O peration     | Version:  2112                                  |
|   \\  /    A nd           | Website:  www.openfoam.com                      |
|    \\/     M anipulation  |                                                 |
\*---------------------------------------------------------------------------*/
FoamFile
{
    version     2.0;
    format      ascii;
    arch        "LSB;label=32;scalar=64";
    class       volScalarField;
    location    "38.5";
    object      p;
}
// * * * * * * * * * * * * * * * * * * * * * * * * * * * * * * * * * * * * * //

dimensions      [0 2 -2 0 0 0 0];

internalField   nonuniform List<scalar> 
8800
(
0.9495
0.901711
0.863016
0.834015
0.813142
0.798297
0.78768
0.780174
0.775319
0.773213
0.77442
0.778562
0.785167
0.794452
0.80721
0.824928
0.849695
0.883629
0.926172
0.984874
0.78076
0.788438
0.795903
0.799207
0.797696
0.792607
0.786105
0.780005
0.775248
0.77236
0.772025
0.774471
0.778911
0.78482
0.791563
0.797823
0.801449
0.800705
0.795275
0.786579
0.759181
0.76534
0.769462
0.772397
0.774435
0.775023
0.773895
0.771762
0.769704
0.768738
0.769636
0.771959
0.774712
0.776857
0.777437
0.776217
0.773858
0.770454
0.76589
0.762128
0.753405
0.756054
0.758799
0.761193
0.762815
0.763958
0.764674
0.764757
0.764415
0.764301
0.764981
0.766085
0.766871
0.766892
0.766249
0.765131
0.763294
0.760708
0.758296
0.756792
0.748072
0.749495
0.751267
0.753288
0.755057
0.756378
0.757338
0.758095
0.758655
0.759146
0.759712
0.76013
0.760163
0.759822
0.759083
0.757799
0.756076
0.754207
0.752889
0.752057
0.743056
0.743975
0.74521
0.746765
0.748381
0.749884
0.751137
0.752158
0.753058
0.753864
0.754451
0.754683
0.75456
0.754052
0.753115
0.751869
0.750505
0.749217
0.748382
0.747831
0.738228
0.738896
0.739852
0.741143
0.742534
0.743968
0.745372
0.746643
0.747767
0.74877
0.749467
0.749715
0.749527
0.748929
0.748049
0.747041
0.745978
0.745019
0.744419
0.744016
0.733543
0.734058
0.734836
0.735955
0.737215
0.738562
0.739969
0.741384
0.742727
0.743939
0.744793
0.745112
0.744951
0.744449
0.74375
0.742944
0.742103
0.741374
0.740924
0.74061
0.728935
0.729344
0.729995
0.730991
0.732179
0.733477
0.734878
0.736367
0.737888
0.739336
0.740394
0.740861
0.740853
0.740534
0.740026
0.739405
0.738747
0.738196
0.737854
0.737602
0.724327
0.724659
0.725221
0.72614
0.727279
0.728559
0.729985
0.731554
0.733236
0.734938
0.736263
0.736974
0.737198
0.737092
0.736777
0.736346
0.735853
0.735447
0.735188
0.734979
0.719637
0.71991
0.720412
0.721287
0.722408
0.72371
0.725199
0.726887
0.728763
0.73075
0.73242
0.733455
0.733959
0.734091
0.733981
0.733732
0.7334
0.733116
0.732922
0.732745
0.714792
0.715019
0.715481
0.716342
0.717487
0.718853
0.720449
0.722313
0.72445
0.726796
0.72889
0.730313
0.731135
0.731532
0.731642
0.731572
0.731392
0.731216
0.731075
0.730923
0.709716
0.709907
0.71035
0.711227
0.712436
0.713909
0.715666
0.717773
0.720259
0.723076
0.725684
0.727552
0.72874
0.729435
0.729785
0.729901
0.729872
0.729793
0.729698
0.729564
0.704327
0.704485
0.704923
0.705843
0.707154
0.708781
0.710757
0.713172
0.716081
0.719473
0.722714
0.725136
0.726771
0.727815
0.728444
0.728777
0.728902
0.728917
0.728862
0.728741
0.698526
0.698656
0.699102
0.700092
0.701551
0.703388
0.705653
0.708465
0.711917
0.716024
0.720041
0.723131
0.725295
0.726749
0.727695
0.728265
0.728556
0.728666
0.728651
0.728542
0.692213
0.692314
0.692782
0.693868
0.695515
0.697622
0.700262
0.703587
0.707716
0.7127
0.71767
0.721584
0.724386
0.726322
0.727625
0.72847
0.728963
0.729179
0.729202
0.729099
0.685235
0.685317
0.685806
0.687013
0.6889
0.691349
0.694469
0.698445
0.703452
0.709555
0.715673
0.720536
0.724087
0.726618
0.728379
0.729538
0.730248
0.730574
0.730635
0.730537
0.677343
0.677417
0.677967
0.679308
0.681489
0.684371
0.688083
0.692852
0.698896
0.706328
0.713878
0.71996
0.724446
0.727687
0.730012
0.731584
0.732558
0.733016
0.733118
0.733022
0.668299
0.668342
0.668965
0.67051
0.673081
0.67653
0.681013
0.68683
0.694247
0.703374
0.712627
0.720099
0.725661
0.729738
0.732728
0.734789
0.73609
0.7367
0.736843
0.736743
0.657732
0.657761
0.658473
0.660282
0.663324
0.667479
0.672934
0.680051
0.68914
0.700323
0.711667
0.720858
0.727746
0.732854
0.73664
0.739298
0.740998
0.741785
0.741967
0.741858
0.645024
0.645044
0.645884
0.64805
0.651741
0.65685
0.663605
0.672436
0.683677
0.697408
0.711246
0.72242
0.730828
0.737127
0.741864
0.745246
0.747407
0.748388
0.748602
0.748474
0.629343
0.629361
0.63041
0.633116
0.637739
0.644184
0.652709
0.6638
0.677773
0.694627
0.711411
0.724891
0.735054
0.742717
0.748528
0.752716
0.755376
0.756553
0.756793
0.756639
0.609495
0.609523
0.610916
0.614473
0.620481
0.628839
0.639815
0.653912
0.671354
0.691989
0.712218
0.728335
0.740466
0.749659
0.756671
0.761761
0.764946
0.766307
0.766559
0.766374
0.583676
0.58374
0.585747
0.590727
0.598956
0.610174
0.624663
0.642807
0.664635
0.689781
0.713931
0.732946
0.747234
0.758094
0.766379
0.772433
0.776125
0.777643
0.777894
0.777676
0.548889
0.549083
0.552336
0.559948
0.571948
0.5876
0.607113
0.630578
0.657788
0.688168
0.716668
0.738823
0.755401
0.768038
0.777725
0.784767
0.788921
0.790541
0.790764
0.790511
0.499411
0.500456
0.507002
0.520008
0.538569
0.561083
0.58753
0.61774
0.651313
0.687537
0.720685
0.746097
0.765047
0.779525
0.790667
0.798676
0.803228
0.804862
0.805022
0.804729
0.426365
0.433765
0.448963
0.472037
0.500312
0.531958
0.566891
0.604898
0.645573
0.688221
0.726463
0.755498
0.777149
0.79378
0.80667
0.815798
0.820836
0.822584
0.822751
0.822505
0.347691
0.365025
0.389626
0.423339
0.461717
0.502677
0.546201
0.592251
0.640528
0.690447
0.734921
0.768694
0.793957
0.813495
0.828797
0.839505
0.845121
0.846927
0.847141
0.847058
0.282398
0.302738
0.33517
0.377742
0.424978
0.474697
0.526529
0.580449
0.63617
0.693147
0.743564
0.78177
0.810411
0.832611
0.849811
0.861422
0.867389
0.869662
0.869919
0.869914
0.228895
0.250935
0.288777
0.3377
0.391942
0.448965
0.508118
0.569236
0.631921
0.695553
0.751548
0.793838
0.825471
0.849848
0.868435
0.881172
0.888184
0.890289
0.890608
0.890652
0.184235
0.207365
0.248802
0.302866
0.362768
0.425823
0.491239
0.558723
0.627733
0.697521
0.758656
0.804646
0.838863
0.865023
0.884861
0.898429
0.906008
0.908396
0.908877
0.90895
0.146077
0.169814
0.214143
0.272041
0.33671
0.404913
0.475767
0.548893
0.623626
0.699051
0.764918
0.814218
0.850664
0.878232
0.898902
0.913109
0.921117
0.923986
0.924605
0.924703
0.112491
0.136614
0.18311
0.244317
0.312969
0.385645
0.461314
0.539516
0.61948
0.700134
0.770375
0.822667
0.860995
0.889681
0.911045
0.925739
0.934119
0.937345
0.93807
0.938165
0.0820794
0.106539
0.154793
0.218787
0.290894
0.367484
0.44746
0.530292
0.615107
0.700669
0.775024
0.83006
0.870037
0.899661
0.921525
0.936582
0.9452
0.948643
0.949429
0.949511
0.0539715
0.0787486
0.128466
0.194828
0.269974
0.350026
0.433881
0.520958
0.610308
0.700541
0.778846
0.836501
0.878019
0.908495
0.930787
0.946088
0.954838
0.958416
0.959224
0.959264
0.0274284
0.0525642
0.103651
0.172033
0.249824
0.332959
0.420327
0.511313
0.604923
0.699639
0.78182
0.842077
0.885141
0.916474
0.939223
0.954718
0.963565
0.967187
0.968032
0.968034
0.00210433
0.0276434
0.0798601
0.150063
0.230193
0.316073
0.406624
0.501217
0.598832
0.697881
0.783927
0.846858
0.891564
0.923821
0.947049
0.962752
0.971623
0.975179
0.976023
0.976028
-0.0223973
0.003669
0.0567984
0.128705
0.210883
0.299224
0.392664
0.490574
0.591946
0.695186
0.785139
0.850902
0.897404
0.930714
0.954486
0.970396
0.979279
0.98279
0.983519
0.98347
-0.0462065
-0.0197117
0.0344581
0.107819
0.191794
0.282336
0.378384
0.479334
0.584215
0.691503
0.785425
0.854226
0.902751
0.937269
0.961674
0.977806
0.986645
0.990031
0.990659
0.990534
-0.0694553
-0.0424245
0.0126775
0.08732
0.172894
0.265385
0.36377
0.46748
0.575614
0.686785
0.784724
0.856811
0.907638
0.943574
0.968692
0.985022
0.99373
0.996906
0.997395
0.997214
-0.0922712
-0.0646412
-0.0086476
0.0671783
0.154164
0.24838
0.34885
0.45504
0.566151
0.680998
0.78296
0.858585
0.912071
0.949697
0.975624
0.992091
1.00055
1.00342
1.00376
1.00354
-0.114664
-0.0863587
-0.0294977
0.0473991
0.135638
0.231362
0.333673
0.442063
0.555857
0.674118
0.780057
0.85945
0.916001
0.955702
0.982597
0.999074
1.00707
1.00952
1.0097
1.00945
-0.136479
-0.107534
-0.0498339
0.0280147
0.117353
0.214399
0.318306
0.428626
0.544794
0.666175
0.775947
0.859284
0.919314
0.961619
0.989812
1.00618
1.01335
1.01515
1.01515
1.01488
-0.15769
-0.128137
-0.0696469
0.0090728
0.0993711
0.197555
0.302842
0.414813
0.533048
0.657203
0.770587
0.857937
0.92183
0.967387
0.997521
1.01387
1.01967
1.02034
1.02005
1.01983
-0.178364
-0.148129
-0.0889028
-0.00939285
0.0817544
0.180914
0.287371
0.400731
0.520718
0.647277
0.763941
0.855259
0.923298
0.972764
1.00586
1.02293
1.02703
1.02556
1.02445
1.02449
-0.198324
-0.167488
-0.107543
-0.0273179
0.064563
0.164559
0.27199
0.386495
0.507927
0.636505
0.756014
0.851106
0.923411
0.97726
1.01453
1.03413
1.0376
1.03321
1.02963
1.02887
-0.217662
-0.186198
-0.125585
-0.0447309
0.0477627
0.148443
0.256642
0.372045
0.494604
0.624811
0.746676
0.845209
0.92183
0.980185
1.02251
1.04719
1.05342
1.04867
1.03882
1.02293
-0.236301
-0.20425
-0.143146
-0.0618267
0.0310617
0.132229
0.240907
0.356892
0.480204
0.611544
0.735254
0.836731
0.91789
0.9805
1.02745
1.05868
1.06873
1.05801
1.03929
1.02426
-0.254063
-0.221765
-0.160036
-0.0783785
0.0147742
0.116266
0.225011
0.341367
0.465045
0.596985
0.721877
0.825292
0.910979
0.9771
1.02441
1.05538
1.0691
1.04864
0.979209
0.94714
-0.270279
-0.239936
-0.175932
-0.0938147
-0.000368517
0.101055
0.209258
0.325698
0.449347
0.58127
0.70652
0.810674
0.899935
0.969659
1.00914
1.03256
1.03032
0.979078
0.908843
0.86527
-0.326243
-0.255944
-0.190516
-0.109185
-0.0158757
0.0851629
0.193583
0.309611
0.432756
0.563973
0.688633
0.792429
0.881229
0.958083
0.963945
0.974718
0.934769
0.868492
0.792189
0.749418
-0.287623
-0.271664
-0.212028
-0.130664
-0.0384782
0.0623103
0.169703
0.284938
0.406879
0.5363
0.658384
0.7598
0.840054
0.918497
0.912375
0.806076
0.703765
0.632455
0.559634
0.592984
-0.31885
-0.289534
-0.228942
-0.148307
-0.0560882
0.0443683
0.151951
0.266482
0.387253
0.514695
0.633679
0.730888
0.803203
0.844236
0.799175
0.655598
0.529592
0.439603
0.340851
0.39365
-0.342924
-0.310655
-0.248785
-0.1679
-0.0756434
0.024647
0.132086
0.245716
0.365002
0.489923
0.60502
0.696433
0.759196
0.768045
0.665104
0.493537
0.34082
0.221882
0.0914299
0.125619
-0.366497
-0.332649
-0.269577
-0.187843
-0.0954449
0.00468613
0.111576
0.224181
0.341795
0.463856
0.574251
0.659132
0.706589
0.684011
0.528515
0.332168
0.140503
-0.0313676
-0.223214
-0.237326
-0.389438
-0.355141
-0.291166
-0.2087
-0.116112
-0.0161927
0.0900319
0.201502
0.317205
0.436064
0.541195
0.618736
0.648312
0.59075
0.398741
0.187114
-0.0328719
-0.227312
-0.475175
-0.783505
-0.412662
-0.378354
-0.313831
-0.230872
-0.138079
-0.038316
0.0673189
0.177635
0.291342
0.40679
0.506494
0.575586
0.586789
0.478561
0.286238
0.0747581
-0.132452
-0.308369
-0.376803
-0.46339
-0.437094
-0.402731
-0.337907
-0.254698
-0.161835
-0.0623127
0.0426418
0.151637
0.263047
0.374599
0.468474
0.527243
0.513853
0.371734
0.186895
-0.00537685
-0.169878
-0.263882
-0.288097
-0.304603
-0.463049
-0.428585
-0.36356
-0.280261
-0.187501
-0.0883808
0.0156594
0.123037
0.231743
0.338774
0.426338
0.472195
0.440412
0.272661
0.0972088
-0.0694742
-0.197582
-0.236459
-0.250532
-0.251862
-0.490723
-0.456076
-0.390843
-0.307541
-0.215015
-0.116509
-0.0136285
0.0918027
0.197373
0.299318
0.379779
0.411955
0.363285
0.180658
0.01444
-0.134866
-0.213994
-0.230376
-0.231775
-0.231654
-0.52016
-0.485221
-0.419768
-0.336517
-0.244369
-0.146665
-0.0452017
0.0579409
0.159954
0.25632
0.32876
0.349967
0.266696
0.0965321
-0.0619959
-0.185326
-0.220973
-0.221565
-0.221439
-0.220798
-0.551066
-0.515913
-0.450209
-0.367082
-0.275452
-0.178764
-0.0789976
0.0215082
0.11953
0.209877
0.273896
0.279096
0.175867
0.0184608
-0.122894
-0.202712
-0.212258
-0.214124
-0.214434
-0.214159
-0.582856
-0.547582
-0.4819
-0.398988
-0.308045
-0.212611
-0.114824
-0.0173256
0.0763047
0.160255
0.215923
0.205322
0.0945166
-0.0480538
-0.1688
-0.1973
-0.209039
-0.209976
-0.209111
-0.208641
-0.615077
-0.579696
-0.514357
-0.431818
-0.341767
-0.247843
-0.15235
-0.0582238
0.0306059
0.107992
0.154112
0.132842
0.017654
-0.102882
-0.2
-0.227652
-0.213004
-0.20819
-0.206814
-0.205897
-0.64686
-0.61164
-0.5467
-0.464918
-0.376033
-0.283926
-0.191053
-0.100639
-0.0170279
0.0536862
0.0904817
0.0626194
-0.0553568
-0.142332
-0.205895
-0.210637
-0.21206
-0.211531
-0.210362
-0.209525
-0.676593
-0.642183
-0.578001
-0.497345
-0.410027
-0.320085
-0.230181
-0.14377
-0.0657331
-0.0020433
0.0300264
-0.0191891
-0.126257
-0.176676
-0.17951
-0.219079
-0.22146
-0.216928
-0.216885
-0.216958
-0.70281
-0.669353
-0.607144
-0.527937
-0.442659
-0.35528
-0.268731
-0.186568
-0.114247
-0.0581896
-0.0278728
-0.111528
-0.22143
-0.21004
-0.198738
-0.236306
-0.258527
-0.266598
-0.268171
-0.267359
-0.723437
-0.691737
-0.631964
-0.555274
-0.472574
-0.388255
-0.305405
-0.227725
-0.161017
-0.113303
-0.0876713
-0.204202
-0.374809
-0.412463
-0.332338
-0.379257
-0.416583
-0.426619
-0.415163
-0.406002
-0.736373
-0.707291
-0.650838
-0.577468
-0.498187
-0.417518
-0.338695
-0.265617
-0.204212
-0.164645
-0.147934
-0.286505
-0.567017
-0.964366
-0.948292
-0.71198
-0.591228
-0.545025
-0.521065
-0.51311
-0.739087
-0.713921
-0.661854
-0.592757
-0.517752
-0.441431
-0.366897
-0.298305
-0.241624
-0.207739
-0.199674
-0.320463
-0.561505
-1.03338
-1.1591
-0.680627
-0.435101
-0.393252
-0.400789
-0.40298
-0.729909
-0.709373
-0.663
-0.599583
-0.529755
-0.458352
-0.388279
-0.323694
-0.270604
-0.239068
-0.220255
-0.231546
-0.0807359
0.109122
0.00124161
-0.194518
-0.320116
-0.325782
-0.325843
-0.32436
-0.706682
-0.690716
-0.652667
-0.596796
-0.533192
-0.467114
-0.401377
-0.33976
-0.288848
-0.257164
-0.24063
-0.127317
0.196498
0.851813
0.833389
0.247289
-0.134786
-0.21645
-0.262839
-0.268469
-0.671234
-0.660547
-0.631278
-0.584626
-0.528035
-0.467378
-0.40542
-0.345522
-0.294062
-0.260931
-0.254117
-0.272773
-0.447398
-0.85544
-1.39883
-1.72018
-1.59305
-1.17254
-0.861718
-0.809195
-0.629035
-0.62285
-0.603033
-0.5654
-0.515999
-0.459979
-0.400566
-0.340613
-0.284581
-0.245031
-0.240867
-0.480683
-1.19422
-2.18006
-2.77546
-3.06166
-2.92151
-2.56609
-2.20701
-1.97279
-0.588122
-0.584573
-0.573469
-0.544244
-0.500248
-0.447215
-0.388212
-0.325178
-0.261169
-0.199371
-0.170784
-0.280888
-0.692159
-1.11147
-1.32458
-1.19493
-0.883779
-0.548178
-0.290105
-0.16164
-0.555475
-0.553284
-0.547638
-0.526053
-0.485842
-0.432885
-0.37166
-0.301563
-0.224061
-0.1332
-0.027117
0.112964
0.308859
0.690725
1.19375
1.71826
2.14662
2.40928
2.52676
2.5623
-0.528303
-0.527429
-0.525969
-0.512721
-0.476069
-0.42132
-0.355134
-0.278055
-0.187766
-0.079601
0.0571444
0.207027
0.498042
1.00878
1.6423
2.19962
2.60749
2.84551
2.95542
2.98502
-0.510213
-0.509811
-0.509756
-0.502538
-0.470114
-0.41307
-0.341359
-0.258451
-0.161506
-0.0481166
0.0771615
0.209273
0.406248
0.886646
1.44033
1.93867
2.3012
2.50198
2.588
2.61028
-0.495479
-0.494937
-0.494893
-0.492692
-0.465636
-0.407071
-0.330498
-0.243437
-0.146832
-0.0370643
0.0737159
0.191591
0.323749
0.682297
1.12152
1.48734
1.75512
1.90373
1.96828
1.98531
-0.486692
-0.485055
-0.484521
-0.48484
-0.46192
-0.400721
-0.319398
-0.230092
-0.135681
-0.0327221
0.0661626
0.160396
0.254004
0.487113
0.796701
1.05394
1.23915
1.34152
1.38632
1.39684
-0.488033
-0.487962
-0.491148
-0.491605
-0.462317
-0.390259
-0.302792
-0.212944
-0.122667
-0.0289081
0.0530468
0.122096
0.181278
0.341708
0.548139
0.717437
0.840404
0.908142
0.936817
0.944215
-0.476157
-0.481762
-0.489111
-0.484639
-0.443724
-0.362795
-0.273716
-0.188342
-0.107327
-0.0278085
0.0386046
0.0879406
0.129749
0.237781
0.377024
0.48681
0.562846
0.604422
0.621932
0.624753
-0.393304
-0.400678
-0.40851
-0.402269
-0.363959
-0.296061
-0.22316
-0.152665
-0.0863331
-0.0213307
0.0320967
0.0681625
0.0996549
0.171695
0.262923
0.334515
0.381699
0.40559
0.414974
0.415904
-0.236433
-0.241462
-0.247371
-0.245676
-0.225945
-0.190662
-0.14904
-0.104317
-0.0580112
-0.00928538
0.0296485
0.056448
0.0793565
0.129392
0.188187
0.233277
0.262891
0.278905
0.285196
0.285189
-0.0724509
-0.0748484
-0.0795878
-0.0853329
-0.0868835
-0.0832823
-0.0714257
-0.0524923
-0.0265439
0.00521475
0.0340988
0.0563176
0.0740012
0.106829
0.144854
0.174371
0.193104
0.202755
0.206567
0.205978
0.0418567
0.0406127
0.0358928
0.0251166
0.00976616
-0.00300397
-0.00934778
-0.00758496
0.00300675
0.0216817
0.04298
0.0622371
0.0792106
0.102214
0.125296
0.142187
0.153612
0.159989
0.162062
0.161085
0.0985011
0.097681
0.0934276
0.0823345
0.064883
0.0468882
0.0329384
0.0257325
0.0266527
0.036114
0.051501
0.0688028
0.0857709
0.099753
0.112372
0.122849
0.130309
0.134519
0.135664
0.13445
0.116885
0.116267
0.112963
0.104028
0.0892967
0.0727906
0.0581246
0.0477527
0.0435974
0.0469395
0.0568047
0.0720542
0.0870717
0.0948394
0.100503
0.107261
0.113034
0.116714
0.117544
0.116224
0.116007
0.115534
0.113207
0.106935
0.0962418
0.0833571
0.0707462
0.0604941
0.0541733
0.0533651
0.0588552
0.0686992
0.079481
0.0823402
0.0851094
0.0906466
0.0966117
0.100469
0.10149
0.100112
0.107545
0.107189
0.105653
0.1016
0.094439
0.0852541
0.0754828
0.0665811
0.0596617
0.055745
0.0553467
0.0580434
0.0609504
0.0605551
0.0636868
0.0713862
0.0783826
0.0824902
0.0835151
0.0821917
0.0973459
0.097066
0.0960746
0.0936056
0.0891143
0.0829728
0.0758736
0.0686726
0.0618484
0.0555478
0.0493412
0.042753
0.0349554
0.0317192
0.0393064
0.0494989
0.057183
0.0610559
0.0620702
0.0611353
0.0880308
0.0877991
0.0871523
0.0857044
0.0830481
0.079167
0.0743061
0.0687779
0.0626824
0.0550414
0.0437466
0.0270822
0.0114303
0.00992038
0.0215733
0.0330435
0.0402369
0.043319
0.0439075
0.0432384
0.0804975
0.0803139
0.0798893
0.0790606
0.0775661
0.0752527
0.0721868
0.0684528
0.0637307
0.0563438
0.042788
0.0209071
-0.00114754
0.000870739
0.0163151
0.0281448
0.0337718
0.0352323
0.035453
0.0350671
0.0745268
0.0744013
0.0741462
0.0736851
0.0729708
0.0717723
0.0701713
0.0682495
0.0657685
0.0612462
0.050721
0.0310724
0.0128968
0.019074
0.0329095
0.0409257
0.0432829
0.0430922
0.0430675
0.0429662
0.0693582
0.0692857
0.0691559
0.0689155
0.0686188
0.0684442
0.068139
0.068141
0.0685799
0.0690798
0.066956
0.0587799
0.0520333
0.0601903
0.0683423
0.0705431
0.0703266
0.0697533
0.0696021
0.0693278
0.0641566
0.0641417
0.0641602
0.0641315
0.0642209
0.0646026
0.0654606
0.0672728
0.0709159
0.0777838
0.0874456
0.0960694
0.10232
0.11045
0.111247
0.108905
0.106873
0.106117
0.105668
0.10518
0.0581902
0.0582097
0.0583373
0.0584468
0.0588322
0.0595021
0.0616934
0.0650933
0.0715822
0.0844523
0.105967
0.132913
0.155403
0.159957
0.153343
0.146065
0.143212
0.142843
0.14191
0.141235
0.0508399
0.0509045
0.051151
0.0515324
0.0521016
0.0532044
0.0553923
0.0603028
0.0690679
0.0859191
0.116124
0.158943
0.196473
0.197667
0.182457
0.172519
0.170451
0.170354
0.169001
0.168063
0.0413054
0.0413772
0.0417155
0.0423351
0.043144
0.0446359
0.0470009
0.0515926
0.0607032
0.0789597
0.111765
0.157973
0.204242
0.203064
0.186833
0.181165
0.179802
0.17968
0.17766
0.176423
0.0297946
0.0298579
0.0301797
0.0307731
0.0319074
0.0334426
0.0357321
0.0395099
0.046949
0.0623617
0.0906701
0.131821
0.167321
0.16278
0.154584
0.155045
0.161004
0.163612
0.161053
0.159041
0.0169074
0.0168703
0.0170783
0.0176849
0.0184115
0.0192166
0.0206549
0.023495
0.0287325
0.0379459
0.0546625
0.0787018
0.0902728
0.094209
0.0937124
0.10101
0.107265
0.108501
0.106365
0.104125
0.00372079
0.00357729
0.00336052
0.00309928
0.00286297
0.00302553
0.00349142
0.00402344
0.00492006
0.00648396
0.00909927
0.0111551
0.013299
0.0195305
0.022987
0.0224568
0.0173183
0.0131024
0.0153151
0.0161408
0.0127095
0.185731
0.387915
0.563029
0.703709
0.815445
0.908327
0.98692
1.02218
0.998948
0.32786
0.4525
0.586282
0.702174
0.800185
0.881577
0.947442
0.994077
1.01751
1.02944
0.55402
0.639347
0.730602
0.811552
0.88123
0.939527
0.985831
1.01962
1.04393
1.06179
0.719141
0.779753
0.843783
0.902308
0.953375
0.996698
1.03223
1.06051
1.08367
1.10189
0.847612
0.89192
0.938922
0.983711
1.02329
1.05781
1.08732
1.11182
1.13244
1.15023
0.953691
0.987285
1.02609
1.06229
1.09547
1.12518
1.1511
1.17286
1.19087
1.20819
1.04738
1.07647
1.11091
1.14345
1.17375
1.20122
1.2252
1.24509
1.2607
1.27777
1.13665
1.1661
1.2004
1.2327
1.26252
1.2893
1.31231
1.33091
1.34436
1.3614
1.23238
1.26575
1.30257
1.33631
1.36649
1.3928
1.41485
1.4322
1.44412
1.46153
1.34764
1.38557
1.42432
1.45866
1.4881
1.51292
1.53335
1.54929
1.5608
1.57887
1.49274
1.53136
1.56756
1.5983
1.62403
1.64618
1.66527
1.68083
1.69329
1.71129
1.66793
1.69959
1.72581
1.74829
1.7683
1.78705
1.80479
1.82128
1.83665
1.85472
1.85661
1.87383
1.88889
1.90514
1.92106
1.93561
1.94883
1.96277
1.98032
2.00048
2.03837
2.0479
2.05946
2.07028
2.07957
2.08916
2.09996
2.11133
2.1227
2.13806
2.24562
2.24929
2.23434
2.21954
2.21327
2.21895
2.23744
2.26775
2.29993
2.32659
2.55193
2.41707
2.34044
2.29808
2.28067
2.28463
2.31203
2.36845
2.47107
2.69543
0.840098
0.837967
0.833481
0.824851
0.812619
0.800479
0.790234
0.782313
0.776658
0.773354
0.772936
0.775609
0.78066
0.787842
0.7972
0.808719
0.821355
0.832379
0.838485
0.841534
0.764563
0.770408
0.776742
0.781228
0.783688
0.783351
0.780597
0.776761
0.773213
0.770899
0.770685
0.772811
0.776416
0.780661
0.784435
0.786295
0.785341
0.781845
0.776673
0.770049
0.756167
0.758462
0.761861
0.76485
0.766914
0.768396
0.769131
0.768784
0.767718
0.766776
0.766873
0.768225
0.769977
0.771231
0.771372
0.770452
0.76888
0.766527
0.763252
0.760327
0.750692
0.751778
0.753606
0.755976
0.757987
0.759399
0.760395
0.761112
0.761465
0.761621
0.762026
0.762744
0.763268
0.763273
0.762813
0.761927
0.760429
0.758322
0.75622
0.754832
0.745537
0.7462
0.747304
0.748999
0.750767
0.75238
0.753649
0.754625
0.755452
0.756165
0.756793
0.757239
0.757341
0.7571
0.756473
0.75537
0.753904
0.752331
0.750993
0.750208
0.740623
0.741084
0.741866
0.743155
0.744628
0.746124
0.747558
0.748812
0.749884
0.750848
0.751642
0.752082
0.752115
0.751747
0.750972
0.74992
0.748744
0.747572
0.746632
0.74611
0.735874
0.736218
0.736826
0.737886
0.739165
0.740518
0.741923
0.74332
0.74462
0.745794
0.746759
0.747293
0.747328
0.746931
0.746232
0.745372
0.744454
0.743536
0.742833
0.74245
0.731237
0.731505
0.731995
0.732896
0.734051
0.735324
0.736682
0.738116
0.739575
0.74097
0.742143
0.742817
0.742939
0.742662
0.74214
0.741473
0.740738
0.740031
0.739503
0.73921
0.72664
0.726852
0.727259
0.728051
0.729127
0.730351
0.731694
0.733164
0.734738
0.736346
0.737768
0.738654
0.73897
0.738896
0.738569
0.73809
0.737532
0.736997
0.736601
0.736371
0.722002
0.722172
0.72252
0.723241
0.724271
0.72547
0.726833
0.728372
0.730075
0.731899
0.733615
0.734806
0.735398
0.735566
0.73545
0.735161
0.734782
0.734397
0.734109
0.733926
0.717243
0.717379
0.717685
0.718363
0.719379
0.7206
0.722025
0.723677
0.725566
0.727661
0.729739
0.731309
0.732225
0.732666
0.73278
0.732683
0.732471
0.732224
0.732026
0.73188
0.712292
0.7124
0.712677
0.713337
0.714374
0.715665
0.717196
0.719015
0.721156
0.7236
0.726128
0.728157
0.729451
0.7302
0.730569
0.73068
0.730633
0.730515
0.730392
0.730275
0.707069
0.707152
0.707411
0.708078
0.709171
0.71057
0.712257
0.714307
0.71678
0.719682
0.722773
0.725343
0.72708
0.728185
0.728842
0.729184
0.72931
0.729318
0.729263
0.729171
0.701487
0.701547
0.701797
0.702491
0.703674
0.705222
0.707118
0.709463
0.712341
0.715797
0.719579
0.722826
0.725116
0.726657
0.727646
0.728252
0.728565
0.728702
0.728711
0.728641
0.695444
0.695481
0.695727
0.696466
0.697775
0.699528
0.701708
0.704442
0.707844
0.711996
0.716625
0.720695
0.723643
0.725695
0.727061
0.727952
0.728505
0.728781
0.728855
0.728804
0.688823
0.688832
0.689076
0.689882
0.691353
0.693367
0.695905
0.699136
0.703216
0.708253
0.713932
0.718991
0.722717
0.725374
0.727207
0.728433
0.729246
0.729676
0.729818
0.729785
0.68141
0.681409
0.681675
0.68256
0.684235
0.686551
0.689548
0.693398
0.698303
0.704424
0.711388
0.717651
0.722338
0.725737
0.728139
0.729804
0.730924
0.731528
0.731743
0.731727
0.672966
0.67293
0.673227
0.674235
0.676168
0.678898
0.682472
0.687108
0.69306
0.700522
0.709063
0.71681
0.722635
0.726904
0.729996
0.73221
0.7337
0.734518
0.734815
0.734814
0.663208
0.663148
0.663487
0.664661
0.666912
0.670164
0.674481
0.68013
0.687428
0.696598
0.707069
0.716551
0.723734
0.729056
0.732955
0.735807
0.737751
0.738828
0.739215
0.739224
0.65163
0.651545
0.651954
0.653344
0.656006
0.659927
0.665193
0.672133
0.681109
0.692359
0.705185
0.716802
0.725615
0.732197
0.737089
0.740713
0.74322
0.7446
0.745083
0.745095
0.637511
0.637401
0.637931
0.639639
0.642884
0.647747
0.654327
0.663012
0.674203
0.688109
0.703773
0.717841
0.728507
0.736527
0.742564
0.747067
0.750204
0.751914
0.752491
0.752498
0.619856
0.619726
0.620458
0.622662
0.626766
0.632968
0.641368
0.652388
0.666422
0.683595
0.702661
0.719618
0.73243
0.74209
0.749435
0.754921
0.758761
0.760815
0.761476
0.76147
0.597197
0.597057
0.598135
0.601129
0.606589
0.614804
0.625839
0.640091
0.657852
0.679081
0.702145
0.722356
0.737552
0.749012
0.757769
0.76435
0.768924
0.771305
0.772035
0.772011
0.5672
0.56709
0.568796
0.573201
0.580953
0.592376
0.607309
0.626023
0.648578
0.674712
0.702371
0.726197
0.743972
0.757387
0.767651
0.775409
0.780713
0.783383
0.784153
0.784104
0.52577
0.52583
0.528938
0.53626
0.548249
0.564934
0.585667
0.610401
0.63895
0.670827
0.703596
0.731294
0.751791
0.767239
0.779135
0.788145
0.794109
0.796974
0.797729
0.797644
0.465285
0.466504
0.474129
0.487904
0.507615
0.532639
0.561516
0.593927
0.629571
0.667874
0.706094
0.737788
0.76105
0.778571
0.792057
0.802249
0.808843
0.811762
0.812395
0.812269
0.393079
0.39496
0.409502
0.433287
0.463863
0.498654
0.536443
0.577096
0.620424
0.665931
0.710633
0.747464
0.774528
0.79502
0.810795
0.822598
0.830029
0.833182
0.833927
0.833924
0.318533
0.324905
0.346345
0.380286
0.421078
0.465408
0.51208
0.561021
0.612133
0.664997
0.716435
0.758657
0.789697
0.813358
0.831809
0.845468
0.853711
0.856565
0.857156
0.857261
0.257854
0.266393
0.292478
0.333408
0.382077
0.434476
0.489109
0.545781
0.604304
0.664225
0.722059
0.769324
0.804048
0.830508
0.85096
0.865857
0.874497
0.877931
0.879089
0.879268
0.208354
0.217473
0.247043
0.293121
0.347858
0.406749
0.468081
0.531548
0.5968
0.663261
0.727076
0.778989
0.816999
0.845826
0.867967
0.884026
0.893587
0.897747
0.89914
0.899343
0.166724
0.176086
0.208049
0.257997
0.317708
0.382006
0.449024
0.518408
0.589674
0.662112
0.731424
0.787585
0.828495
0.859291
0.882713
0.899625
0.910055
0.914752
0.916357
0.916579
0.130612
0.140057
0.173756
0.226882
0.290673
0.359566
0.431545
0.506166
0.582849
0.660749
0.735146
0.795177
0.838639
0.871052
0.895431
0.913012
0.924111
0.929245
0.931005
0.93126
0.0984446
0.1079
0.14293
0.198723
0.265927
0.338784
0.415138
0.494462
0.576101
0.659071
0.738216
0.801826
0.847534
0.881292
0.906452
0.924618
0.93608
0.941616
0.94345
0.943714
0.069042
0.078519
0.114624
0.172671
0.242809
0.319143
0.399379
0.482971
0.569183
0.656914
0.74057
0.807559
0.855339
0.890285
0.916092
0.934597
0.946326
0.952097
0.953999
0.954273
0.0416143
0.0511288
0.0882098
0.148143
0.22085
0.300237
0.383953
0.471433
0.561889
0.654131
0.742138
0.812416
0.862213
0.898302
0.924739
0.943574
0.955437
0.961333
0.963222
0.963493
0.0156394
0.0252106
0.063172
0.124731
0.199703
0.281782
0.368626
0.459659
0.554065
0.650596
0.742855
0.816427
0.868281
0.905567
0.932651
0.951821
0.96385
0.969746
0.971628
0.971774
-0.00936735
0.000374152
0.0391239
0.102128
0.179113
0.26358
0.353245
0.447522
0.545604
0.646215
0.74266
0.819613
0.873653
0.912251
0.940058
0.959567
0.971712
0.977572
0.97939
0.979545
-0.0336309
-0.0236612
0.0158023
0.0802019
0.158925
0.245501
0.33771
0.434949
0.536431
0.640924
0.741507
0.821974
0.878401
0.91848
0.94712
0.967022
0.979275
0.985075
0.986778
0.9869
-0.057255
-0.0470683
-0.00682349
0.0588035
0.139045
0.227505
0.321981
0.421901
0.526515
0.634668
0.73934
0.823487
0.882557
0.924338
0.953945
0.974276
0.986586
0.992241
0.993799
0.993854
-0.0803885
-0.0698829
-0.0289491
0.0378442
0.119445
0.209565
0.306058
0.408388
0.515857
0.627436
0.7361
0.824087
0.886105
0.92988
0.960616
0.981386
0.993679
0.999112
1.00045
1.00043
-0.103016
-0.0922195
-0.0505492
0.0172947
0.10012
0.191704
0.289984
0.394453
0.504489
0.619221
0.731734
0.823679
0.888984
0.935131
0.967225
0.988438
1.00055
1.00559
1.00669
1.0066
-0.125186
-0.114062
-0.0716067
-0.00281291
0.0810981
0.173961
0.273809
0.380163
0.49247
0.610051
0.726206
0.822168
0.891087
0.94007
0.973892
0.995586
1.00726
1.01169
1.01246
1.0123
-0.14671
-0.135331
-0.092118
-0.0224432
0.0624317
0.156414
0.257603
0.365593
0.47988
0.599991
0.719502
0.819458
0.89226
0.944602
0.980738
1.00315
1.01408
1.01743
1.01772
1.01749
-0.167727
-0.155985
-0.112056
-0.0415741
0.0441546
0.139107
0.241464
0.350831
0.466814
0.58913
0.711643
0.815442
0.892308
0.948517
0.987772
1.01159
1.02166
1.02317
1.02246
1.02213
-0.188069
-0.175997
-0.131385
-0.0601536
0.0263476
0.122126
0.225475
0.336002
0.453389
0.577546
0.702681
0.810036
0.891019
0.951472
0.994726
1.02128
1.0313
1.03038
1.02732
1.02599
-0.207791
-0.195403
-0.150052
-0.0781276
0.00904983
0.105541
0.209721
0.321189
0.439721
0.565383
0.692705
0.803174
0.888191
0.953012
1.00087
1.03186
1.04429
1.04257
1.03545
1.02597
-0.226808
-0.214161
-0.168149
-0.0956493
-0.00794984
0.0890668
0.19386
0.30598
0.425347
0.552119
0.681153
0.794238
0.883241
0.952561
1.00511
1.04198
1.06029
1.06101
1.05104
1.04319
-0.245068
-0.232189
-0.185671
-0.112678
-0.0246433
0.0727021
0.177913
0.290361
0.41023
0.537647
0.667853
0.782886
0.875475
0.949346
1.0051
1.04624
1.0674
1.07337
1.03615
0.982998
-0.262275
-0.248712
-0.2025
-0.129142
-0.0411309
0.0563056
0.161833
0.27445
0.394434
0.522039
0.652761
0.768961
0.863898
0.942977
0.998735
1.03372
1.05578
1.04299
0.986068
0.921941
-0.278759
-0.264265
-0.21847
-0.144377
-0.057041
0.0403598
0.145396
0.258309
0.378105
0.505468