/*--------------------------------*- C++ -*----------------------------------*\
| =========                 |                                                 |
| \\      /  F ield         | OpenFOAM: The Open Source CFD Toolbox           |
|  \\    /   O peration     | Version:  2112                                  |
|   \\  /    A nd           | Website:  www.openfoam.com                      |
|    \\/     M anipulation  |                                                 |
\*---------------------------------------------------------------------------*/
FoamFile
{
    version     2.0;
    format      ascii;
    arch        "LSB;label=32;scalar=64";
    class       surfaceScalarField;
    location    "38.5";
    object      phi;
}
// * * * * * * * * * * * * * * * * * * * * * * * * * * * * * * * * * * * * * //

dimensions      [0 3 -1 0 0 0 0];

oriented        oriented;

internalField   nonuniform List<scalar> 
17370
(
-0.0916071
0.0960071
0.284611
-0.0775908
0.0594146
0.364952
-0.0430369
0.0316179
0.427587
-0.0223137
0.0162602
0.505305
-0.011665
0.00878852
0.602279
-0.00657526
0.00509162
0.720541
-0.00386119
0.00299005
0.863778
-0.00222722
0.00165559
1.03602
-0.00112809
0.000709033
1.24292
-0.000299224
-9.38611e-05
1.49158
0.000480052
-0.0008849
1.4916
0.00128603
-0.00179164
1.2432
0.00234584
-0.00309479
1.03639
0.00395856
-0.00518358
0.864132
0.00666137
-0.00886537
0.721261
0.0117306
-0.0163111
0.603795
0.0223507
-0.0316403
0.508729
0.0430441
-0.059412
0.432536
0.0775898
-0.0960046
0.36519
0.0916196
0.197391
-0.127087
0.0880173
0.0390696
-0.36435
0.354024
-0.0714793
0.0818055
-0.446655
0.454247
-0.0791692
0.0715777
-0.521009
0.529105
-0.0637292
0.0556331
-0.612987
0.620757
-0.0482464
0.0404757
-0.727159
0.733679
-0.0338625
0.0273425
-0.86758
0.872419
-0.0221445
0.0173053
-1.03856
1.04189
-0.0136216
0.0102959
-1.24471
1.24711
-0.00775354
0.00535372
-1.49284
1.49485
-0.00339375
0.00138384
-1.49269
1.49451
0.00043377
-0.00224915
-1.24411
1.24602
0.00421936
-0.00612876
-1.03761
1.04009
0.00846692
-0.0109528
-0.866188
0.869828
0.0142213
-0.0178607
-0.724596
0.729758
0.0226583
-0.0278202
-0.609069
0.615641
0.034299
-0.0408717
-0.515127
0.522467
0.0485953
-0.0559355
-0.43988
0.447666
0.0639648
-0.0717502
-0.374712
0.377358
0.0792554
-0.0819014
-0.256905
0.224448
0.0715535
-0.0390973
-0.0687999
0.0591854
0.00961445
-0.0521235
0.058959
-0.374831
0.367995
-0.0581149
0.054276
-0.453939
0.457778
-0.0487901
0.0442313
-0.527606
0.532165
-0.0396805
0.0357844
-0.620789
0.624685
-0.0315743
0.0275887
-0.73465
0.738635
-0.02325
0.019382
-0.873946
0.877813
-0.0153562
0.0119128
-1.04335
1.04679
-0.00840519
0.00538137
-1.24864
1.25166
-0.00218119
-0.000795214
-1.49694
1.49992
0.00375079
-0.00689407
-1.49742
1.50056
0.00983857
-0.013244
-1.25007
1.25348
0.0165891
-0.0205093
-1.04566
1.04958
0.0242898
-0.0285431
-0.877147
0.8814
0.0324554
-0.036585
-0.738994
0.743124
0.0404088
-0.0448856
-0.625985
0.630462
0.0493842
-0.0548123
-0.535028
0.540456
0.0585875
-0.059356
-0.458088
0.458857
0.0524206
-0.0320471
-0.336784
0.31641
0.00966781
-0.0686761
0.0590083
-0.0533928
0.0492784
0.00411438
-0.0332649
0.0436983
-0.358538
0.348105
-0.0473811
0.0467991
-0.459562
0.460144
-0.043874
0.040663
-0.536113
0.539324
-0.0369873
0.0336356
-0.628372
0.631724
-0.0300103
0.0267845
-0.742011
0.745237
-0.0233551
0.020179
-0.881311
0.884487
-0.0166059
0.0132689
-1.05021
1.05355
-0.00958615
0.00619639
-1.25491
1.2583
-0.00242114
-0.00118286
-1.50326
1.50686
0.00475967
-0.00845491
-1.50406
1.50775
0.0117359
-0.0152743
-1.25704
1.26058
0.018468
-0.0218833
-1.05329
1.0567
0.0249267
-0.0282279
-0.885007
0.888308
0.031347
-0.0348599
-0.746811
0.750324
0.038109
-0.0416735
-0.634593
0.638157
0.0447887
-0.0476091
-0.544608
0.547428
0.0480857
-0.0442581
-0.456984
0.453157
0.0336499
-0.016358
-0.297111
0.279819
0.00417229
-0.0531645
0.0489922
-0.0461048
0.043546
0.00255884
-0.0230716
0.0334339
-0.337499
0.327137
-0.0391785
0.0401344
-0.459883
0.458927
-0.0388893
0.0365651
-0.541965
0.544289
-0.0339264
0.031385
-0.634674
0.637215
-0.0284185
0.0255887
-0.748316
0.751146
-0.0223789
0.0193923
-0.887541
0.890528
-0.0160687
0.0129581
-1.05671
1.05982
-0.00942713
0.00604929
-1.26169
1.26506
-0.00215955
-0.00162316
-1.51059
1.51437
0.00537144
-0.00915502
-1.51154
1.51532
0.0123883
-0.0157262
-1.26405
1.26739
0.0186446
-0.0217561
-1.05992
1.06303
0.0245623
-0.0275941
-0.891507
0.894539
0.0302758
-0.0330891
-0.753507
0.75632
0.0354934
-0.0379864
-0.641121
0.643614
0.0401865
-0.0412724
-0.549276
0.550362
0.0401548
-0.0341778
-0.448053
0.442076
0.0235631
-0.0103465
-0.264659
0.251443
0.00263032
-0.0457563
0.043126
-0.0414235
0.0396195
0.00180405
-0.0169706
0.0262713
-0.317252
0.307951
-0.0328831
0.0350141
-0.457351
0.45522
-0.034587
0.0328927
-0.546305
0.547999
-0.0306676
0.0285455
-0.63951
0.641632
-0.0261226
0.0237683
-0.753735
0.75609
-0.0209876
0.0182715
-0.893373
0.896089
-0.0151171
0.0121091
-1.06285
1.06586
-0.00867352
0.00538754
-1.26837
1.27165
-0.00158155
-0.00213552
-1.51812
1.52184
0.00580745
-0.00947908
-1.51906
1.52274
0.0125832
-0.015777
-1.27067
1.27386
0.0185409
-0.0214189
-1.06606
1.06893
0.023894
-0.026436
-0.897323
0.899865
0.0285954
-0.0308219
-0.758768
0.760994
0.0327714
-0.0348122
-0.645858
0.647899
0.0363302
-0.0365418
-0.550964
0.551176
0.034165
-0.0272167
-0.43552
0.428571
0.0175805
-0.00743684
-0.239906
0.229762
0.00189101
-0.0409271
0.0390361
-0.038066
0.0367106
0.00135541
-0.0129711
0.0209856
-0.299294
0.29128
-0.0277716
0.0307097
-0.452646
0.449708
-0.0309326
0.0298233
-0.549417
0.550526
-0.0278387
0.0259285
-0.643665
0.645575
-0.0237402
0.0216269
-0.758317
0.76043
-0.0191549
0.0167191
-0.898623
0.901059
-0.013834
0.0110123
-1.06873
1.07155
-0.00772263
0.00454413
-1.27486
1.27804
-0.000850862
-0.00274771
-1.52548
1.52908
0.00628952
-0.00981373
-1.52634
1.52987
0.0127636
-0.0157465
-1.27699
1.27997
0.0182567
-0.0207896
-1.07167
1.0742
0.0229181
-0.0250861
-0.902184
0.904352
0.0269517
-0.0288905
-0.763039
0.764978
0.0305839
-0.0323502
-0.649783
0.651549
0.0332079
-0.0326896
-0.55103
0.550512
0.0294043
-0.0221613
-0.421421
0.414178
0.013719
-0.00572233
-0.220795
0.212799
0.00146107
-0.0373892
0.0359281
-0.0355264
0.0344817
0.00104469
-0.010142
0.0169295
-0.283902
0.277114
-0.0234668
0.02687
-0.446513
0.44311
-0.0276713
0.0269925
-0.551403
0.552082
-0.0252395
0.0234716
-0.647442
0.64921
-0.0214375
0.0194697
-0.762482
0.76445
-0.0171608
0.0148931
-0.903356
0.905624
-0.0122224
0.00960044
-1.07421
1.07683
-0.00651199
0.00349179
-1.2811
1.28412
4.3778e-05
-0.00348366
-1.53258
1.53602
0.00685507
-0.0101767
-1.5333
1.53663
0.0129112
-0.0156185
-1.28285
1.28555
0.0178586
-0.0200974
-1.07659
1.07883
0.0219829
-0.0239042
-0.90638
0.908301
0.0255532
-0.0272728
-0.766778
0.768498
0.0287759
-0.0302371
-0.653184
0.654645
0.0306014
-0.0293888
-0.549664
0.548452
0.0255102
-0.0183758
-0.406969
0.399835
0.0110544
-0.00457656
-0.205635
0.199157
0.00117286
-0.0346303
0.0334575
-0.0335637
0.0327489
0.000814781
-0.00804084
0.0137503
-0.270893
0.265183
-0.0198113
0.0234276
-0.439586
0.43597
-0.0247283
0.0243164
-0.552653
0.553065
-0.0228591
0.0212221
-0.650958
0.652595
-0.0193051
0.01744
-0.766377
0.768242
-0.0152392
0.0130693
-0.907783
0.909953
-0.0105108
0.00800981
-1.07931
1.08181
-0.0050826
0.00222665
-1.28701
1.28986
0.00111442
-0.00436922
-1.53935
1.5426
0.00753855
-0.0106228
-1.53983
1.54292
0.0131308
-0.0155948
-1.28816
1.29063
0.0176306
-0.0196592
-1.08098
1.08301
0.0213541
-0.0230651
-0.910119
0.91183
0.0245255
-0.0260485
-0.7701
0.771623
0.0273543
-0.0284368
-0.655898
0.65698
0.0284392
-0.0265816
-0.54693
0.545072
0.0223407
-0.0155213
-0.392857
0.386037
0.00915267
-0.00377174
-0.193281
0.1879
0.00097024
-0.0324009
0.0314307
-0.032033
0.0313963
0.000636754
-0.00641642
0.0111997
-0.259964
0.255181
-0.0166688
0.0202893
-0.432349
0.428728
-0.0219211
0.0217428
-0.553387
0.553565
-0.020531
0.0189677
-0.654231
0.655795
-0.0171227
0.015325
-0.770081
0.771878
-0.0132083
0.0111262
-0.912011
0.914093
-0.00867444
0.00628127
-1.08418
1.08658
-0.00348414
0.000765366
-1.2926
1.29532
0.00239729
-0.00545785
-1.54573
1.54879
0.00841316
-0.0112583
-1.54589
1.54873
0.0135467
-0.0157702
-1.29301
1.29523
0.0175848
-0.0193784
-1.08495
1.08675
0.020872
-0.0223866
-0.913446
0.914961
0.0236899
-0.0250511
-0.773038
0.774399
0.0262227
-0.0269241
-0.657853
0.658555
0.0265748
-0.0242049
-0.542979
0.540609
0.0197769
-0.0133594
-0.379431
0.373013
0.00776835
-0.0031939
-0.182964
0.17839
0.000825477
-0.030546
0.0297206
-0.0308407
0.0303477
0.000492999
-0.00510517
0.0090857
-0.250826
0.246846
-0.0139164
0.0173963
-0.425189
0.421709
-0.0192279
0.0192549
-0.553687
0.55366
-0.0182543
0.0167362
-0.657402
0.65892
-0.0149274
0.0131611
-0.77366
0.775426
-0.0110871
0.00905716
-0.916055
0.918085
-0.00667812
0.00436522
-1.08883
1.09115
-0.00167281
-0.000924497
-1.29791
1.30051
0.00391949
-0.0067819
-1.55172
1.55458
0.00951609
-0.0121251
-1.55146
1.55407
0.0142048
-0.0162087
-1.29738
1.29939
0.0178287
-0.0194118
-1.08846
1.09004
0.0207173
-0.0220375
-0.916381
0.917701
0.0231779
-0.0243764
-0.775665
0.776864
0.0253821
-0.025732
-0.659057
0.659407
0.0250286
-0.0222424
-0.538061
0.535275
0.0177366
-0.0117274
-0.366823
0.360814
0.00675611
-0.00277909
-0.174151
0.170174
0.000723494
-0.0289603
0.0282368
-0.0299249
0.0295546
0.000370304
-0.00399565
0.00726182
-0.243249
0.239983
-0.0114299
0.0146501
-0.418379
0.415159
-0.0165572
0.0167699
-0.553594
0.553382
-0.0158991
0.0144987
-0.660451
0.661851
-0.0127284
0.0109753
-0.777172
0.778925
-0.00890551
0.00688289
-0.920006
0.922028
-0.00452844
0.00226088
-1.09334
1.09561
0.000348701
-0.00285157
-1.30299
1.30549
0.00570913
-0.00840841
-1.55732
1.56002
0.0109504
-0.0133349
-1.55656
1.55895
0.0151992
-0.0169662
-1.30132
1.30309
0.0183802
-0.0197525
-1.09157
1.09294
0.02088
-0.0220149
-0.918958
0.920093
0.0229969
-0.0240221
-0.777957
0.778982
0.0247669
-0.0248311
-0.6596
0.659664
0.0237452
-0.0206174
-0.532341
0.529213
0.0161092
-0.0104873
-0.355027
0.349406
0.00600918
-0.00247914
-0.166455
0.162925
0.000651349
-0.0275639
0.0269125
-0.0292475
0.0289879
0.000259578
-0.00301055
0.00562371
-0.237069
0.234456
-0.00912037
0.0119847
-0.412149
0.409284
-0.0138305
0.0141305
-0.553191
0.552891
-0.0133169
0.0119805
-0.663294
0.664631
-0.010211
0.00844651
-0.780654
0.782419
-0.00637449
0.00436665
-0.923921
0.925929
-0.00204758
-0.000169235
-1.09774
1.09996
0.0027196
-0.00513727
-1.30787
1.31029
0.00786773
-0.010408
-1.56259
1.56513
0.0127568
-0.0149125
-1.56121
1.56337
0.0165598
-0.0180843
-1.30478
1.3063
0.0192779
-0.0204165
-1.09425
1.09539
0.0213417
-0.022273
-0.921159
0.92209
0.0230743
-0.0238879
-0.779878
0.780692
0.0243831
-0.0241861
-0.659567
0.65937
0.0227381
-0.0193315
-0.525978
0.522571
0.0148565
-0.00957035
-0.34399
0.338704
0.00547429
-0.00227221
-0.159595
0.156393
0.000604511
-0.0263011
0.0256966
-0.0287869
0.0286337
0.000153206
-0.00208527
0.00407551
-0.232178
0.230188
-0.00688556
0.00932093
-0.406671
0.404235
-0.0110052
0.0113258
-0.552667
0.552347
-0.0105493
0.00924705
-0.666051
0.667354
-0.0074627
0.005669
-0.784159
0.785953
-0.00356777
0.00154007
-0.927802
0.92983
0.00078938
-0.00300949
-1.10206
1.10428
0.00552674
-0.00787969
-1.31259
1.31494
0.0104844
-0.012852
-1.56753
1.5699
0.0149871
-0.0168936
-1.56539
1.56729
0.0183042
-0.0195623
-1.30774
1.309
0.0205189
-0.0214084
-1.09643
1.09732
0.0221201
-0.0228348
-0.922945
0.92366
0.0234563
-0.0240891
-0.781449
0.782082
0.0242811
-0.0238082
-0.658961
0.658488
0.0220234
-0.0183647
-0.519091
0.515433
0.0139236
-0.00891075
-0.333609
0.328596
0.00510433
-0.0021373
-0.15335
0.150383
0.000577066
-0.0251262
0.0245491
-0.0285371
0.0284905
4.66493e-05
-0.00117074
0.00254302
-0.228526
0.227154
-0.00464079
0.00657559
-0.402087
0.400152
-0.00800256
0.00828804
-0.552149
0.551864
-0.00754665
0.00628733
-0.66875
0.670009
-0.0044858
0.00263788
-0.78771
0.789558
-0.000454347
-0.00165022
-0.931735
0.933839
0.00404683
-0.00629765
-1.10638
1.10863
0.00881228
-0.0111251
-1.31718
1.31949
0.0136399
-0.01587
-1.57214
1.57437
0.0178162
-0.0194767
-1.56906
1.57072
0.0206451
-0.0216379
-1.31019
1.31118
0.0223556
-0.0229912
-1.09814
1.09878
0.0234631
-0.0239162
-0.924288
0.924741
0.0243063
-0.0246972
-0.782577
0.782968
0.0245567
-0.0237259
-0.657711
0.65688
0.0215684
-0.0176632
-0.51172
0.507815
0.0132515
-0.00845745
-0.323758
0.318964
0.00486604
-0.00206063
-0.147543
0.144738
0.000565951
-0.0239992
0.0234333
-0.0285026
0.0285665
-6.39349e-05
-0.0002152
0.000957647
-0.226112
0.22537
-0.00230896
0.00366303
-0.398554
0.3972
-0.00470045
0.00482676
-0.551792
0.551666
-0.00401471
0.00271001
-0.671413
0.672718
-0.000837307
-0.00109326
-0.791365
0.793295
0.00336128
-0.00552391
-0.935802
0.937965
0.00797023
-0.0102514
-1.11076
1.11304
0.0127763
-0.0150649
-1.32169
1.32398
0.0174952
-0.0195762
-1.57646
1.57854
0.0213035
-0.0226861
-1.57222
1.5736
0.02357
-0.0242302
-1.31206
1.31272
0.0246375
-0.0249279
-1.09931
1.0996
0.0251024
-0.0252612
-0.925127
0.925286
0.0254381
-0.0255639
-0.783118
0.783244
0.0251794
-0.0239083
-0.655694
0.654422
0.0213885
-0.0172645
-0.503923
0.499799
0.0128609
-0.00821228
-0.314337
0.309688
0.00475672
-0.00203988
-0.142033
0.139317
0.000569632
-0.0228919
0.0223223
-0.0286966
0.028896
-0.000199457
0.000762011
-0.000715204
-0.224965
0.224918
0.000169025
0.00054029
-0.396208
0.395499
-0.00110253
0.000995854
-0.551845
0.551951
-6.01399e-05
-0.00136054
-0.67424
0.675661
0.00334333
-0.00537733
-0.79518
0.797214
0.0077591
-0.0100277
-0.93997
0.942239
0.0125876
-0.0149574
-1.11519
1.11756
0.0175431
-0.0198374
-1.32615
1.32844
0.0221977
-0.024123
-1.58046
1.58239
0.0256207
-0.0267073
-1.57481
1.5759
0.0272984
-0.0276099
-1.31325
1.31357
0.0276922
-0.027638
-1.09977
1.09972
0.0274994
-0.0273306
-0.925345
0.925176
0.0272115
-0.0269684
-0.783015
0.782772
0.0262734
-0.0245171
-0.652867
0.65111
0.021606
-0.0172117
-0.495705
0.49131
0.0127576
-0.00817393
-0.305182
0.300598
0.00477686
-0.00207768
-0.136673
0.133974
0.000590507
-0.0217711
0.0211806
-0.0291614
0.0295032
-0.000341722
0.00189178
-0.00249694
-0.225183
0.225789
0.00284651
-0.00290794
-0.39518
0.395242
0.00295222
-0.00336116
-0.552463
0.552872
0.00442009
-0.00592892
-0.677304
0.678813
0.00803634
-0.0102327
-0.799206
0.801402
0.0128312
-0.0153031
-0.944383
0.946854
0.0180689
-0.0205929
-1.11982
1.12234
0.0232942
-0.0256269
-1.33063
1.33296
0.0279403
-0.0297226
-1.58415
1.58593
0.0309795
-0.0317274
-1.57678
1.57752
0.0319883
-0.0319168
-1.31374
1.31367
0.0316459
-0.0312199
-1.09951
1.09908
0.0307566
-0.0302217
-0.924842
0.924308
0.0297415
-0.0290414
-0.782105
0.781405
0.027903
-0.0255536
-0.649142
0.646792
0.0221972
-0.0175034
-0.486967
0.482273
0.0129487
-0.00834193
-0.296139
0.291533
0.0049205
-0.00216764
-0.131325
0.128572
0.000625262
-0.0206055
0.0199803
-0.0299186
0.0304371
-0.000518591
0.00316656
-0.00458937
-0.22682
0.228243
0.00587953
-0.00677611
-0.395686
0.396583
0.00758588
-0.00845564
-0.553824
0.554694
0.00978608
-0.0114905
-0.680621
0.682326
0.013823
-0.0162459
-0.803565
0.805988
0.0191005
-0.0217964
-0.949189
0.951885
0.0247831
-0.0274742
-1.12474
1.12743
0.0303062
-0.0326939
-1.33517
1.33756
0.0349711
-0.0366065
-1.58755
1.58919
0.0376008
-0.037965
-1.57803
1.5784
0.0378338
-0.0373055
-1.31339
1.31286
0.0366069
-0.0357188
-1.09842
1.09753
0.0348493
-0.0338883
-0.923522
0.922561
0.0330432
-0.0318098
-0.780205
0.778972
0.03013
-0.0271755
-0.644306
0.641351
0.0233511
-0.0182877
-0.477661
0.472598
0.0135254
-0.00876441
-0.287019
0.282258
0.00521085
-0.00231583
-0.125844
0.122949
0.000673392
-0.0193699
0.0186965
-0.0310416
0.0317887
-0.000747039
0.00469559
-0.00700571
-0.230093
0.232403
0.00934951
-0.0111534
-0.397908
0.399712
0.0128136
-0.0142712
-0.556259
0.557716
0.0160425
-0.0180827
-0.684456
0.686496
0.0207729
-0.0235119
-0.808385
0.811124
0.026692
-0.0296643
-0.954433
0.957405
0.0329296
-0.0358429
-1.13
1.13291
0.0388607
-0.0413346
-1.33981
1.34228
0.0435743
-0.0450183
-1.59061
1.59205
0.0456901
-0.0456297
-1.57848
1.57842
0.0450415
-0.0440185
-1.31208
1.31105
0.0428374
-0.0414106
-1.09633
1.0949
0.0400674
-0.0386189
-0.92127
0.919822
0.0373524
-0.0355709
-0.777215
0.775433
0.0333456
-0.0297247
-0.638313
0.634692
0.0253201
-0.019738
-0.467607
0.462024
0.0146198
-0.00953192
-0.277543
0.272455
0.00569983
-0.00254172
-0.120038
0.11688
0.000739086
-0.0180351
0.017296
-0.0326138
0.0336449
-0.00103108
0.00652005
-0.00985704
-0.235142
0.238479
0.0134038
-0.0162311
-0.402049
0.404876
0.0188151
-0.0209117
-0.560008
0.562105
0.0232032
-0.0256633
-0.689064
0.691524
0.0288232
-0.0319997
-0.813847
0.817024
0.0356589
-0.039054
-0.960259
0.963654
0.0427493
-0.0459972
-1.13573
1.13898
0.0492862
-0.0518904
-1.34463
1.34723
0.054108
-0.0553533
-1.59327
1.59451
0.0556708
-0.0551106
-1.57804
1.57748
0.0540154
-0.0523931
-1.30965
1.30803
0.0506816
-0.0486984
-1.09308
1.0911
0.0468583
-0.0448835
-0.917958
0.915983
0.043097
-0.0407094
-0.773102
0.770714
0.0378093
-0.0333939
-0.631001
0.626586
0.0282946
-0.0220462
-0.456526
0.450277
0.016388
-0.0107402
-0.267353
0.261705
0.00643801
-0.00286537
-0.113653
0.11008
0.000827704
-0.0165654
0.0157377
-0.0347396
0.0361505
-0.00141089
0.00885604
-0.0134385
-0.242215
0.246797
0.018387
-0.0223847
-0.408385
0.412383
0.0260338
-0.0289044
-0.565282
0.568153
0.0318744
-0.0349089
-0.694628
0.697662
0.0387226
-0.0425078
-0.820212
0.823997
0.0468361
-0.0508067
-0.966984
0.970955
0.0550521
-0.0586892
-1.14214
1.14578
0.062246
-0.0649253
-1.34966
1.35234
0.0670223
-0.0679463
-1.59545
1.59638
0.0677704
-0.0665734
-1.57651
1.57532
0.0648647
-0.062573
-1.30597
1.30368
0.0602919
-0.0577167
-1.08861
1.08604
0.05536
-0.0528024
-0.913481
0.910923
0.0503899
-0.0473076
-0.767785
0.764702
0.0436512
-0.0383586
-0.622123
0.61683
0.0324507
-0.0253258
-0.444119
0.436994
0.0188742
-0.0123873
-0.255964
0.249477
0.00741263
-0.00327932
-0.106388
0.102255
0.00093769
-0.0149141
0.0139764
-0.0375993
0.0395507
-0.00195148
0.0120533
-0.0182157
-0.251708
0.257871
0.0248224
-0.0301713
-0.417346
0.422695
0.035092
-0.0389894
-0.572493
0.57639
0.0429267
-0.0468181
-0.701527
0.705419
0.0515729
-0.0561592
-0.827818
0.832404
0.0612733
-0.0658565
-0.974855
0.979439
0.0706319
-0.0746011
-1.14928
1.15325
0.0783283
-0.0809658
-1.35477
1.35741
0.0827778
-0.0832102
-1.59689
1.59733
0.0823666
-0.080368
-1.57361
1.57161
0.0779119
-0.0748161
-1.30086
1.29777
0.071826
-0.0685374
-1.08283
1.07954
0.0656015
-0.0624756
-0.907718
0.904592
0.0594198
-0.0556169
-0.761039
0.757236
0.0511493
-0.0448403
-0.611502
0.605193
0.0379058
-0.029584
-0.429935
0.421613
0.0220287
-0.0144094
-0.242832
0.235212
0.00857466
-0.00376037
-0.0979704
0.0931561
0.00106301
-0.0130433
0.0119803
-0.041499
0.0442853
-0.00278637
0.0167366
-0.0249834
-0.264282
0.272529
0.0336229
-0.0405826
-0.429532
0.436492
0.0470391
-0.0521796
-0.582217
0.587357
0.0574442
-0.0625727
-0.710337
0.715466
0.0684938
-0.073973
-0.837003
0.842483
0.0798878
-0.0850396
-0.983906
0.989058
0.0902541
-0.0944349
-1.157
1.16118
0.0981658
-0.100581
-1.35968
1.3621
0.101873
-0.101572
-1.59721
1.5969
0.0998426
-0.0968333
-1.56898
1.56597
0.0934534
-0.0893908
-1.29404
1.28998
0.0855879
-0.081498
-1.0755
1.07141
0.0779252
-0.0741739
-0.900667
0.896915
0.0705045
-0.0658965
-0.752742
0.748134
0.0604282
-0.0527987
-0.598778
0.591148
0.0445105
-0.0346255
-0.413315
0.40343
0.0256549
-0.0166417
-0.22742
0.218407
0.00980804
-0.00425061
-0.0882012
0.0826437
0.00118554
-0.0109309
0.00974534
-0.0469949
0.0512157
-0.0042208
0.0241415
-0.035278
-0.281056
0.292193
0.0466
-0.0557041
-0.445941
0.455045
0.0639401
-0.0704851
-0.594984
0.601529
0.0773039
-0.0838239
-0.721559
0.728079
0.0909632
-0.097295
-0.847918
0.85425
0.103908
-0.109482
-0.994018
0.999593
0.114914
-0.119063
-1.16502
1.16916
0.122491
-0.124381
-1.36398
1.36587
0.12482
-0.123496
-1.59589
1.59456
0.120629
-0.116393
-1.56221
1.55797
0.111946
-0.106765
-1.28518
1.27999
0.102003
-0.0969714
-1.06644
1.06141
0.0926517
-0.0881435
-0.892058
0.88755
0.0837532
-0.0780574
-0.742593
0.736897
0.071307
-0.0619943
-0.583265
0.573953
0.0520283
-0.0402382
-0.393546
0.381756
0.0295564
-0.0189262
-0.209299
0.198669
0.0109991
-0.0046883
-0.0770229
0.0707121
0.00128246
-0.00859661
0.00731415
-0.0551553
0.0624367
-0.00728138
0.0375048
-0.0529899
-0.304183
0.319668
0.0681176
-0.0800327
-0.468013
0.479928
0.0901184
-0.0980054
-0.611113
0.619
0.106325
-0.114002
-0.735244
0.742922
0.122002
-0.128782
-0.860337
0.867117
0.135587
-0.141082
-1.00476
1.01025
0.146155
-0.149704
-1.17269
1.17624
0.152205
-0.152979
-1.36694
1.36771
0.151976
-0.149134
-1.59226
1.58942
0.144729
-0.13897
-1.55284
1.54708
0.133256
-0.126846
-1.27405
1.26764
0.121066
-0.115014
-1.05538
1.04933
0.109839
-0.10438
-0.881535
0.876076
0.0990456
-0.0919091
-0.729896
0.722759
0.0835741
-0.0722614
-0.564167
0.552855
0.0602435
-0.046167
-0.369873
0.355796
0.0335532
-0.0211983
-0.18817
0.175816
0.0121263
-0.0050643
-0.0645429
0.0574809
0.00134429
-0.00610554
0.00476125
-0.0692854
0.0732997
-0.00401436
0.0284558
-0.0418319
-0.337721
0.351097
0.0552532
-0.06599
-0.497002
0.507739
0.075565
-0.0846921
-0.630306
0.639433
0.0950559
-0.104222
-0.7503
0.759466
0.11441
-0.123496
-0.873068
0.882154
0.133114
-0.141553
-1.01483
1.02327
0.150154
-0.157247
-1.17868
1.18577
0.163843
-0.168529
-1.36725
1.37194
0.171754
-0.172501
-1.58525
1.58599
0.17068
-0.1668
-1.54013
1.53625
0.161927
-0.155692
-1.26035
1.25411
0.149772
-0.142745
-1.04227
1.03524
0.136566
-0.129744
-0.868763
0.861941
0.122967
-0.113635
-0.714049
0.704717
0.101827
-0.0860164
-0.540658
0.524847
0.0697108
-0.0511396
-0.341328
0.322757
0.0355501
-0.021284
-0.163902
0.149636
0.0115116
-0.00451566
-0.051107
0.0441111
0.00109365
-0.00358136
0.00248771
-0.0803812
0.0784254
0.00195583
0.00667153
-0.0153394
-0.367349
0.376017
0.0255104
-0.0332008
-0.523195
0.530886
0.0410335
-0.0490377
-0.650934
0.658938
0.0586279
-0.0673783
-0.76842
0.77717
0.0766509
-0.0851313
-0.890768
0.899248
0.0940641
-0.101547
-1.03144
1.03893
0.109319
-0.115336
-1.19264
1.19866
0.120813
-0.124326
-1.3762
1.37972
0.125961
-0.12527
-1.58564
1.58495
0.121991
-0.116597
-1.53115
1.52575
0.110203
-0.102385
-1.24694
1.23912
0.0950645
-0.0869865
-1.02727
1.01919
0.0797135
-0.071741
-0.85249
0.844518
0.0642545
-0.0554995
-0.69115
0.682395
0.0460484
-0.0345673
-0.506628
0.495146
0.0242693
-0.0148719
-0.303727
0.29433
0.00868334
-0.00422553
-0.136022
0.131564
0.0018262
-0.000544132
-0.0376553
0.0363733
9.50756e-05
-0.0013678
0.00127272
-0.0815815
0.0786567
0.00292486
-0.00235016
-0.00250012
-0.387226
0.392076
0.00933299
-0.0151469
-0.542659
0.548473
0.0213272
-0.0283258
-0.668822
0.675821
0.0367165
-0.0444077
-0.785157
0.792849
0.0528011
-0.0602967
-0.907059
0.914555
0.0679194
-0.0746388
-1.04624
1.05296
0.0814006
-0.0867232
-1.20423
1.20955
0.0911406
-0.0937664
-1.38255
1.38517
0.0948943
-0.0937355
-1.58359
1.58243
0.090213
-0.0847781
-1.51985
1.51442
0.0785273
-0.0710718
-1.23126
1.22381
0.0635831
-0.0552765
-1.01052
1.00221
0.0473488
-0.0381783
-0.834991
0.825821
0.0296716
-0.0204618
-0.669215
0.660005
0.0123297
-0.00393399
-0.481313
0.472917
-0.001388
0.00423419
-0.283795
0.280949
-0.00483714
0.00411411
-0.12583
0.126553
-0.00285803
0.00140448
-0.0345847
0.0360382
-0.00042394
-0.00101242
0.00143636
-0.0802007
0.0774266
0.00277404
-0.0058537
0.00366067
-0.400286
0.402479
0.000564183
-0.00508801
-0.557389
0.561913
0.0104909
-0.0164508
-0.683786
0.689746
0.0237343
-0.0304657
-0.800066
0.806798
0.0377623
-0.04426
-0.921577
0.928075
0.0512209
-0.0569653
-1.05926
1.065
0.062958
-0.0672762
-1.2145
1.21882
0.0712266
-0.0736087
-1.3877
1.39008
0.0745555
-0.0733299
-1.58112
1.57989
0.0703802
-0.0657226
-1.50888
1.50423
0.0601592
-0.0529693
-1.21644
1.20925
0.0457918
-0.0373474
-0.993333
0.984888
0.0286878
-0.0187977
-0.815012
0.805122
0.00942832
-0.000213372
-0.647004
0.637789
-0.00655796
0.0116337
-0.462854
0.457778
-0.0134562
0.0127274
-0.27524
0.275969
-0.0107312
0.00773719
-0.125713
0.128707
-0.00501826
0.00234197
-0.0366849
0.0393611
-0.000694102
-0.00161426
0.00230836
-0.0786072
0.0761683
0.0024389
-0.00690035
0.0062934
-0.408865
0.409472
-0.0032095
2.49524e-05
-0.569401
0.572586
0.00448695
-0.00995521
-0.696489
0.701957
0.0161409
-0.0221251
-0.812927
0.818911
0.0285034
-0.0341834
-0.934161
0.939841
0.0402028
-0.0453905
-1.07064
1.07582
0.050588
-0.0547331
-1.22307
1.22722
0.0583748
-0.0606495
-1.39227
1.39454
0.061691
-0.0607326
-1.57878
1.57782
0.0581675
-0.0537542
-1.49919
1.49477
0.0485381
-0.041766
-1.20214
1.19537
0.0347212
-0.0261307
-0.97587
0.96728
0.0176056
-0.0079252
-0.794113
0.784432
-0.000610628
0.0084644
-0.62643
0.618576
-0.0136447
0.0169843
-0.450214
0.446874
-0.0175818
0.0155817
-0.272896
0.274896
-0.0125569
0.00895181
-0.129959
0.133564
-0.00573211
0.00263438
-0.0411658
0.0442635
-0.000789675
-0.00275039
0.00354007
-0.0771541
0.0750739
0.00208016
-0.0067145
0.00660729
-0.414585
0.414693
-0.00490041
0.00226068
-0.578541
0.581181
0.00197322
-0.00663283
-0.707337
0.711997
0.0119689
-0.0171848
-0.824151
0.829367
0.0228707
-0.0279715
-0.9452
0.950301
0.0335377
-0.0381801
-1.08078
1.08542
0.0430141
-0.046938
-1.23117
1.2351
0.050404
-0.0526293
-1.3967
1.39893
0.0537069
-0.0532204
-1.57693
1.57644
0.0507614
-0.0466306
-1.49
1.48587
0.0415188
-0.0348812
-1.18837
1.18173
0.0282608
-0.0199519
-0.958452
0.950143
0.0119938
-0.00340549
-0.774405
0.765817
-0.00392844
0.0104982
-0.609231
0.602661
-0.014544
0.017046
-0.441132
0.43863
-0.0170999
0.0150596
-0.273137
0.275178
-0.012216
0.00864829
-0.135388
0.138955
-0.00547975
0.0025369
-0.0461937
0.0491365
-0.000765565
-0.00398814
0.00475371
-0.0760613
0.0744453
0.00161604
-0.00576696
0.00598098
-0.418689
0.418475
-0.00468556
0.0027635
-0.586462
0.588384
0.00111607
-0.00527859
-0.716692
0.720855
0.0102966
-0.0147788
-0.834197
0.83868
0.019779
-0.0243332
-0.955392
0.959946
0.029683
-0.0340088
-1.09014
1.09446
0.0384674
-0.0423458
-1.23892
1.2428
0.0461309
-0.0483553
-1.40127
1.40349
0.0496063
-0.0491123
-1.57561
1.57511
0.0470274
-0.0427729
-1.48148
1.47723
0.0379923
-0.0318146
-1.1749
1.16872
0.0255197
-0.0181555
-0.941933
0.934568
0.0110996
-0.0035443
-0.756965
0.74941
-0.00243735
0.0079869
-0.594801
0.589252
-0.0115383
0.0134529
-0.433972
0.432058
-0.0136665
0.0122736
-0.274031
0.275424
-0.00994286
0.00700656
-0.140492
0.143428
-0.00443441
0.00207681
-0.0507275
0.0530851
-0.000646514
-0.00511491
0.00576142
-0.0754895
0.0742293
0.00126016
-0.00460707
0.00492216
-0.42184
0.421525
-0.00379431
0.00201715
-0.593209
0.594986
0.00157341
-0.00520474
-0.724989
0.72862
0.00944412
-0.0137221
-0.843091
0.847369
0.0183336
-0.023042
-0.964335
0.969043
0.0277346
-0.0319596
-1.09893
1.10316
0.0366498
-0.0403883
-1.24663
1.25037
0.043802
-0.0464888
-1.40568
1.40837
0.0479211
-0.0476517
-1.57466
1.57439
0.0456352
-0.0418588
-1.4731
1.46932
0.0373892
-0.0316609
-1.16225
1.15652
0.0260199
-0.0194766
-0.927225
0.920682
0.0133895
-0.00712844
-0.742021
0.73576
0.00180468
0.00287729
-0.582739
0.578057
-0.00588552
0.00782382
-0.427704
0.425765
-0.0083813
0.00759167
-0.274132
0.274922
-0.00619396
0.00433554
-0.144074
0.145933
-0.00275832
0.00131182
-0.0539948
0.0554413
-0.000428066
-0.00596296
0.00639103
-0.0754647
0.0744293
0.00103545
-0.0032315
0.0032651
-0.424645
0.424612
-0.0023084
0.000592119
-0.599294
0.601011
0.00265448
-0.00606825
-0.732536
0.735949
0.0100526
-0.0138797
-0.851409
0.855236
0.0185875
-0.0225376
-0.973208
0.977158
0.0272488
-0.0313558
-1.10758
1.11169
0.0360032
-0.0399886
-1.25414
1.25812
0.043718
-0.0461887
-1.41084
1.41331
0.0479074
-0.0479504
-1.57402
1.57406
0.0464712
-0.0429444
-1.46538
1.46186
0.0389248
-0.0337172
-1.15091
1.14571
0.0286856
-0.0228276
-0.91406
0.908202
0.0175873
-0.0120146
-0.729345
0.723772
0.00733774
-0.00298422
-0.572503
0.56815
-0.000117239
0.00202528
-0.421612
0.419704
-0.00290353
0.00288345
-0.273015
0.273035
-0.00252296
0.00177202
-0.145627
0.146378
-0.00112945
0.000583543
-0.0554985
0.0560444
-0.00020861
-0.00639522
0.00660383
-0.0757467
0.0750425
0.000704229
-0.00198363
0.00156083
-0.427633
0.428056
-0.000770211
-0.00112822
-0.604516
0.606414
0.0039837
-0.00721302
-0.739399
0.742628
0.0109623
-0.0148728
-0.858901
0.862812
0.0189601
-0.0230836
-0.981333
0.985456
0.0277935
-0.0317339
-1.11625
1.12019
0.0365068
-0.0404667
-1.26194
1.2659
0.0442509
-0.0472115
-1.41619
1.41915
0.0493481
-0.0495983
-1.57411
1.57436
0.0483045
-0.0454586
-1.45847
1.45563
0.0420062
-0.0372687
-1.14041
1.13567
0.0326576
-0.0275858
-0.902357
0.897285
0.0225614
-0.0177014
-0.717981
0.713121
0.0134545
-0.00928719
-0.563301
0.559133
0.00631699
-0.00386915
-0.415505
0.413057
0.00248382
-0.00159807
-0.270619
0.269733
0.00107041
-0.000608702
-0.145091
0.144629
0.000214699
4.03271e-05
-0.0553721
0.0551171
-7.9029e-05
-0.0064051
0.00648413
-0.0764733
0.0759311
0.000542199
-0.000931237
0.000565349
-0.430935
0.4313
0.000874777
-0.00266771
-0.609837
0.611629
0.00563721
-0.00870234
-0.745654
0.748719
0.0122548
-0.0157451
-0.866384
0.869874
0.019953
-0.0237796
-0.989604
0.99343
0.028462
-0.0328494
-1.1246
1.12899
0.0372776
-0.0415565
-1.26992
1.2742
0.0457281
-0.0487373
-1.42201
1.42502
0.0511819
-0.0521502
-1.5748
1.57577
0.0512613
-0.0490302
-1.45264
1.45041
0.0458206
-0.0416201
-1.13098
1.12678
0.0375277
-0.032786
-0.891868
0.887126
0.0283006
-0.0237373
-0.707778
0.703215
0.0197418
-0.0156216
-0.554397
0.550277
0.0124358
-0.00965233
-0.408988
0.406204
0.00749338
-0.00568171
-0.266573
0.264761
0.00414058
-0.00257999
-0.142414
0.140854
0.00136491
-0.000444166
-0.0537061
0.0527854
5.22546e-05
-0.00607417
0.00602191
-0.077487
0.0771349
0.000352114
0.000180235
-0.000833771
-0.434441
0.435095
0.00220267
-0.00430113
-0.614795
0.616893
0.00718165
-0.0100784
-0.751612
0.754509
0.0136906
-0.0170209
-0.873339
0.876669
0.0210753
-0.0250316
-0.997745
1.0017
0.0296278
-0.0339825
-1.13325
1.1376
0.0386191
-0.042901
-1.27841
1.28269
0.0472167
-0.0509177
-1.4283
1.432
0.0537469
-0.054965
-1.57666
1.57788
0.0547363
-0.0528273
-1.44806
1.44615
0.0501936
-0.0465657
-1.12252
1.11889
0.0426081
-0.0381842
-0.882128
0.877705
0.033971
-0.0294746
-0.698262
0.693765