/*--------------------------------*- C++ -*----------------------------------*\
| =========                 |                                                 |
| \\      /  F ield         | OpenFOAM: The Open Source CFD Toolbox           |
|  \\    /   O peration     | Version:  2112                                  |
|   \\  /    A nd           | Website:  www.openfoam.com                      |
|    \\/     M anipulation  |                                                 |
\*---------------------------------------------------------------------------*/
FoamFile
{
    version     2.0;
    format      ascii;
    arch        "LSB;label=32;scalar=64";
    class       volVectorField;
    location    "38.5";
    object      U;
}
// * * * * * * * * * * * * * * * * * * * * * * * * * * * * * * * * * * * * * //

dimensions      [0 1 -1 0 0 0 0];

internalField   nonuniform List<vector> 
8800
(
(0.980152 -0.0915212 0)
(1.00234 -0.058724 0)
(0.999601 -0.0321254 0)
(0.999994 -0.0165177 0)
(1.00006 -0.0088331 0)
(1.00005 -0.00508433 0)
(1.00003 -0.0029913 0)
(1 -0.00169702 0)
(0.999986 -0.000802044 0)
(1.00006 -0.000106975 0)
(0.999985 0.000595117 0)
(0.999997 0.00134456 0)
(1.00001 0.00237598 0)
(1.00002 0.00398938 0)
(1.00003 0.00674019 0)
(0.999989 0.012044 0)
(0.999805 0.023093 0)
(0.99904 0.0431581 0)
(1.00723 0.079028 0)
(0.775023 0.0478396 0)
(0.358977 -0.014749 0)
(1.04649 -0.0724932 0)
(1.08848 -0.0660305 0)
(1.04946 -0.050925 0)
(1.02554 -0.0377053 0)
(1.0127 -0.0258972 0)
(1.00654 -0.0167125 0)
(1.00361 -0.0102481 0)
(1.00217 -0.00563258 0)
(1.00151 -0.00204774 0)
(1.00138 0.00115802 0)
(1.00174 0.00445987 0)
(1.00271 0.00835115 0)
(1.00473 0.0136786 0)
(1.00896 0.0213731 0)
(1.01794 0.0318725 0)
(1.03579 0.04465 0)
(1.06742 0.0580971 0)
(1.09471 0.0699644 0)
(0.845655 0.0555042 0)
(0.21776 -0.00138157 0)
(1.07567 -0.0506671 0)
(1.09942 -0.0489536 0)
(1.06438 -0.040039 0)
(1.03986 -0.0325777 0)
(1.02375 -0.0253666 0)
(1.01398 -0.0181761 0)
(1.00849 -0.0115849 0)
(1.00564 -0.00584723 0)
(1.00448 -0.000568925 0)
(1.00479 0.0045317 0)
(1.00665 0.00981518 0)
(1.01057 0.0157957 0)
(1.01788 0.022572 0)
(1.0305 0.0296961 0)
(1.05049 0.0367927 0)
(1.08005 0.0445743 0)
(1.10568 0.0519084 0)
(0.943326 0.0409969 0)
(0.217237 0.00140342 0)
(0.1766 -0.000629257 0)
(1.01936 -0.0354811 0)
(1.10571 -0.0414365 0)
(1.07796 -0.0364241 0)
(1.05239 -0.0303788 0)
(1.03515 -0.0245135 0)
(1.02331 -0.0187545 0)
(1.01551 -0.0127862 0)
(1.01092 -0.00671573 0)
(1.0089 -0.00050253 0)
(1.00944 0.00563821 0)
(1.01253 0.0115469 0)
(1.01848 0.0173301 0)
(1.02806 0.0229304 0)
(1.04228 0.0285052 0)
(1.0631 0.0343002 0)
(1.09389 0.0401943 0)
(1.09449 0.0417339 0)
(0.83034 0.0227561 0)
(0.175706 0.000646596 0)
(0.154671 -0.000463131 0)
(0.958083 -0.0257111 0)
(1.10436 -0.0351505 0)
(1.08804 -0.0327092 0)
(1.06117 -0.0282067 0)
(1.04311 -0.0232597 0)
(1.03075 -0.0180009 0)
(1.02217 -0.0125004 0)
(1.01664 -0.00663001 0)
(1.01401 -0.000207403 0)
(1.01467 0.00623581 0)
(1.01847 0.0120961 0)
(1.02525 0.0174156 0)
(1.03539 0.0224512 0)
(1.05015 0.0273122 0)
(1.07208 0.031776 0)
(1.10107 0.0356664 0)
(1.06982 0.0338996 0)
(0.74281 0.0144223 0)
(0.153336 0.000482624 0)
(0.139966 -0.000335267 0)
(0.900997 -0.0193494 0)
(1.09672 -0.0302683 0)
(1.09614 -0.0294026 0)
(1.06884 -0.0256268 0)
(1.04998 -0.0215679 0)
(1.03704 -0.0169236 0)
(1.02808 -0.0117213 0)
(1.02216 -0.00604622 0)
(1.01921 0.000257169 0)
(1.01986 0.00659006 0)
(1.02389 0.0122245 0)
(1.03092 0.0172177 0)
(1.04143 0.0217177 0)
(1.05684 0.0257019 0)
(1.07965 0.0292515 0)
(1.10344 0.0319904 0)
(1.03818 0.0280271 0)
(0.67619 0.0102633 0)
(0.138091 0.000358292 0)
(0.129206 -0.000254008 0)
(0.851034 -0.0149529 0)
(1.08429 -0.0261753 0)
(1.10176 -0.0265493 0)
(1.0756 -0.0232587 0)
(1.05623 -0.0196477 0)
(1.04288 -0.0155125 0)
(1.03355 -0.0107061 0)
(1.02736 -0.00527128 0)
(1.02419 0.000836151 0)
(1.02476 0.00695059 0)
(1.02883 0.0122955 0)
(1.03603 0.0168609 0)
(1.04683 0.0207685 0)
(1.06261 0.0241664 0)
(1.08588 0.0272341 0)
(1.10276 0.0290785 0)
(1.00373 0.023437 0)
(0.624426 0.00784434 0)
(0.126672 0.000281912 0)
(0.121 -0.000195307 0)
(0.80845 -0.0117639 0)
(1.06888 -0.0225803 0)
(1.10519 -0.0239211 0)
(1.08176 -0.0210783 0)
(1.06193 -0.0177027 0)
(1.0483 -0.0138765 0)
(1.03872 -0.00942934 0)
(1.03227 -0.00430019 0)
(1.0289 0.00154165 0)
(1.02933 0.00735677 0)
(1.03337 0.0123278 0)
(1.04065 0.0164229 0)
(1.05157 0.0198532 0)
(1.06763 0.0228479 0)
(1.0913 0.0256298 0)
(1.09926 0.0265967 0)
(0.968995 0.0197967 0)
(0.583057 0.00625426 0)
(0.117667 0.000229142 0)
(0.114633 -0.000150892 0)
(0.772536 -0.00937126 0)
(1.05189 -0.0194079 0)
(1.10742 -0.0215117 0)
(1.08751 -0.019086 0)
(1.06726 -0.0159031 0)
(1.05337 -0.0122532 0)
(1.04361 -0.00801308 0)
(1.03696 -0.00315059 0)
(1.03334 0.0023879 0)
(1.0336 0.00785943 0)
(1.03756 0.0124324 0)
(1.0448 0.016142 0)
(1.05577 0.0192229 0)
(1.0721 0.0218764 0)
(1.0955 0.0243091 0)
(1.09305 0.0244815 0)
(0.935371 0.0169358 0)
(0.54911 0.00514747 0)
(0.110328 0.000191875 0)
(0.109661 -0.000115742 0)
(0.742397 -0.00750951 0)
(1.03442 -0.0165742 0)
(1.10862 -0.0192022 0)
(1.09289 -0.0171055 0)
(1.07236 -0.0140456 0)
(1.05821 -0.0105306 0)
(1.04827 -0.00646693 0)
(1.04141 -0.00183112 0)
(1.03756 0.00341355 0)
(1.03759 0.0085243 0)
(1.04138 0.012692 0)
(1.04852 0.0159972 0)
(1.05951 0.0187211 0)
(1.07607 0.0210912 0)
(1.09846 0.0231865 0)
(1.08452 0.022643 0)
(0.903521 0.0146957 0)
(0.520578 0.00435369 0)
(0.104175 0.000165481 0)
(0.105795 -8.70336e-05 0)
(0.71723 -0.00600289 0)
(1.01733 -0.0140217 0)
(1.10899 -0.0169781 0)
(1.09816 -0.0151825 0)
(1.07733 -0.0121593 0)
(1.06287 -0.00871687 0)
(1.05272 -0.00477418 0)
(1.04565 -0.000310966 0)
(1.04153 0.00464716 0)
(1.04127 0.00937835 0)
(1.04481 0.013167 0)
(1.05179 0.0161211 0)
(1.0628 0.0185034 0)
(1.07962 0.0205861 0)
(1.10017 0.0223224 0)
(1.07416 0.021102 0)
(0.873648 0.0129685 0)
(0.496048 0.00378307 0)
(0.0988717 0.000147912 0)
(0.102845 -6.19231e-05 0)
(0.69643 -0.00472624 0)
(1.00122 -0.0116576 0)
(1.10859 -0.0147638 0)
(1.10317 -0.0132444 0)
(1.08223 -0.0102596 0)
(1.06745 -0.00683131 0)
(1.05705 -0.00293184 0)
(1.0497 0.00140495 0)
(1.04524 0.00612872 0)
(1.04461 0.0105255 0)
(1.04786 0.0139312 0)
(1.05468 0.0165153 0)
(1.06569 0.0185659 0)
(1.08268 0.0203563 0)
(1.10088 0.0216857 0)
(1.06225 0.0198053 0)
(0.845701 0.0116334 0)
(0.474503 0.00336956 0)
(0.0941679 0.000136224 0)
(0.100697 -3.85184e-05 0)
(0.679568 -0.00359034 0)
(0.986652 -0.00941615 0)
(1.10765 -0.0124379 0)
(1.10786 -0.0110605 0)
(1.08709 -0.00806701 0)
(1.07199 -0.00464042 0)
(1.06127 -0.000798793 0)
(1.05356 0.00341799 0)
(1.04868 0.0079308 0)
(1.0476 0.0119942 0)
(1.05051 0.0150061 0)
(1.05714 0.0171914 0)
(1.06813 0.0188742 0)
(1.08519 0.0203368 0)
(1.10059 0.0212652 0)
(1.04912 0.0187579 0)
(0.819507 0.010627 0)
(0.455178 0.00308 0)
(0.0898787 0.000130121 0)
(0.0992918 -1.51346e-05 0)
(0.666392 -0.00252518 0)
(0.973991 -0.0072193 0)
(1.10656 -0.00998816 0)
(1.11246 -0.00869157 0)
(1.09202 -0.00567227 0)
(1.07651 -0.00219867 0)
(1.06544 0.00166127 0)
(1.05735 0.00582218 0)
(1.05194 0.0101245 0)
(1.05033 0.0138219 0)
(1.05279 0.016405 0)
(1.05913 0.0181557 0)
(1.0701 0.0194562 0)
(1.0873 0.0206084 0)
(1.09929 0.0211181 0)
(1.03499 0.0179727 0)
(0.794812 0.00989279 0)
(0.437483 0.00288789 0)
(0.0858573 0.000128271 0)
(0.0986146 9.53146e-06 0)
(0.656784 -0.00147426 0)
(0.963562 -0.00498995 0)
(1.10551 -0.00734716 0)
(1.11695 -0.00611113 0)
(1.09702 -0.00307678 0)
(1.08113 0.000533006 0)
(1.06965 0.00449933 0)
(1.06102 0.00865207 0)
(1.05497 0.0128018 0)
(1.05269 0.0161679 0)
(1.05465 0.018317 0)
(1.06067 0.0196371 0)
(1.07153 0.0205163 0)
(1.08869 0.0212621 0)
(1.09684 0.0212183 0)
(1.01988 0.017411 0)
(0.771329 0.0093759 0)
(0.42094 0.00277383 0)
(0.0819727 0.000130156 0)
(0.0986891 2.86452e-05 0)
(0.650744 -0.000381173 0)
(0.955758 -0.00265988 0)
(1.1049 -0.00438143 0)
(1.12145 -0.00302197 0)
(1.10221 0.000117328 0)
(1.08591 0.00386499 0)
(1.07391 0.00790694 0)
(1.06466 0.0120755 0)
(1.05785 0.0160813 0)
(1.05473 0.0190767 0)
(1.056 0.0207128 0)
(1.06162 0.0214706 0)
(1.07238 0.0217965 0)
(1.08934 0.0221185 0)
(1.09304 0.0215696 0)
(1.00399 0.017102 0)
(0.748803 0.00908286 0)
(0.40515 0.00273578 0)
(0.0781304 0.000135083 0)
(0.0995903 7.08283e-05 0)
(0.648443 0.000777688 0)
(0.950904 -0.000169385 0)
(1.10521 -0.00111024 0)
(1.12631 0.000492415 0)
(1.10761 0.0037766 0)
(1.0908 0.00771985 0)
(1.07821 0.0119452 0)
(1.06818 0.0162092 0)
(1.06036 0.0200921 0)
(1.05626 0.0226927 0)
(1.05676 0.023797 0)
(1.06186 0.02397 0)
(1.07248 0.0237335 0)
(1.08897 0.0235097 0)
(1.08789 0.0223006 0)
(0.987227 0.0171183 0)
(0.726834 0.00901035 0)
(0.389691 0.00277565 0)
(0.0742111 0.000144381 0)
(0.101466 9.84288e-05 0)
(0.65003 0.00197343 0)
(0.949275 0.00252951 0)
(1.10668 0.00255695 0)
(1.13156 0.00438193 0)
(1.11339 0.00790269 0)
(1.09609 0.0122012 0)
(1.08283 0.0167617 0)
(1.07192 0.0212133 0)
(1.06293 0.0250097 0)
(1.05759 0.0271954 0)
(1.05705 0.0277088 0)
(1.06146 0.0272412 0)
(1.07177 0.0264191 0)
(1.0875 0.025488 0)
(1.08123 0.0234513 0)
(0.969408 0.0174365 0)
(0.705061 0.00916523 0)
(0.374181 0.00288819 0)
(0.070115 0.00015641 0)
(0.104424 0.000147539 0)
(0.656189 0.00345803 0)
(0.951409 0.00552563 0)
(1.10979 0.006797 0)
(1.13732 0.00909422 0)
(1.11966 0.013013 0)
(1.1018 0.0177289 0)
(1.08762 0.0226486 0)
(1.07548 0.0273091 0)
(1.06498 0.0310444 0)
(1.05814 0.0327848 0)
(1.05649 0.0325876 0)
(1.06013 0.0313412 0)
(1.07003 0.0298021 0)
(1.08462 0.0281232 0)
(1.07272 0.0250942 0)
(0.950433 0.0182288 0)
(0.682969 0.00960229 0)
(0.358178 0.00308486 0)
(0.0657574 0.000169811 0)
(0.108766 0.000213022 0)
(0.667149 0.00516509 0)
(0.957646 0.00896014 0)
(1.11518 0.0116247 0)
(1.1441 0.0146386 0)
(1.12666 0.0191763 0)
(1.10809 0.0244198 0)
(1.09285 0.0297969 0)
(1.0793 0.0347625 0)
(1.06704 0.0384264 0)
(1.05834 0.0396119 0)
(1.05523 0.0386347 0)
(1.05781 0.0365143 0)
(1.06716 0.0341275 0)
(1.08024 0.0316648 0)
(1.06229 0.0275676 0)
(0.929861 0.0196703 0)
(0.659861 0.0104195 0)
(0.341092 0.00339336 0)
(0.0610316 0.000184933 0)
(0.114782 0.000297371 0)
(0.68346 0.00718851 0)
(0.968613 0.0129797 0)
(1.12328 0.0171384 0)
(1.15231 0.0209888 0)
(1.13467 0.0263387 0)
(1.11513 0.0323626 0)
(1.09854 0.0384456 0)
(1.08319 0.043853 0)
(1.0687 0.0474818 0)
(1.05782 0.0480593 0)
(1.05299 0.046158 0)
(1.05436 0.0430741 0)
(1.06306 0.0398002 0)
(1.07428 0.0364798 0)
(1.04957 0.0310765 0)
(0.907156 0.021931 0)
(0.634816 0.0117306 0)
(0.322142 0.00383941 0)
(0.0558032 0.00020331 0)
(0.122894 0.000413479 0)
(0.705813 0.00976547 0)
(0.984866 0.0178601 0)
(1.13452 0.0237609 0)
(1.16223 0.0286877 0)
(1.14403 0.035172 0)
(1.12328 0.0422888 0)
(1.10489 0.049276 0)
(1.08722 0.0551253 0)
(1.06998 0.0585502 0)
(1.05651 0.0582831 0)
(1.04969 0.0552729 0)
(1.04968 0.0511574 0)
(1.05754 0.0469434 0)
(1.06659 0.0425924 0)
(1.03421 0.0357428 0)
(0.881723 0.0251533 0)
(0.606639 0.0135436 0)
(0.30047 0.00441188 0)
(0.0499133 0.000225135 0)
(0.133797 0.000582425 0)
(0.735248 0.0132715 0)
(1.0074 0.0240641 0)
(1.14985 0.0320717 0)
(1.17466 0.0385256 0)
(1.15527 0.0466576 0)
(1.13281 0.055056 0)
(1.11197 0.0629226 0)
(1.0913 0.069056 0)
(1.07077 0.0720187 0)
(1.05428 0.0706148 0)
(1.04522 0.0662353 0)
(1.04374 0.0608567 0)
(1.05059 0.0555862 0)
(1.05689 0.0502291 0)
(1.01595 0.0418043 0)
(0.852623 0.0293916 0)
(0.574057 0.0158001 0)
(0.275346 0.00507828 0)
(0.0432435 0.000249588 0)
(0.148673 0.000849503 0)
(0.773521 0.0183506 0)
(1.0377 0.0323985 0)
(1.17035 0.0430087 0)
(1.19063 0.0517182 0)
(1.16873 0.0616902 0)
(1.14361 0.0714265 0)
(1.11945 0.0800274 0)
(1.09507 0.086182 0)
(1.07065 0.0882983 0)
(1.05075 0.0853647 0)
(1.03926 0.0793156 0)
(1.03618 0.0724348 0)
(1.04211 0.0658845 0)
(1.04503 0.0594031 0)
(0.99412 0.0493074 0)
(0.818588 0.0344788 0)
(0.535945 0.0183378 0)
(0.246343 0.0057637 0)
(0.0357591 0.000271505 0)
(0.169664 0.00131654 0)
(0.823837 0.0262058 0)
(1.07847 0.0445947 0)
(1.19692 0.0583521 0)
(1.2106 0.0697469 0)
(1.18448 0.0815069 0)
(1.1555 0.0924502 0)
(1.12712 0.101427 0)
(1.09831 0.107105 0)
(1.06943 0.107825 0)
(1.0458 0.102929 0)
(1.03162 0.0949084 0)
(1.02689 0.0862696 0)
(1.03169 0.0782855 0)
(1.0305 0.0703714 0)
(0.967613 0.0580508 0)
(0.778446 0.0402278 0)
(0.491642 0.0209996 0)
(0.213564 0.00639152 0)
(0.0276063 0.000282956 0)
(0.200175 0.00236828 0)
(0.892009 0.0397255 0)
(1.13238 0.064551 0)
(1.22959 0.0816532 0)
(1.23416 0.095701 0)
(1.202 0.108669 0)
(1.16789 0.119975 0)
(1.13431 0.128381 0)
(1.10036 0.132538 0)
(1.0666 0.130892 0)
(1.03908 0.123279 0)
(1.02219 0.112904 0)
(1.01563 0.102384 0)
(1.01886 0.0928109 0)
(1.01229 0.0830269 0)
(0.935295 0.067854 0)
(0.731154 0.0464311 0)
(0.441418 0.0236838 0)
(0.178122 0.00695074 0)
(0.0192348 0.000278683 0)
(0.241895 0.00862939 6.25331e-20)
(0.982179 0.0670533 5.43147e-20)
(1.19731 0.0985413 -1.88032e-20)
(1.26581 0.116879 0)
(1.2586 0.133692 -4.59511e-34)
(1.21931 0.146087 6.66443e-21)
(1.17936 0.156073 -1.1698e-20)
(1.13991 0.162482 0)
(1.10028 0.163928 2.33312e-34)
(1.0612 0.158923 -1.38331e-20)
(1.0294 0.147829 0)
(1.0096 0.134656 -1.61255e-20)
(1.00096 0.122175 -4.73616e-20)
(1.00174 0.111216 -2.23096e-20)
(0.989035 0.100068 -6.685e-21)
(0.893432 0.0817947 -3.96308e-21)
(0.671222 0.0548314 0)
(0.382584 0.0274089 2.776e-21)
(0.140839 0.00837025 3.2795e-21)
(0.0113913 0.000503481 5.90272e-20)
(0.270665 0.0241087 4.98293e-20)
(1.05629 0.10969 5.19697e-22)
(1.2502 0.147209 5.20718e-21)
(1.29904 0.16592 0)
(1.28026 0.182281 -2.39725e-20)
(1.23432 0.192867 -2.6844e-20)
(1.18842 0.20078 -1.19706e-20)
(1.1428 0.204803 -4.16456e-20)
(1.09698 0.203429 0)
(1.05171 0.195089 5.91452e-20)
(1.01446 0.18064 5.81239e-20)
(0.990696 0.164677 1.71771e-20)
(0.979497 0.150089 6.20518e-20)
(0.976719 0.137629 8.66309e-20)
(0.953406 0.124052 0)
(0.836319 0.100509 1.21862e-19)
(0.60097 0.0660355 1.74999e-19)
(0.323337 0.0329908 1.94466e-19)
(0.107966 0.0103633 -2.22488e-19)
(0.00495711 0.000492706 -4.17608e-21)
(0.271049 0.0397093 0)
(1.10256 0.1651 9.72308e-21)
(1.28611 0.207148 0)
(1.32516 0.225803 -3.39177e-20)
(1.29752 0.238818 0)
(1.2458 0.245929 -5.39195e-20)
(1.19415 0.250298 2.47393e-20)
(1.14262 0.250831 -8.49632e-20)
(1.09092 0.246002 -1.56605e-21)
(1.03982 0.234354 3.08626e-20)
(0.997411 0.217329 1.2772e-19)
(0.969768 0.199713 -3.01761e-22)
(0.955772 0.183967 -4.51012e-20)
(0.948936 0.169585 -8.18049e-20)
(0.915987 0.151499 9.68358e-20)
(0.792078 0.12161 -1.71381e-19)
(0.563318 0.0805208 -2.26336e-20)
(0.302659 0.0415852 0)
(0.102583 0.0137482 5.67302e-24)
(0.00443298 0.000642905 0)
(0.264305 0.0532325 1.50643e-19)
(1.12684 0.223682 -7.00247e-20)
(1.30866 0.271768 -4.92641e-20)
(1.34267 0.290453 1.66679e-20)
(1.30888 0.299568 -2.77068e-20)
(1.25264 0.302446 1.13728e-19)
(1.19613 0.302559 5.20075e-20)
(1.13956 0.299075 0)
(1.08278 0.290576 -1.57303e-19)
(1.02664 0.275726 0)
(0.979684 0.256419 -6.73989e-20)
(0.948251 0.237253 -8.22469e-20)
(0.930377 0.219806 -4.91752e-20)
(0.91766 0.202268 -5.94626e-20)
(0.878475 0.179785 0)
(0.759253 0.145391 0)
(0.546681 0.0997543 -1.48219e-19)
(0.304358 0.0546395 2.92761e-20)
(0.110382 0.0197232 -1.71777e-20)
(0.00696403 0.00132219 -2.0083e-20)
(0.256598 0.0652361 -7.73134e-20)
(1.13679 0.281988 0)
(1.32119 0.337258 1.09477e-19)
(1.35247 0.356273 4.90256e-20)
(1.31439 0.361538 6.26355e-20)
(1.25466 0.360004 0)
(1.19432 0.355779 5.1938e-20)
(1.13373 0.348272 9.48975e-20)
(1.0728 0.336109 8.12771e-20)
(1.01236 0.317966 1.45263e-19)
(0.961395 0.295836 0)
(0.926142 0.274177 -1.77562e-19)
(0.903687 0.25409 -1.06361e-19)
(0.884929 0.233544 -6.27054e-20)
(0.842787 0.208392 3.83552e-19)
(0.733485 0.172098 4.57021e-20)
(0.539196 0.122411 2.15261e-19)
(0.313035 0.0708015 -1.01716e-18)
(0.123131 0.0280675 6.03889e-19)
(0.0110814 0.002669 -7.27823e-19)
(0.249338 0.0760733 -5.82921e-20)
(1.13754 0.338194 1.46818e-20)
(1.3261 0.401636 -1.39417e-20)
(1.35593 0.4215 -5.65099e-20)
(1.31484 0.423024 -5.69295e-20)
(1.2524 0.417154 1.75442e-21)
(1.18913 0.408819 -5.61312e-20)
(1.12538 0.397509 9.8859e-20)
(1.06103 0.381771 -1.74841e-19)
(0.996877 0.360061 0)
(0.942179 0.334406 -8.08581e-20)
(0.90323 0.309483 -1.61384e-21)
(0.876346 0.286441 -1.16127e-19)
(0.852896 0.26364 0)
(0.810558 0.237193 -8.29976e-20)
(0.711244 0.199956 -1.97461e-19)
(0.533881 0.14655 5.28792e-19)
(0.322205 0.0885841 -5.1974e-19)
(0.135342 0.0376517 7.39507e-19)
(0.0150288 0.00437936 -7.6842e-19)
(0.243319 0.0861104 -4.09418e-22)
(1.1326 0.391653 -1.13391e-20)
(1.32537 0.464028 -4.92352e-20)
(1.35422 0.484943 2.575e-20)
(1.31108 0.483055 -2.92186e-20)
(1.24668 0.473152 0)
(1.18117 0.461056 -5.39379e-20)
(1.11489 0.446217 -1.03936e-19)
(1.04762 0.426979 -9.13358e-20)
(0.980086 0.401456 0)
(0.921888 0.371833 -8.42459e-20)
(0.879514 0.343435 -1.03211e-19)
(0.848995 0.317692 1.25739e-19)
(0.822385 0.293274 -7.60004e-20)
(0.780794 0.266129 -3.61236e-19)
(0.690523 0.227897 2.15816e-19)
(0.52751 0.171118 6.46422e-20)
(0.32822 0.106737 0)
(0.144605 0.0475605 -7.13523e-19)
(0.01825 0.00621485 -2.61498e-20)
(0.238622 0.095675 -5.13379e-21)
(1.12428 0.442257 9.36246e-21)
(1.32045 0.524085 2.50135e-20)
(1.34848 0.545981 8.73784e-20)
(1.30395 0.541096 -1.13484e-19)
(1.23822 0.527597 1.17611e-19)
(1.17106 0.512136 1.15862e-19)
(1.10267 0.494035 -1.66129e-19)
(1.03279 0.471377 5.50339e-20)
(0.962091 0.441909 -3.57012e-19)
(0.900616 0.408196 -9.45696e-20)
(0.855278 0.376402 0)
(0.822019 0.348285 1.36034e-19)
(0.793507 0.322595 1.62298e-19)
(0.753011 0.294963 1.93945e-19)
(0.668998 0.255323 -2.33585e-19)
(0.518246 0.195241 -6.91436e-20)
(0.329034 0.124192 8.13605e-20)
(0.14925 0.0567295 0)
(0.0202528 0.0078672 -5.65831e-20)
(0.235152 0.104936 3.21639e-20)
(1.11425 0.490186 -2.85449e-20)
(1.31263 0.581909 -2.49855e-20)
(1.33965 0.604318 5.69164e-20)
(1.29418 0.596866 -5.45438e-20)
(1.22767 0.580225 -4.04642e-21)
(1.15926 0.561807 -1.25833e-19)
(1.08907 0.540702 -5.99004e-20)
(1.0168 0.514722 -1.58242e-19)
(0.943098 0.481331 2.52228e-22)
(0.878569 0.443579 -2.96773e-19)
(0.830696 0.40852 2.47005e-19)
(0.795429 0.378148 -1.48722e-19)
(0.765814 0.351099 1.77966e-19)
(0.726382 0.322385 0)
(0.647225 0.280806 -1.26111e-19)
(0.505857 0.217287 -6.03849e-22)
(0.324875 0.139453 -3.53045e-19)
(0.14898 0.0641092 -5.19103e-20)
(0.0208921 0.00906351 0)
(0.232772 0.114044 0)
(1.10356 0.535689 -2.69606e-20)
(1.30263 0.636723 -4.19448e-20)
(1.3285 0.659808 -5.60428e-20)
(1.28244 0.650199 -6.47136e-20)
(1.21554 0.630886 0)
(1.1462 0.609866 -5.94335e-20)
(1.07444 0.585997 -1.14699e-21)
(0.999927 0.556853 3.38699e-19)
(0.923362 0.519671 -4.92644e-20)
(0.855966 0.478015 -2.13836e-19)
(0.805879 0.439763 1.28861e-19)
(0.769095 0.40709 -2.07315e-21)
(0.738767 0.378467 1.89146e-19)
(0.700094 0.34822 1.16161e-19)
(0.624624 0.304139 -2.71943e-19)
(0.490525 0.236586 3.22604e-19)
(0.315826 0.151849 9.53983e-20)
(0.144858 0.069245 3.93642e-19)
(0.0203953 0.00970414 -1.05297e-18)
(0.231423 0.123118 -5.0697e-22)
(1.0929 0.578931 -6.39182e-21)
(1.29137 0.688623 1.01742e-20)
(1.31574 0.712416 5.16518e-20)
(1.26929 0.70099 0)
(1.2023 0.679445 -5.88216e-20)
(1.13224 0.656153 1.96985e-19)
(1.05906 0.629757 1.32062e-19)
(0.982447 0.59765 0)
(0.903132 0.556889 -7.05044e-19)
(0.832996 0.511488 5.76664e-19)
(0.780899 0.470062 0)
(0.742872 0.434938 1.72851e-19)
(0.712068 0.404465 -2.04147e-21)
(0.673938 0.372297 -3.70426e-19)
(0.600974 0.325192 1.45166e-19)
(0.47201 0.252751 0)
(0.302495 0.160983 5.13715e-19)
(0.13706 0.0719913 0)
(0.018835 0.00974035 -4.96795e-19)
(0.230899 0.132247 3.89349e-21)
(1.0827 0.620082 1.06511e-21)
(1.27933 0.737672 1.26131e-20)
(1.30192 0.762167 0)
(1.25522 0.749223 -6.13513e-20)
(1.18831 0.725824 0)
(1.1177 0.700537 -1.98196e-19)
(1.04323 0.671856 -6.30816e-20)
(0.964633 0.637034 6.0416e-20)
(0.882661 0.592967 -3.48437e-19)
(0.809823 0.543996 5.97774e-20)
(0.755772 0.499365 0)
(0.716643 0.461593 -3.68858e-19)
(0.685444 0.42893 2.06794e-21)
(0.647634 0.394358 0)
(0.576252 0.343603 2.07543e-21)
(0.450628 0.26541 4.67935e-19)
(0.285376 0.166442 -4.4331e-19)
(0.126434 0.0724106 1.30633e-19)
(0.0166129 0.00930209 0)
(0.23085 0.14128 0)
(1.0732 0.659237 7.30447e-21)
(1.26683 0.784016 -4.17399e-21)
(1.28754 0.809096 -2.3994e-21)
(1.24064 0.794896 -2.56962e-20)
(1.17391 0.769966 -1.32192e-19)
(1.10285 0.742939 7.31903e-20)
(1.02721 0.712212 -7.28235e-20)
(0.946736 0.674949 2.67377e-19)
(0.862163 0.627896 -5.56206e-19)
(0.786587 0.575554 -3.52297e-21)
(0.730531 0.527674 -1.62761e-19)
(0.690286 0.487026 5.97066e-19)
(0.658696 0.451833 -2.42004e-21)
(0.620958 0.414387 -2.86255e-19)
(0.550274 0.359274 -5.11538e-19)
(0.426725 0.274575 0)
(0.265161 0.168371 0)
(0.1136 0.0705233 1.4105e-19)
(0.013981 0.00839366 -8.25861e-20)
(0.231414 0.150348 1.25148e-20)
(1.06439 0.696236 -2.30959e-20)
(1.25423 0.827749 4.13771e-21)
(1.27295 0.853275 0)
(1.22585 0.838042 -1.56509e-21)
(1.15936 0.811842 -1.27586e-19)
(1.08794 0.783309 1.81139e-19)
(1.01124 0.750779 2.91311e-19)
(0.928982 0.711375 3.48707e-19)
(0.841848 0.661684 -4.54951e-19)
(0.76344 0.606211 -4.93553e-19)
(0.705203 0.555063 4.34963e-19)
(0.663727 0.51129 0)
(0.631664 0.473188 -1.29971e-19)
(0.593775 0.432343 -3.09369e-19)
(0.523076 0.372097 -3.66916e-19)
(0.400511 0.280058 -4.3577e-19)
(0.242531 0.166803 1.28881e-19)
(0.0991367 0.0663721 -7.5825e-20)
(0.0110063 0.00705619 2.86704e-22)
(0.23209 0.159334 0)
(1.05636 0.731635 0)
(1.24176 0.868998 2.5587e-21)
(1.25841 0.89482 0)
(1.2111 0.878726 7.29799e-20)
(1.14488 0.851465 9.21354e-20)
(1.07316 0.821629 0)
(0.995491 0.787537 3.54239e-20)
(0.911566 0.746299 5.83434e-19)
(0.821908 0.694346 -1.04445e-18)
(0.740538 0.636038 0)
(0.679859 0.581653 -2.79317e-19)
(0.6369 0.5345 -2.93659e-21)
(0.604205 0.493033 -2.37938e-21)
(0.565964 0.448156 3.30285e-19)
(0.494674 0.381929 -3.72026e-22)
(0.372062 0.281784 -9.37234e-19)
(0.21784 0.161699 2.77103e-19)
(0.0840886 0.0604708 8.1888e-20)
(0.00802475 0.00547515 0)
(0.232801 0.168169 -6.78416e-20)
(1.0488 0.765397 -2.6081e-20)
(1.22949 0.907822 -1.55895e-20)
(1.2441 0.933848 -4.26242e-20)
(1.1966 0.917005 1.13814e-19)
(1.13064 0.888865 0)
(1.05867 0.857913 1.12787e-19)
(0.980142 0.82249 -7.8054e-20)
(0.894654 0.779728 3.86336e-21)
(0.802524 0.725904 7.64634e-20)
(0.718039 0.665109 6.38052e-19)
(0.65458 0.607598 -9.80885e-20)
(0.609755 0.556837 -3.66759e-19)
(0.576139 0.511441 -1.50969e-19)
(0.537354 0.461681 1.79457e-19)
(0.465152 0.388458 -1.94308e-22)
(0.342274 0.279584 2.52506e-19)
(0.192365 0.153487 -5.95715e-19)
(0.0691237 0.0532602 7.04324e-19)
(0.0051859 0.00377575 1.02679e-19)
(0.233363 0.176725 2.83507e-20)
(1.04169 0.797617 -1.65023e-20)
(1.21753 0.944342 6.14837e-21)
(1.23016 0.970485 -1.06696e-20)
(1.18246 0.952975 -1.75284e-20)
(1.11676 0.92409 -1.658e-19)
(1.04461 0.892189 3.47745e-20)
(0.965318 0.855649 -3.2675e-19)
(0.878386 0.811658 -6.45212e-19)
(0.78384 0.756359 -6.2294e-19)
(0.696104 0.693493 0)
(0.62947 0.633061 -4.28362e-19)
(0.582273 0.578543 5.27136e-19)
(0.547237 0.528551 0)
(0.507642 0.472706 -3.8389e-19)
(0.434516 0.391162 2.29541e-19)
(0.311774 0.273125 -2.7112e-19)
(0.167312 0.142502 -3.20533e-19)
(0.0551514 0.0453006 -5.67128e-19)
(0.00266801 0.00210581 -4.42136e-19)
(0.234223 0.18513 -3.46176e-20)
(1.03486 0.828257 1.77125e-20)
(1.20594 0.978645 3.53312e-20)
(1.21667 1.00482 -5.2582e-21)
(1.1688 0.98672 4.10758e-20)
(1.10335 0.957211 -9.57675e-20)
(1.03107 0.924497 1.14359e-19)
(0.951119 0.887051 -3.38071e-19)
(0.862858 0.842108 -3.82418e-19)
(0.765985 0.785721 6.52445e-19)
(0.674878 0.721238 1.39877e-18)
(0.604676 0.658204 0)
(0.554482 0.599901 0)
(0.517217 0.544634 -1.73576e-19)
(0.476265 0.481048 0)
(0.402495 0.389174 4.93843e-19)
(0.281464 0.261545 5.83379e-19)
(0.144485 0.128811 0)
(0.043453 0.0371952 0)
(0.000643729 0.000662577 4.75055e-19)
(0.234704 0.193075 4.2221e-20)
(1.02832 0.857299 3.33176e-20)
(1.19474 1.01085 2.70571e-20)
(1.20368 1.03699 -7.27979e-21)
(1.15566 1.01834 3.63975e-20)
(1.09047 0.988295 1.07101e-19)
(1.01812 0.954893 -1.58348e-19)
(0.937615 0.916722 1.34327e-23)
(0.848154 0.871084 -5.00202e-21)
(0.749056 0.813981 -5.42462e-21)
(0.654529 0.748376 7.19822e-19)
(0.580382 0.683158 0)
(0.526488 0.621224 5.3107e-19)
(0.485835 0.56012 3.69724e-19)
(0.442348 0.486828 8.94056e-19)
(0.368148 0.381406 2.65491e-19)
(0.252035 0.242682 -3.14465e-19)
(0.127398 0.110517 -1.84689e-19)
(0.0386546 0.0283317 0)
(0.000535342 1.20027e-05 5.10333e-19)
(0.235457 0.201007 -1.01052e-19)
(1.02202 0.884855 0)
(1.18391 1.04101 3.84136e-20)
(1.1912 1.06707 -1.09528e-20)
(1.14311 1.04792 -2.72905e-20)
(1.07816 1.01742 -1.29334e-19)
(1.00582 0.983433 3.15926e-19)
(0.924851 0.9447 -2.70831e-20)
(0.834322 0.898597 0)
(0.733135 0.841111 -7.21221e-19)
(0.635209 0.774904 -1.56432e-18)
(0.556796 0.708027 6.31084e-20)
(0.498521 0.642795 7.29557e-19)
(0.453005 0.575589 0)
(0.404826 0.490766 6.01976e-19)
(0.32918 0.367363 0)
(0.221386 0.212498 0)
(0.119205 0.0763289 -2.00001e-19)
(0.060127 0.00758521 0)
(0.0268235 0.0108797 1.36762e-19)
(0.23581 0.208319 -1.17889e-19)
(1.0159 0.911214 0)
(1.17344 1.06933 6.93845e-20)
(1.17918 1.0953 0)
(1.13108 1.07573 9.39546e-21)
(1.06637 1.04488 0)
(0.9941 1.01043 1.7022e-20)
(0.91274 0.971328 4.67324e-20)
(0.821254 0.925014 4.78385e-20)
(0.71808 0.867506 -7.92089e-19)
(0.616775 0.801258 4.72313e-20)
(0.533761 0.7334 5.05252e-19)
(0.470324 0.665289 7.10498e-19)
(0.418088 0.591953 9.5425e-20)
(0.361925 0.494559 4.70576e-19)
(0.281131 0.348729 0)
(0.178198 0.169796 6.63519e-19)
(0.0913919 0.0178792 -3.88815e-19)
(0.0439115 0.0442328 4.50867e-19)
(-0.0689755 0.429077 -5.32148e-19)
(0.236124 0.215413 1.00502e-19)
(1.00971 0.936179 1.47314e-19)
(1.16323 1.09612 0)
(1.16748 1.12211 5.1213e-21)
(1.1194 1.10233 -1.41832e-20)
(1.05485 1.07135 1.91864e-19)
(0.982667 1.03669 1.14266e-19)
(0.900892 0.997551 0)
(0.808439 0.951428 3.21637e-19)
(0.703241 0.89446 -4.18503e-20)
(0.59834 0.828892 0)
(0.510145 0.761023 0)
(0.440421 0.690474 6.34286e-19)
(0.379391 0.610683 -2.93853e-19)
(0.310713 0.500954 -4.74808e-19)
(0.219188 0.330767 0)
(0.103359 0.158912 3.33894e-19)
(0.00699849 0.435587 -3.87135e-19)
(0.0359342 1.87431 -2.13631e-19)
(0.065936 2.80294 -2.72011e-19)
(0.236239 0.221648 -7.89806e-20)
(1.00365 0.959924 -1.95487e-19)
(1.15326 1.12136 4.50159e-20)
(1.15606 1.14735 2.55609e-20)
(1.10809 1.12749 0)
(1.04364 1.09654 1.2181e-19)
(0.971713 1.06189 1.62792e-19)
(0.889492 1.02294 -2.30559e-20)
(0.796138 0.977319 4.77224e-20)
(0.688991 0.921358 7.56605e-19)
(0.580502 0.857134 7.90117e-19)
(0.486922 0.790474 5.63654e-19)
(0.409842 0.718116 6.35596e-19)
(0.338824 0.630503 -6.8594e-19)
(0.257179 0.512851 -7.13968e-19)
(0.144925 0.359158 0)
(0.0511096 0.825892 0)
(0.107373 2.54081 1.85337e-19)
(0.108464 3.19445 0)
(0.111391 3.38531 4.47592e-19)
(0.238898 0.227316 0)
(0.998294 0.982623 0)
(1.14332 1.14492 0)
(1.14469 1.17082 9.84727e-21)
(1.09684 1.15099 -8.04112e-21)
(1.03254 1.12031 7.49573e-20)
(0.961137 1.08594 1.07155e-19)
(0.878498 1.04738 -2.2758e-20)
(0.784319 1.00256 4.06306e-19)
(0.675361 0.948061 -9.80221e-21)
(0.563413 0.885875 1.56169e-18)
(0.464465 0.821595 -6.45515e-20)
(0.378995 0.749073 7.70156e-20)
(0.298811 0.648747 9.86418e-20)
(0.195394 0.532713 -2.16767e-21)
(0.111345 0.958181 1.79646e-21)
(0.148601 2.69876 -9.61513e-19)
(0.158996 3.28785 -3.64602e-19)
(0.146363 3.42583 1.91265e-19)
(0.132012 3.44874 -2.13902e-19)
(0.156741 0.18383 4.94649e-20)
(0.987698 1.00704 0)
(1.13313 1.16703 -1.01902e-19)
(1.13388 1.19297 -8.21784e-20)
(1.08644 1.17361 1.61216e-20)
(1.02244 1.14334 -7.28061e-20)
(0.950843 1.10894 -1.13633e-19)
(0.868019 1.07102 2.65796e-19)
(0.773181 1.02726 -3.3544e-19)
(0.662677 0.974673 0)
(0.547505 0.915259 7.69264e-19)
(0.443357 0.854241 -4.59404e-19)
(0.348383 0.786297 0)
(0.258088 0.669559 9.16422e-20)
(0.162826 0.802637 2.19059e-19)
(0.163812 2.4602 -2.60684e-19)
(0.2263 3.32174 2.9427e-19)
(0.204026 3.44132 1.6031e-19)
(0.169191 3.46325 1.82256e-19)
(0.146137 3.47368 2.93174e-19)
(0.282257 0.266157 -8.78755e-20)
(0.972983 1.01717 0)
(1.11513 1.19207 1.17564e-19)
(1.11901 1.22507 1.05546e-19)
(1.06987 1.20683 -3.97263e-20)
(1.00537 1.17719 4.74857e-20)
(0.932956 1.14431 1.25727e-19)
(0.849525 1.10749 2.0584e-20)
(0.753379 1.0657 3.25871e-19)
(0.640212 1.01664 6.62263e-19)
(0.520139 0.963045 4.38935e-20)
(0.407684 0.90896 4.09114e-19)
(0.294728 0.84664 7.21666e-20)
(0.221995 0.970398 -9.02555e-20)
(0.238071 2.30826 -2.07446e-19)
(0.301976 3.32599 2.02991e-19)
(0.285779 3.47364 -2.26892e-19)
(0.248568 3.49551 -1.31868e-19)
(0.210128 3.52301 -1.15069e-19)
(0.157426 3.51638 -1.3473e-20)
(0.270179 0.26301 0)
(0.970884 1.03988 3.89306e-20)
(1.10719 1.21531 -2.58163e-20)
(1.10893 1.24831 -1.43268e-20)
(1.05947 1.22996 -3.72331e-20)
(0.995107 1.20068 -3.96855e-20)
(0.922382 1.16798 -7.24712e-20)
(0.83883 1.13192 1.88331e-20)
(0.742303 1.09151 -3.42767e-19)
(0.628115 1.04508 -1.42609e-20)
(0.505826 0.995989 -1.39936e-18)
(0.389775 0.947597 5.80749e-20)
(0.282843 0.914031 -6.83992e-20)
(0.26235 1.4746 -8.4059e-20)
(0.339132 3.0847 1.78428e-20)
(0.361934 3.47169 8.49641e-22)
(0.320953 3.53075 3.39512e-19)
(0.28258 3.55521 1.70176e-19)
(0.232267 3.57917 -4.99233e-20)
(0.171791 3.57476 -6.66382e-20)
(0.253757 0.261331 1.0318e-19)
(0.967191 1.06524 2.70691e-19)
(1.09879 1.24067 -7.4847e-20)
(1.09831 1.27294 -5.41261e-20)
(1.04858 1.25444 0)
(0.984418 1.2253 -2.09517e-20)
(0.911675 1.19287 -8.96059e-20)
(0.828278 1.15752 1.69728e-20)
(0.731684 1.11856 -3.78533e-20)
(0.616978 1.07496 -6.09132e-19)
(0.493255 1.03065 -6.50162e-19)
(0.375404 0.988709 -4.81655e-19)
(0.284642 1.04146 -5.16733e-19)
(0.330802 2.16056 5.32869e-19)
(0.426365 3.37614 4.53098e-19)
(0.406774 3.53237 0)
(0.359689 3.57692 0)
(0.322022 3.61893 -3.98107e-20)
(0.26841 3.67955 0)
(0.183845 3.65456 -5.24971e-20)
(0.24282 0.263078 -1.59699e-19)
(0.9615 1.09167 -2.36242e-19)
(1.08902 1.26722 0)
(1.08642 1.29839 6.11934e-21)
(1.0365 1.27953 -5.88948e-20)
(0.972633 1.25039 -4.51425e-21)
(0.9002 1.21823 -4.84676e-20)
(0.817158 1.18352 1.18e-20)
(0.720738 1.14592 -2.51961e-19)
(0.605913 1.10511 3.12994e-20)
(0.481586 1.0657 0)