/*--------------------------------*- C++ -*----------------------------------*\
| =========                 |                                                 |
| \\      /  F ield         | OpenFOAM: The Open Source CFD Toolbox           |
|  \\    /   O peration     | Version:  2112                                  |
|   \\  /    A nd           | Website:  www.openfoam.com                      |
|    \\/     M anipulation  |                                                 |
\*---------------------------------------------------------------------------*/
FoamFile
{
    version     2.0;
    format      ascii;
    arch        "LSB;label=32;scalar=64";
    class       volScalarField;
    location    "3.5";
    object      Ma;
}
// * * * * * * * * * * * * * * * * * * * * * * * * * * * * * * * * * * * * * //

dimensions      [0 0 0 0 0 0 0];

internalField   nonuniform List<scalar> 
5250
(
2.99999
2.99996
2.99987
2.99973
2.99918
2.9984
2.99541
2.9904
2.9741
2.93764
2.8475
2.596
2.12728
1.14388
0.510577
0.287508
0.323825
0.330436
0.295962
0.241396
0.191363
0.151052
0.110873
0.0671869
0.0345318
2.99999
2.99997
2.99987
2.99974
2.9992
2.99843
2.99549
2.99056
2.97452
2.9387
2.84995
2.60254
2.13997
1.16254
0.521208
0.288326
0.32598
0.333613
0.29949
0.245892
0.197155
0.158304
0.120438
0.08169
0.0566564
2.99999
2.99997
2.99987
2.99975
2.99922
2.99848
2.99564
2.99089
2.97538
2.94089
2.85508
2.61663
2.16781
1.20522
0.54617
0.292922
0.333138
0.343081
0.309954
0.258554
0.212457
0.176546
0.142947
0.11114
0.0922416
2.99999
2.99997
2.99988
2.99976
2.99926
2.99855
2.99583
2.99137
2.97655
2.94437
2.86278
2.63842
2.21083
1.27338
0.584692
0.301835
0.345692
0.359208
0.327464
0.278937
0.235774
0.203167
0.173894
0.147381
0.131502
2.99999
2.99997
2.99989
2.99977
2.9993
2.99864
2.99605
2.99196
2.97798
2.94897
2.87275
2.66728
2.26826
1.36953
0.636706
0.318266
0.364974
0.382217
0.351788
0.306439
0.266013
0.236266
0.210648
0.188139
0.174047
2.99999
2.99997
2.9999
2.99979
2.99936
2.99875
2.99633
2.99265
2.97968
2.95426
2.88435
2.70098
2.33692
1.48932
0.701804
0.348178
0.394369
0.413382
0.383999
0.341544
0.303369
0.276402
0.254007
0.234853
0.222858
2.99999
2.99998
2.99991
2.99981
2.99942
2.99886
2.99664
2.99338
2.98145
2.95982
2.89607
2.73737
2.41068
1.65159
0.780145
0.392741
0.43554
0.453148
0.425479
0.385838
0.348858
0.323929
0.304949
0.290101
0.28212
3
2.99998
2.99992
2.99983
2.99947
2.99897
2.99694
2.99401
2.98296
2.96409
2.90523
2.76717
2.46458
1.76776
0.851266
0.429157
0.466327
0.483556
0.464881
0.432695
0.400295
0.379119
0.364771
0.356246
0.358019
3
2.99998
2.99993
2.99985
2.99952
2.99907
2.99722
2.99459
2.98433
2.96788
2.91318
2.79424
2.51107
1.86102
0.951512
0.487045
0.489408
0.502976
0.499148
0.476123
0.452775
0.438859
0.433145
0.438171
0.46367
3
2.99999
2.99994
2.99987
2.99959
2.99919
2.9976
2.99524
2.98648
2.97152
2.92366
2.81496
2.5628
1.95148
1.06053
0.55278
0.503409
0.520929
0.528742
0.517886
0.506168
0.501567
0.511074
0.545226
0.638823
3
2.99999
2.99996
2.99987
2.99974
2.99926
2.9984
2.99578
2.98985
2.97482
2.93539
2.84826
2.58621
2.10997
1.15101
0.628642
0.51393
0.53624
0.554528
0.556105
0.5561
0.566041
0.598546
0.675476
0.847108
3
2.99999
2.99995
2.9999
2.99969
2.99939
2.99822
2.99641
2.99011
2.97818
2.94344
2.85845
2.67049
2.15847
1.35256
0.721256
0.534626
0.556417
0.580949
0.592594
0.603527
0.627544
0.678934
0.777767
0.961581
3
2.99999
2.99996
2.99991
2.99973
2.99947
2.9984
2.99689
2.99085
2.98177
2.94926
2.88637
2.71876
2.31089
1.55462
0.827576
0.570662
0.588562
0.611789
0.62978
0.649076
0.684282
0.745669
0.845068
1.00254
3
3
2.99997
2.99993
2.99977
2.99955
2.99866
2.9974
2.9924
2.98493
2.9577
2.90902
2.76608
2.45363
1.77271
0.949042
0.629308
0.634522
0.651391
0.670563
0.692859
0.731795
0.796188
0.887156
1.01927
3
3
2.99998
2.99994
2.99982
2.99964
2.99892
2.99791
2.99387
2.98785
2.9662
2.92565
2.81476
2.53619
1.98412
1.06341
0.692687
0.672214
0.689779
0.710181
0.734342
0.772877
0.835283
0.91854
1.02995
3
3
2.99998
2.99996
2.99986
2.99972
2.99916
2.99837
2.99535
2.99041
2.9742
2.93922
2.85112
2.6122
2.16435
1.2473
0.795132
0.701188
0.717381
0.739332
0.769318
0.80702
0.863694
0.941318
1.03877
3
3
2.99999
2.99997
2.99989
2.99978
2.99932
2.99869
2.99614
2.99237
2.97883
2.95327
2.88122
2.69626
2.32824
1.49839
0.93139
0.742105
0.745503
0.766643
0.800162
0.839805
0.889872
0.958327
1.04444
3.00001
3
2.99999
2.99998
2.99991
2.99983
2.99948
2.99899
2.99702
2.99419
2.98352
2.96554
2.90952
2.77937
2.50009
1.83913
1.10721
0.815616
0.791457
0.80311
0.830723
0.869558
0.917587
0.976933
1.05102
3.00001
3
3
2.99998
2.99994
2.99987
2.99961
2.99924
2.99777
2.9956
2.98757
2.97402
2.93093
2.83343
2.61245
2.06018
1.27109
0.891645
0.834811
0.843264
0.864614
0.898228
0.941878
0.99607
1.06088
3.00001
3
3
2.99999
2.99997
2.99989
2.99977
2.99933
2.99867
2.99633
2.99213
2.97942
2.95014
2.87951
2.68485
2.31028
1.49898
1.01321
0.875593
0.876143
0.895976
0.926721
0.965514
1.01313
1.07053
3.00001
3.00001
3
2.99999
2.99998
2.99992
2.99983
2.99949
2.999
2.99707
2.99424
2.98384
2.96589
2.91124
2.78319
2.50897
1.87631
1.19445
0.941349
0.918924
0.93014
0.957752
0.994023
1.0344
1.0829
3.00001
3.00001
3
3
2.99998
2.99995
2.99985
2.99969
2.99911
2.99822
2.99495
2.9897
2.9719
2.93815
2.84428
2.62789
2.13231
1.38784
1.02377
0.955973
0.962324
0.984199
1.01799
1.05645
1.09962
3.00001
3.00001
3
3
2.99999
2.99996
2.99991
2.99974
2.99947
2.99848
2.99698
2.99153
2.98232
2.95306
2.88926
2.73595
2.35588
1.65497
1.15837
1.00852
0.998367
1.01064
1.03753
1.07462
1.1155
3.00001
3.00001
3.00001
3
2.99999
2.99998
2.99993
2.99985
2.99956
2.99912
2.99748
2.99499
2.98607
2.97078
2.92392
2.81946
2.58121
2.04612
1.34695
1.08115
1.0405
1.04537
1.06464
1.09465
1.13148
3.00001
3.00001
3.00001
3
3
2.99999
2.99995
2.9999
2.99969
2.99939
2.99823
2.99656
2.99029
2.98009
2.94721
2.8754
2.70978
2.27834
1.59625
1.18179
1.07777
1.07478
1.08905
1.11617
1.1508
3.00001
3.00001
3.00001
3.00001
3
2.99999
2.99997
2.99993
2.99979
2.99958
2.99878
2.99763
2.9932
2.9865
2.96286
2.92034
2.79881
2.53677
1.94987
1.35469
1.13661
1.10715
1.11418
1.13608
1.16739
3.00001
3.00001
3.00001
3.00001
3
3
2.99999
2.99995
2.99989
2.99967
2.99935
2.99815
2.99632
2.98994
2.97858
2.94498
2.86679
2.69668
2.24564
1.57466
1.22437
1.14763
1.14406
1.15793
1.18238
3.00001
3.00001
3.00001
3.00001
3
3
2.99999
2.99997
2.99993
2.99977
2.99956
2.9987
2.99749
2.99278
2.98578
2.96087
2.91633
2.79147
2.5143
1.93005
1.37652
1.19545
1.17441
1.18223
1.20357
3.00001
3.00001
3.00001
3.00001
3.00001
3
3
2.99998
2.99995
2.99986
2.99971
2.99916
2.99837
2.99534
2.99078
2.9746
2.94645
2.86345
2.68696
2.26568
1.61493
1.28678
1.21167
1.20794
1.21991
3.00001
3.00001
3.00001
3.00001
3.00001
3
3
2.99999
2.99997
2.99993
2.99978
2.99956
2.99875
2.99753
2.99308
2.98602
2.96259
2.91818
2.79883
2.53294
1.96396
1.44566
1.26439
1.23927
1.24268
3.00001
3.00001
3.00001
3.00001
3.00001
3.00001
3
3
2.99998
2.99996
2.99986
2.99972
2.99919
2.99844
2.99554
2.99125
2.97589
2.94957
2.87256
2.70538
2.32175
1.67896
1.35811
1.27585
1.2687
3.00001
3.00001
3.00001
3.00001
3.00001
3.00001
3
3
2.99999
2.99998
2.99992
2.99983
2.99951
2.99905
2.99729
2.99472
2.98541
2.97002
2.92277
2.81838
2.59569
2.06433
1.54054
1.33381
1.30197
3.00001
3.00001
3.00001
3.00001
3.00001
3.00001
3.00001
3
3
2.99998
2.99996
2.99988
2.99975
2.99929
2.9986
2.9961
2.99213
2.97888
2.95463
2.88657
2.7377
2.38176
1.79099
1.43757
1.33932
3.00001
3.00001
3.00001
3.00001
3.00001
3.00001
3.00001
3.00001
3
3
2.99997
2.99994
2.99982
2.99964
2.99899
2.998
2.99448
2.9888
2.97032
2.93618
2.84
2.64403
2.15835
1.63246
1.40477
3.00001
3.00001
3.00001
3.00001
3.00001
3.00001
3.00001
3.00001
3
3
2.99999
2.99997
2.99989
2.99979
2.99938
2.99879
2.99656
2.99331
2.98146
2.96202
2.90353
2.77819
2.49577
1.91545
1.53347
3.00001
3.00001
3.00001
3.00001
3.00001
3.00001
3.00001
3.00001
3.00001
3
3
2.99998
2.99994
2.99988
2.99964
2.99929
2.99799
2.99609
2.98908
2.97817
2.94262
2.87237
2.70234
2.30544
1.74304
3.00001
3.00001
3.00001
3.00001
3.00001
3.00001
3.00001
3.00001
3.00001
3
3
2.99999
2.99997
2.99992
2.99983
2.99951
2.99904
2.99732
2.99471
2.9857
2.97018
2.92458
2.82303
2.60699
2.09955
3.00001
3.00001
3.00001
3.00001
3.00001
3.00001
3.00001
3.00001
3.00001
3.00001
3
3
2.99999
2.99995
2.9999
2.99972
2.99944
2.99842
2.99694
2.99153
2.98291
2.9555
2.8981
2.767
2.42836
3.00001
3.00001
3.00001
3.00001
3.00001
3.00001
3.00001
3.00001
3.00001
3.00001
3.00001
3
2.99999
2.99998
2.99994
2.99987
2.99962
2.99925
2.99792
2.9959
2.98883
2.97709
2.94148
2.86734
2.69156
3.00001
3.00001
3.00001
3.00001
3.00001
3.00001
3.00001
3.00001
3.00001
3.00001
3.00001
3
3
2.99999
2.99997
2.99993
2.99978
2.99958
2.99879
2.99767
2.99348
2.9872
2.9658
2.92725
2.82581
3.00001
3.00001
3.00001
3.00001
3.00001
3.00001
3.00001
3.00001
3.00001
3.00001
3.00001
3.00001
3
3
2.99998
2.99996
2.99988
2.99976
2.99933
2.99869
2.99636
2.99281
2.98066
2.95999
2.89841
3.00001
3.00001
3.00001
3.00001
3.00001
3.00001
3.00001
3.00001
3.00001
3.00001
3.00001
3.00001
3.00001
3
3
2.99998
2.99995
2.99985
2.99969
2.99915
2.99831
2.99543
2.99074
2.97582
2.94867
3.00001
3.00001
3.00001
3.00001
3.00001
3.00001
3.00001
3.00001
3.00001
3.00001
3.00001
3.00001
3.00001
3
3
2.99999
2.99998
2.99992
2.99983
2.99953
2.99908
2.99744
2.99505
2.98647
2.97294
3.00001
3.00001
3.00001
3.00001
3.00001
3.00001
3.00001
3.00001
3.00001
3.00001
3.00001
3.00001
3.00001
3.00001
3
3
2.99999
2.99996
2.99991
2.99974
2.9995
2.99859
2.99727
2.99248
2.98512
3.00001
3.00001
3.00001
3.00001
3.00001
3.00001
3.00001
3.00001
3.00001
3.00001
3.00001
3.00001
3.00001
3.00001
3.00001
3
3
2.99998
2.99994
2.99988
2.99966
2.99933
2.99816
2.99638
2.99017
3.00001
3.00001
3.00001
3.00001
3.00001
3.00001
3.00001
3.00001
3.00001
3.00001
3.00001
3.00001
3.00001
3.00001
3.00001
3
3
2.99999
2.99997
2.99993
2.99979
2.99958
2.9988
2.99768
2.99346
3.00001
3.00001
3.00001
3.00001
3.00001
3.00001
3.00001
3.00001
3.00001
3.00001
3.00001
3.00001
3.00001
3.00001
3.00001
3.00001
3
3
2.99998
2.99995
2.99985
2.9997
2.99911
2.99824
2.995
3.00001
3.00001
3.00001
3.00001
3.00001
3.00001
3.00001
3.00001
3.00001
3.00001
3.00001
3.00001
3.00001
3.00001
3.00001
3.00001
3
3
2.99999
2.99995
2.9999
2.99969
2.99936
2.99825
2.99608
3.00001
3.00001
3.00001
3.00001
3.00001
3.00001
3.00001
3.00001
3.00001
3.00001
3.00001
3.00001
3.00001
3.00001
3.00001
3.00001
3
3
2.99999
2.99996
2.99988
2.99975
2.99927
2.99849
2.99584
3.00001
3.00001
3.00001
3.00001
3.00001
3.00001
3.00001
3.00001
3.00001
3.00001
3.00001
3.00001
3.00001
3.00001
3.00001
3.00001
3
3
2.99998
2.99996
2.99988
2.99975
2.99924
2.99849
2.9956
1.08743
1.2804
1.33917
1.30996
1.24114
1.16497
1.09279
1.0549
1.04882
1.05155
1.05305
1.05243
1.04989
1.04462
1.035
1.01852
0.988539
0.927584
0.803417
0.563894
0.292298
0.126361
0.0880212
0.169633
0.267012
0.351729
0.417742
0.464479
0.495607
0.516018
0.528847
0.535986
0.536709
0.526632
0.501416
0.45948
0.405372
0.345002
0.283857
0.221301
0.163162
0.10881
0.0611822
0.0306771
0.0545069
0.0923514
0.130934
0.167039
0.200273
0.230534
0.261334
0.292497
0.322297
0.349885
0.376655
0.401826
0.426611
0.449959
0.473113
0.494911
0.516679
0.537181
0.557773
0.577235
0.59679
0.61547
0.634086
0.652093
0.669938
0.687273
0.704465
0.721178
0.737779
0.753922
0.770003
0.785622
0.801257
0.816407
0.831642
0.846361
0.861226
0.87555
0.890053
0.904012
0.918164
0.931781
0.945609
0.958895
0.972451
0.985383
0.998678
1.01124
1.02422
1.03632
1.0488
1.06019
1.0716
1.0812
1.08922
1.09426
1.13237
1.25239
1.32152
1.36532
1.40824
1.44226
1.45513
1.45248
1.43994
1.42025
1.4016
1.3942
1.39308
1.39225
1.38906
1.38013
1.35709
1.3049
1.1948
0.981095
0.693342
0.497636
0.391716
0.305164
0.227563
0.154588
0.091107
0.0727556
0.126316
0.196232
0.251415
0.279153
0.287616
0.27373
0.242296
0.199317
0.151314
0.104665
0.0774753
0.0788629
0.110039
0.148005
0.186885
0.222366
0.256786
0.290012
0.323272
0.354557
0.384535
0.41156
0.438422
0.465501
0.492565
0.517205
0.541342
0.563847
0.586403
0.607511
0.628703
0.648618
0.668602
0.687509
0.706499
0.724552
0.742746
0.760064
0.777606
0.794267
0.811252
0.827318
0.843788
0.859338
0.875322
0.890435
0.905971
0.920701
0.93582
0.950181
0.964917
0.978892
0.993283
1.00687
1.02096
1.03417
1.04799
1.06089
1.07445
1.08707
1.1004
1.11275
1.12586
1.13797
1.15085
1.16266
1.17517
1.18634
1.19785
1.20735
1.21564
1.22059
1.1356
1.24445
1.34254
1.43595
1.521
1.58742
1.62186
1.62652
1.62236
1.60983
1.59196
1.57639
1.56682
1.56216
1.55875
1.55202
1.53727
1.50368
1.43245
1.2713
1.01693
0.806844
0.689758
0.611998
0.541233
0.471708
0.402331
0.331951
0.263569
0.196216
0.132643
0.0766259
0.0366574
0.0236471
0.0736232
0.123278
0.171838
0.217738
0.259559
0.295827
0.330346
0.362835
0.393681
0.422273
0.449881
0.476249
0.502638
0.527698
0.552199
0.574332
0.596004
0.617801
0.640608
0.661618
0.682207
0.701412
0.720815
0.739075
0.757618
0.775108
0.79283
0.809623
0.826617
0.842804
0.859231
0.874901
0.890892
0.906106
0.921707
0.936508
0.951701
0.966131
0.980911
0.995022
1.00946
1.02331
1.03749
1.05111
1.06507
1.07846
1.09215
1.10529
1.11864
1.1315
1.14452
1.15712
1.16993
1.18237
1.19506
1.20733
1.21987
1.23195
1.24429
1.25611
1.2681
1.27943
1.29053
1.30044
1.30857
1.31409
1.14411
1.25332
1.35276
1.44385
1.52482
1.59253
1.64547
1.68318
1.70492
1.71091
1.70977
1.70363
1.69302
1.68176
1.67334
1.66664
1.65684
1.6349
1.58936
1.48387
1.29307
1.04467
0.906653
0.843013
0.780845
0.718499
0.663353
0.60365
0.540146
0.476629
0.415805
0.364338
0.325818
0.310516
0.329526
0.369424
0.413786
0.455537
0.490945
0.518682
0.542831
0.564596
0.585409
0.60501
0.624348
0.643061
0.662094
0.680565
0.699214
0.716174
0.732799
0.749252
0.767461
0.785028
0.80226
0.818255
0.834589
0.850061
0.866076
0.881185
0.896865
0.91164
0.926902
0.941343
0.956143
0.970282
0.984692
0.9986
1.01273
1.02645
1.04036
1.05391
1.06757
1.08093
1.0943
1.10747
1.12056
1.13351
1.14641
1.15912
1.1719
1.1844
1.19707
1.20938
1.22196
1.23415
1.24656
1.25854
1.27072
1.28254
1.29453
1.3062
1.31801
1.32944
1.341
1.35197
1.36283
1.37255
1.38077
1.38615
1.14455
1.25163
1.34801
1.43543
1.51511
1.58608
1.64894
1.70152
1.74314
1.77067
1.7828
1.78345
1.78164
1.77577
1.76651
1.7569
1.74617
1.7302
1.69858
1.63603
1.49875
1.28242
1.09993
1.01198
0.955859
0.909869
0.862095
0.811616
0.758529
0.70159
0.644054
0.591618
0.544335
0.528032
0.545911
0.584324
0.626763
0.665371
0.694334
0.712839
0.725216
0.734986
0.745021
0.755214
0.766656
0.778202
0.790848
0.803345
0.816673
0.829148
0.841356
0.853205
0.867093
0.881719
0.896632
0.910435
0.924423
0.937689
0.951411
0.964636
0.978463
0.991771
1.00562
1.01877
1.0324
1.04534
1.05881
1.07171
1.08514
1.09803
1.11136
1.12416
1.13735
1.15002
1.1631
1.17565
1.18862
1.20102
1.21381
1.22603
1.23864
1.25079
1.2633
1.27546
1.28782
1.29989
1.31211
1.32405
1.33616
1.34793
1.35988
1.37145
1.38318
1.39451
1.40589
1.41686
1.42752
1.43746
1.44573
1.45147
1.14244
1.24093
1.33342
1.41821
1.49643
1.56735
1.63156
1.68761
1.73589
1.77495
1.80535
1.82504
1.8339
1.83461
1.83312
1.82785
1.81913
1.80562
1.78488
1.74416
1.6622
1.49597
1.27934
1.15509
1.09713
1.04973
1.00882
0.969742
0.92332
0.87079
0.814286
0.752715
0.69744
0.682505
0.701262
0.740149
0.785651
0.82487
0.853173
0.870616
0.877212
0.87815
0.878427
0.880777
0.884989
0.890486
0.897562
0.90529
0.914661
0.924138
0.933744
0.942553
0.952503
0.963581
0.976071
0.988159
1.00054
1.01245
1.02471
1.0365
1.04871
1.06067
1.07318
1.08554
1.09826
1.11064
1.12325
1.13547
1.14805
1.16029
1.17301
1.1853
1.19802
1.21017
1.22269
1.23467
1.24702
1.25895
1.27125
1.28326
1.29554
1.30745
1.31954
1.33128
1.34322
1.35482
1.36668
1.37819
1.38998
1.40137
1.41303
1.42426
1.43574
1.44677
1.45798
1.46869
1.47935
1.48912
1.49763
1.50324
1.13818
1.22994
1.31702
1.39824
1.4737
1.54356
1.60757
1.66598
1.71809
1.76426
1.80328
1.8351
1.85833
1.87275
1.87747
1.87719
1.87485
1.86889
1.8561
1.82911
1.77752
1.66574
1.4901
1.29629
1.20324
1.16371
1.1254
1.08637
1.04362
0.995899
0.929969
0.851535
0.793846
0.784951
0.807778
0.848394
0.89754
0.941547
0.970835
0.99011
0.999048
0.996639
0.989126
0.982365
0.97908
0.978221
0.980399
0.984145
0.989598
0.995866
1.00278
1.00918
1.01641
1.02469
1.03514
1.04604
1.05734
1.06835
1.07972
1.09086
1.10241
1.11372
1.12551
1.13711
1.14921
1.16111
1.17343
1.18543
1.19775
1.20972
1.222
1.23401
1.24637
1.25849
1.27088
1.28294
1.29521
1.30711
1.3193
1.33102
1.34315
1.3548
1.36692
1.37849
1.39044
1.40183
1.41348
1.42468
1.4361
1.44719
1.45852
1.46954
1.48082
1.49169
1.50279
1.51332
1.52387
1.5335
1.54207
1.5476
1.1343
1.21861
1.30011
1.3774
1.45001
1.51783
1.581
1.63929
1.69274
1.7411
1.78389
1.82132
1.85233
1.87726
1.89483
1.90502
1.90748
1.90607
1.90065
1.888
1.85763
1.7982
1.66506
1.48091
1.31791
1.24588
1.2114
1.17864
1.13398
1.07601
0.992813
0.901745
0.851973
0.850438
0.875509
0.919567
0.973701
1.02252
1.05464
1.07196
1.08241
1.08567
1.07925
1.06773
1.05781
1.05122
1.04813
1.04823
1.05087
1.05525
1.06097
1.06673
1.07298
1.07984
1.08867
1.09867
1.10944
1.12001
1.13104
1.14186
1.15321
1.16436
1.17601
1.18747
1.19938
1.21106
1.22313
1.23487
1.24695
1.25862
1.27066
1.28227
1.2943
1.30593
1.31798
1.3297
1.34181
1.3535
1.36544
1.37695
1.38867
1.39998
1.41153
1.4227
1.43421
1.44533
1.45682
1.46784
1.47917
1.48995
1.50101
1.51144
1.52222
1.53237
1.54295
1.5529
1.56314
1.57252
1.58109
1.58668
1.13373
1.21007
1.28572
1.35839
1.4276
1.49294
1.55415
1.61176
1.66477
1.71433
1.75891
1.79984
1.83542
1.86657
1.89239
1.91209
1.92573
1.93072
1.92961
1.92475
1.91196
1.8789
1.8117
1.66147
1.47165
1.33783
1.27847
1.23995
1.19252
1.11737
1.00746
0.910835
0.877928
0.885833
0.914924
0.964452
1.02323
1.07174
1.1065
1.12686
1.13843
1.14432
1.14509
1.13812
1.12606
1.11549
1.10751
1.10416
1.10398
1.10658
1.11137
1.11671
1.12264
1.1287
1.13641
1.14547
1.15607
1.16658
1.17763
1.1883
1.19951
1.21035
1.2217
1.2327
1.24422
1.25544
1.26716
1.27859
1.29049
1.30205
1.31402
1.32558
1.33746
1.3489
1.36069
1.37197
1.38354
1.39465
1.40616
1.4172
1.42871
1.43968
1.45112
1.46191
1.47317
1.48371
1.49477
1.50513
1.51604
1.52632
1.53709
1.54733
1.55789
1.56802
1.57828
1.58815
1.59796
1.60706
1.61538
1.62061
1.13545
1.20437
1.27405
1.34239
1.40784
1.47059
1.52959
1.58558
1.63797
1.68684
1.73251
1.77407
1.81261
1.84634
1.87691
1.90191
1.92326
1.93841
1.94623
1.94611
1.94173
1.92783
1.89312
1.81683
1.65423
1.46492
1.34785
1.28674
1.21903
1.11498
0.980353
0.896856
0.882263
0.897441
0.936667
0.992385
1.04968
1.09634
1.13207
1.15775
1.17446
1.18332
1.18768
1.18877
1.18417
1.17499
1.16582
1.15921
1.15631
1.15665
1.16004
1.16495
1.17128
1.17725
1.18438
1.19233
1.20228
1.21237
1.22318
1.2336
1.2446
1.25522
1.26637
1.27708
1.28825
1.29897
1.31013
1.32088
1.33211
1.34296
1.35432
1.36531
1.37681
1.3879
1.39935
1.41028
1.42156
1.43228
1.44336
1.4539
1.46482
1.47523
1.48607
1.49639
1.50715
1.51736
1.528
1.53805
1.54854
1.55844
1.5688
1.57857
1.58882
1.59846
1.60859
1.61804
1.62785
1.63671
1.64513
1.65032
1.13989
1.20163
1.26504
1.32869
1.39053
1.45034
1.50744
1.56155
1.61295
1.66121
1.70641
1.74897
1.7877
1.82427
1.85638
1.88633
1.91107
1.93325
1.94918
1.95907
1.95961
1.95479
1.94022
1.9011
1.81459
1.6436
1.4462
1.32568
1.22835
1.06744
0.92256
0.871709
0.873893
0.896568
0.943841
1.00401
1.05684
1.10085
1.13734
1.16774
1.19138
1.20836
1.21844
1.22557
1.22952
1.23087
1.22657
1.21988
1.21483
1.21235
1.21301
1.21645
1.22204
1.22795
1.23441
1.24094
1.2493
1.25832
1.26836
1.27795
1.28814
1.29781
1.30809
1.31796
1.32843
1.3385
1.34912
1.35932
1.37002
1.38028
1.39102
1.40138
1.41217
1.4225
1.43325
1.44355
1.45427
1.46451
1.47514
1.48525
1.49575
1.50571
1.51608
1.52591
1.53617
1.54592
1.55608
1.56577
1.57583
1.58546
1.59543
1.60499
1.61483
1.62429
1.63398
1.64326
1.65267
1.66137
1.66958
1.67468
1.14876
1.20295
1.26024
1.31823
1.37595
1.4321
1.4868
1.53887
1.58895
1.63622
1.68122
1.72332
1.76325
1.79985
1.83455
1.86551
1.89442
1.91913
1.94129
1.95798
1.96803
1.96827
1.96258
1.94438
1.8997
1.7907
1.61304
1.39196
1.20604
0.99264
0.858814
0.837276
0.849397
0.887361
0.943145
0.998377
1.04671
1.09053
1.13055
1.16754
1.1995
1.22592
1.2462
1.26103
1.27217
1.28126
1.28628
1.28571
1.28108
1.27555
1.27271
1.27225
1.27483
1.27892
1.28442
1.28928
1.2955
1.30245
1.31121
1.31983
1.32905
1.33777
1.34707
1.356
1.36559
1.37483
1.38466
1.39415
1.4042
1.41389
1.42413
1.43394
1.44414
1.45391
1.4641
1.47386
1.48407
1.49382
1.50402
1.51373
1.52386
1.53349
1.54353
1.55306
1.56301
1.57246
1.58231
1.59169
1.60142
1.61072
1.62034
1.62958
1.63913
1.6483
1.65778
1.66681
1.67611
1.6846
1.6928
1.69779
1.16023
1.20893
1.25974
1.31255
1.36566
1.41797
1.46916
1.5188
1.56651
1.61248
1.65608
1.69786
1.73713
1.77453
1.80924
1.84208
1.87201
1.89973
1.92466
1.94567
1.96364
1.9705
1.96857
1.95958
1.93386
1.87291
1.74083
1.49647
1.18697
0.901952
0.787355
0.786392
0.811347
0.863418
0.925513
0.981874
1.03397
1.08317
1.13073
1.17448
1.21461
1.24838
1.27699
1.29933
1.31679
1.32885
1.33857
1.34342
1.34476
1.34094
1.33558
1.33082
1.32881
1.32896
1.33167
1.33529
1.33963
1.34423
1.35083
1.3584
1.36685
1.37501
1.38363
1.39197
1.40084
1.40942
1.41855
1.42735
1.43672
1.44583
1.45544
1.46463
1.4743
1.48357
1.49334
1.50269
1.51253
1.5219
1.53173
1.54103
1.5508
1.55999
1.56972
1.57883
1.5885
1.59756
1.60715
1.61617
1.62563
1.6346
1.64393
1.65284
1.6621
1.67095
1.68018
1.68892
1.69804
1.70632
1.71443
1.71936
1.17147
1.21522
1.26176
1.30992
1.35891
1.40805
1.45597
1.50332
1.5485
1.59295
1.63476
1.6758
1.71397
1.75136
1.78567
1.81936
1.84952
1.87925
1.90497
1.92959
1.94956
1.9629
1.96342
1.95722
1.93778
1.89027
1.78212
1.57032
1.21183
0.869421
0.749027
0.769723
0.813862
0.876675
0.94346
1.00611
1.0631
1.1147
1.16138
1.20477
1.24446
1.28029
1.31076
1.33647
1.35622
1.37182
1.38259
1.39128
1.3959
1.39799
1.39551
1.38984
1.38372
1.37979
1.37819
1.37921
1.38197
1.38502
1.38924
1.3944
1.40159
1.40889
1.41687
1.42461
1.43283
1.44081
1.44934
1.45762
1.46657
1.47511
1.48423
1.49288
1.50211
1.51091
1.52028
1.52922
1.53871
1.54773
1.5573
1.56629
1.57588
1.58478
1.59434
1.60315
1.61262
1.62138
1.63073
1.63946
1.64866
1.65736
1.66646
1.67511
1.68416
1.69273
1.70177
1.71025
1.71919
1.72725
1.73527
1.74011
1.1853
1.22344
1.26547
1.30909
1.35393
1.39976
1.44493
1.48974
1.53318
1.57556
1.61637
1.65582
1.69352
1.73004
1.76422
1.79778
1.82828
1.85856
1.88519
1.91102
1.93232
1.94684
1.94742
1.94088
1.92146
1.87726
1.76973
1.599
1.32964
1.03195
0.86726
0.866671
0.897066
0.944669
1.00386
1.0601
1.11052
1.15499
1.19498
1.23277
1.26873
1.30232
1.33242
1.35913
1.38203
1.401
1.41572
1.42698
1.43521
1.4407
1.44281
1.44216
1.43785
1.43225
1.42687
1.42411
1.42296
1.42445
1.4271
1.43008
1.43473
1.44064
1.44809
1.45544
1.46334
1.47083
1.47885
1.48663
1.49496
1.50298
1.51156
1.5198
1.52865
1.53708
1.54614
1.55469
1.56391
1.57254
1.58185
1.59049
1.59982
1.60845
1.61774
1.62635
1.63553
1.64412
1.6532
1.66177
1.67077
1.67929
1.68823
1.69668
1.70557
1.71394
1.72276
1.73101
1.73971
1.74756
1.75542
1.76013
1.20071
1.23504
1.27182
1.312
1.3527
1.39457
1.43709
1.47897
1.52048
1.5611
1.60021
1.6389
1.67509
1.71138
1.74476
1.77813
1.80878
1.83872
1.86632
1.89141
1.91318
1.92306
1.92009
1.90984
1.88317
1.82014
1.69632
1.5264
1.38404
1.22387
1.04471
0.963711
0.962067
0.985447
1.02352
1.07395
1.12401
1.16885
1.20892
1.24597
1.28116
1.3141
1.34478
1.37264
1.39798
1.42015
1.4392
1.45425
1.46638
1.4756
1.48168
1.48413
1.48469
1.48201
1.47655
1.47088
1.46672
1.46445
1.46492
1.46673
1.46927
1.47266
1.47821
1.48494
1.49248
1.49972
1.50749
1.51495
1.52292
1.53052
1.53868
1.54651
1.55492
1.56297
1.5716
1.57978
1.58857
1.59682
1.60574
1.61405
1.62301
1.63137
1.64032
1.64871
1.65761
1.66603
1.67489
1.68329
1.69212
1.70047
1.70923
1.71751
1.72617
1.73438
1.74297
1.75108
1.75956
1.76727
1.77498
1.77961
1.21496
1.24706
1.28019
1.31602
1.35413
1.39215
1.43152
1.47107
1.50985
1.54904
1.58628
1.62373
1.65919
1.69408
1.72757
1.75968
1.79091
1.81976
1.84763
1.8713
1.88884
1.89136
1.88404
1.86464
1.81778
1.71802
1.57266
1.46765
1.40415
1.34221
1.23778
1.11916
1.05083
1.04005
1.0571
1.08465
1.12661
1.17173
1.21445
1.2531
1.28886
1.322
1.353
1.38183
1.40853
1.43285
1.4548
1.47366
1.48937
1.50179
1.51191
1.51882
1.5227
1.5239
1.52309
1.51891
1.51375
1.5088
1.50608
1.50481
1.50596
1.50781
1.51074
1.51498
1.52148
1.52841
1.53596
1.54322
1.55079
1.55803
1.56566
1.57304
1.58093
1.58854
1.59674
1.60458
1.613
1.62103
1.62956
1.63771
1.64626
1.65446
1.663
1.67116
1.67968
1.6878
1.69632
1.70444
1.71295
1.72107
1.72953
1.73763
1.74602
1.75407
1.76241
1.77037
1.77863
1.78622
1.79377
1.79841
1.23202
1.2617
1.29201
1.32283
1.35726
1.39288
1.42856
1.46582
1.50218
1.53907
1.57525
1.61054
1.64557
1.67901
1.71204
1.7434
1.77388
1.80243
1.82826
1.84943
1.8569
1.85129
1.836
1.80028
1.71633
1.58069
1.47605
1.43067
1.4153
1.39611
1.3594
1.29153
1.2049
1.13252
1.10834
1.11765
1.13638
1.16869
1.21014
1.25109
1.28944
1.325
1.35756
1.38785
1.41595
1.4421
1.46599
1.48773
1.50676
1.52301
1.53611
1.54735
1.55568
1.56101
1.56279
1.56342
1.56121
1.55646
1.55168
1.54761
1.54564
1.5457
1.54731
1.54929
1.55271
1.55792
1.56495
1.57184
1.57914
1.58599
1.59329
1.60026
1.60772
1.615
1.62272
1.63033
1.63828
1.64612
1.65422
1.66213
1.67034
1.67822
1.6865
1.69435
1.70264
1.71047
1.71873
1.72657
1.73477
1.7426
1.75075
1.75854
1.76663
1.77436
1.78241
1.79005
1.79803
1.80532
1.81265
1.81711
1.24357
1.27435
1.30411
1.33313
1.36299
1.39553
1.42877
1.46268
1.49735
1.53158
1.56614
1.60014
1.63344
1.66634
1.69801
1.72892
1.75813
1.78514
1.80817
1.81971
1.81672
1.80407
1.77313
1.70357
1.57588
1.46552
1.42065
1.41294
1.41886
1.4231
1.41825
1.39751
1.35139
1.2828
1.20826
1.1727
1.17098
1.18563
1.20951
1.24531
1.28436
1.32341
1.35873
1.39168
1.42175
1.44958
1.4753
1.49906
1.52072
1.54008
1.55694
1.57103
1.58307
1.59302
1.59936
1.60259
1.6038
1.60314
1.59952
1.59509
1.59028
1.58741
1.58594
1.58664
1.58813
1.59047
1.59483
1.60063
1.60748
1.6142
1.62139
1.62815
1.63537
1.64224
1.64966
1.65677
1.66442
1.67174
1.6796
1.68707
1.69505
1.70261
1.71063
1.71821
1.72622
1.73378
1.74175
1.74927
1.75719
1.76469
1.77256
1.78007
1.7879
1.79537
1.80317
1.81051
1.81825
1.82519
1.83233
1.83647
1.2608
1.28712
1.31595
1.34404
1.37218
1.40078
1.4313
1.46278
1.49469
1.52734
1.55933
1.59191
1.62372
1.65522
1.68587
1.71528
1.7431
1.76686
1.78148
1.78141
1.77
1.74214
1.68298
1.56174
1.44782
1.39771
1.39263
1.40471
1.42071
1.43866
1.4479
1.44797
1.43652
1.40592
1.35149
1.28613
1.24147
1.22782
1.23742
1.25439
1.28275
1.31901
1.35606
1.39202
1.42522
1.45521
1.48324
1.50901
1.53294
1.55453
1.57428
1.59159
1.60646
1.61899
1.62985
1.6376
1.64188
1.64329
1.64353
1.64148
1.63693
1.63233
1.62784
1.62566
1.62503
1.62609
1.62783
1.63082
1.636
1.64217
1.64917
1.65577
1.66278
1.66936
1.67645
1.68318
1.6905
1.69742
1.70494
1.71197
1.71962
1.72667
1.73438
1.74145
1.74916
1.75629
1.76397
1.77118
1.77881
1.78607
1.79368
1.80092
1.80853
1.81573
1.82331
1.83046
1.83796
1.84479
1.85169
1.85587
1.277
1.29767
1.3262
1.35407
1.38127
1.40909
1.43692
1.46584
1.49527
1.52548
1.55607
1.58616
1.61649
1.6462
1.67528
1.7024
1.72695
1.74306
1.74492
1.73434
1.70905
1.65449
1.54353
1.42633
1.37171
1.36569
1.37936
1.39862
1.42377
1.45035
1.46836
1.47648
1.4784
1.47349
1.45494
1.41707
1.36576
1.31495
1.29205
1.29203
1.30432
1.32409
1.35482
1.38934
1.42406
1.45703
1.48807
1.51632
1.54226
1.56624
1.58806
1.60797
1.62559
1.64103
1.65415
1.6656
1.67444
1.67977
1.68202
1.68248
1.68158
1.67814
1.6733
1.66845
1.66519
1.66342
1.66379
1.66492
1.66721
1.67109
1.67707
1.68316
1.68996
1.6964
1.70323
1.70966
1.71653
1.72306
1.73008
1.7367
1.74388
1.75059
1.75792
1.7647
1.7721
1.77893
1.78632
1.79317
1.80054
1.8074
1.81476
1.82166
1.82902
1.83596
1.84331
1.85022
1.85748
1.86405
1.87066
1.87467
1.30086
1.31445
1.33702
1.36466
1.39089
1.41706
1.44389
1.47095
1.49906
1.52679
1.55527
1.58411
1.61217
1.6401
1.66651
1.69044
1.70716
1.71012
1.69982
1.67614
1.62313
1.52336
1.40317
1.3433
1.3362
1.35021
1.37094
1.39928
1.42982
1.45745
1.48012
1.49664
1.50609
1.51092
1.51128
1.50255
1.47946
1.44013
1.39497
1.36213
1.34978
1.35696
1.37014
1.39142
1.42244
1.45551
1.48865
1.51936
1.54792
1.57428
1.59834
1.6206
1.6406
1.65875
1.67455
1.68841
1.70024
1.71003
1.7166
1.71989
1.72062
1.7205
1.71842
1.71402
1.70938
1.70468
1.70228
1.70129
1.70204
1.70348
1.70645
1.7109
1.71706
1.72319
1.72985
1.73606
1.74264
1.7488
1.75543
1.76169
1.76851
1.7749
1.78188
1.78838
1.79543
1.80198
1.80906
1.81564
1.82273
1.82931
1.83642
1.84301
1.8501
1.85669
1.86372
1.87022
1.87709
1.88316
1.88928
1.89284
1.32784
1.33341
1.35097
1.37635
1.40171
1.42629
1.45145
1.47688
1.50297
1.52983
1.55633
1.58317
1.6098
1.63494
1.65816
1.67478
1.678
1.66766
1.64477
1.59434
1.49986
1.37639
1.31158
1.30415
1.3188
1.34168
1.37183
1.40493
1.43457
1.46114
1.48533
1.5068
1.52459
1.53665
1.54537
1.54869
1.54754
1.53581
1.51035
1.474
1.43604
1.41528
1.41039
1.41899
1.43333
1.45675
1.487
1.51795
1.54911
1.57811
1.60473
1.62933
1.6518
1.67244
1.69097
1.70742
1.72167
1.73405
1.74457
1.75225
1.75673
1.75835
1.7585
1.75737
1.7541
1.74883
1.74392
1.7402
1.73846
1.73831
1.73914
1.74103
1.74486
1.75009
1.75629
1.76227
1.76867
1.77462
1.78092
1.78682
1.79319
1.79922
1.80579
1.81196
1.81868
1.82494
1.83174
1.83802
1.84485
1.85111
1.85792
1.86414
1.87091
1.87704
1.88369
1.88959
1.89595
1.90125
1.90661
1.90951
1.36163
1.35826
1.36741
1.3865
1.41251
1.43712
1.46102
1.4853
1.50957
1.53438
1.55953
1.58412
1.60797
1.62996
1.64586
1.64891
1.63805
1.6151
1.56573
1.47225
1.35224
1.28493
1.27646
1.29087
1.31397
1.34554
1.37946
1.40992
1.43783
1.46337
1.48861
1.51217
1.53442
1.55367
1.56873
1.57965
1.58813
1.59035
1.58739
1.57386
1.54789
1.51559
1.48488
1.4703
1.47057
1.4796
1.49435
1.51835
1.54775
1.57742
1.60658
1.63377
1.6589
1.68193
1.70313
1.72203
1.73912
1.75372
1.76686
1.77775
1.7867
1.79224
1.79501
1.7953
1.79483
1.79267
1.78814
1.78278
1.77795
1.77532
1.77413
1.77459
1.77581
1.77836
1.78291
1.78823
1.79438
1.80016
1.80632
1.81198
1.81811
1.82379
1.83006
1.83588
1.84229
1.8482
1.85464
1.86059
1.86705
1.87294
1.87941
1.88515
1.89159
1.8971
1.9033
1.90841
1.91396
1.91816
1.92232
1.92466
1.40548
1.38501
1.3866
1.39986
1.42133
1.44625
1.4696
1.49268
1.51601
1.53931
1.56283
1.58548
1.60588
1.62084