/*--------------------------------*- C++ -*----------------------------------*\
| =========                 |                                                 |
| \\      /  F ield         | OpenFOAM: The Open Source CFD Toolbox           |
|  \\    /   O peration     | Version:  2112                                  |
|   \\  /    A nd           | Website:  www.openfoam.com                      |
|    \\/     M anipulation  |                                                 |
\*---------------------------------------------------------------------------*/
FoamFile
{
    version     2.0;
    format      ascii;
    arch        "LSB;label=32;scalar=64";
    class       volScalarField;
    location    "3.5";
    object      p;
}
// * * * * * * * * * * * * * * * * * * * * * * * * * * * * * * * * * * * * * //

dimensions      [1 -1 -2 0 0 0 0];

internalField   nonuniform List<scalar> 
5250
(
1.00001
1.00004
1.00009
1.00027
1.00055
1.00158
1.0031
1.00963
1.0169
1.06236
1.10185
1.40431
1.83823
3.77841
8.41122
11.3771
11.1241
10.9662
11.0489
11.2671
11.4754
11.6008
11.6944
11.7666
11.8184
1.00001
1.00004
1.00009
1.00026
1.00054
1.00156
1.00305
1.00946
1.01662
1.06132
1.10009
1.39709
1.82247
3.72519
8.28552
11.3952
11.1293
10.9597
11.0426
11.2609
11.4689
11.5946
11.6895
11.7627
11.8159
1.00001
1.00004
1.00009
1.00025
1.00053
1.00151
1.00295
1.00914
1.01606
1.05914
1.09646
1.38178
1.78872
3.60987
8.0006
11.4332
11.1349
10.9352
11.0156
11.2303
11.4361
11.5604
11.6549
11.7282
11.7831
1.00001
1.00003
1.00008
1.00024
1.0005
1.00143
1.00283
1.00865
1.01539
1.05567
1.09142
1.35854
1.73778
3.43627
7.55725
11.4959
11.1456
10.8932
10.968
11.175
11.3779
11.4989
11.5911
11.6639
11.7217
1
1.00003
1.00008
1.00023
1.00047
1.00134
1.00267
1.00802
1.01462
1.05106
1.08515
1.32843
1.67178
3.21249
6.9633
11.5711
11.1595
10.8355
10.9018
11.0959
11.2956
11.4125
11.5004
11.5708
11.6323
1
1.00003
1.00007
1.00021
1.00044
1.00124
1.00249
1.00729
1.01368
1.04577
1.07788
1.29384
1.59643
2.95681
6.25457
11.6209
11.1684
10.7662
10.8189
10.9905
11.1841
11.2931
11.3729
11.4382
11.5037
1
1.00003
1.00007
1.00019
1.0004
1.00112
1.00228
1.00654
1.01265
1.04029
1.0702
1.25862
1.5129
2.69675
5.49477
11.547
11.1374
10.6841
10.7176
10.8538
11.0373
11.1337
11.1971
11.2472
11.311
1
1.00002
1.00006
1.00017
1.00036
1.00102
1.00207
1.00592
1.01161
1.03593
1.0643
1.22991
1.44932
2.52465
4.98275
11.1701
10.9828
10.5929
10.5938
10.6775
10.8422
10.9184
10.955
10.9733
11.0161
1
1.00002
1.00005
1.00016
1.00033
1.00092
1.00188
1.00534
1.01062
1.03198
1.05923
1.20426
1.3931
2.38948
4.46557
10.4309
10.7031
10.5137
10.4329
10.4825
10.5954
10.6361
10.6248
10.5709
10.5244
1
1.00002
1.00005
1.00014
1.00028
1.0008
1.00163
1.00468
1.00923
1.02834
1.05132
1.18335
1.33809
2.24636
4.02203
9.53973
10.5418
10.4099
10.2499
10.2622
10.3024
10.2868
10.1998
9.98265
9.63767
1
1.00001
1.00004
1.00009
1.00026
1.00052
1.0016
1.0028
1.01008
1.01625
1.06325
1.10358
1.41383
1.85669
3.84284
8.46414
10.4107
10.2988
10.0655
10.0146
9.98605
9.89144
9.6371
9.0391
7.52125
1
1.00001
1.00003
1.0001
1.00021
1.0006
1.00122
1.00353
1.00679
1.0217
1.03773
1.1395
1.24396
1.94016
3.16581
7.33554
10.3166
10.1865
9.89053
9.75951
9.67006
9.47853
9.07204
8.25287
6.67155
1
1.00001
1.00003
1.00009
1.00019
1.00053
1.00108
1.00307
1.00618
1.01798
1.03493
1.112
1.21054
1.74073
2.72864
6.07609
10.2058
10.07
9.73277
9.51068
9.35719
9.08889
8.58729
7.74222
6.45299
1
1.00001
1.00003
1.00008
1.00016
1.00045
1.00091
1.00256
1.00517
1.01483
1.02936
1.08922
1.17625
1.57291
2.33562
4.86887
9.89456
9.86522
9.60462
9.28458
9.06206
8.74735
8.23018
7.44841
6.40228
1
1.00001
1.00002
1.00006
1.00013
1.00036
1.00074
1.00207
1.00417
1.01198
1.02336
1.07343
1.13475
1.46975
2.06102
4.19411
9.05597
9.56737
9.40841
9.07709
8.80097
8.46219
7.96958
7.27032
6.39064
1
1.00001
1.00002
1.00005
1.0001
1.00028
1.00058
1.00162
1.00319
1.00962
1.01716
1.06101
1.10054
1.38926
1.79502
3.59473
7.61041
9.27083
9.18182
8.92535
8.58876
8.22998
7.7646
7.14107
6.38271
1
1.00001
1.00001
1.00004
1.00008
1.00023
1.00047
1.0013
1.00262
1.00756
1.01444
1.04686
1.08074
1.30031
1.60407
2.9689
6.06928
9.08691
9.04192
8.82315
8.42717
8.0489
7.60321
7.03995
6.37288
1
1
1.00001
1.00003
1.00006
1.00018
1.00036
1.001
1.00203
1.00575
1.01129
1.03449
1.06199
1.21716
1.42211
2.37607
4.38856
8.72105
8.92014
8.73875
8.33453
7.9089
7.47257
6.95998
6.36391
1
1
1.00001
1.00002
1.00005
1.00013
1.00027
1.00076
1.00153
1.00434
1.00854
1.02592
1.04678
1.16519
1.29778
2.08245
3.50359
7.71515
8.68544
8.56638
8.24867
7.79526
7.36129
6.88814
6.35497
1
1
1.00001
1.00001
1.00004
1.00008
1.00023
1.00046
1.00131
1.00255
1.00787
1.01369
1.04957
1.08126
1.31063
1.62384
2.99888
6.03752
8.4142
8.37508
8.16346
7.72145
7.27204
6.82477
6.3424
1
1
1.00001
1.00001
1.00003
1.00006
1.00018
1.00036
1.00099
1.00201
1.00568
1.01114
1.03407
1.06109
1.21309
1.41191
2.32894
4.23158
7.9567
8.24098
8.08498
7.70302
7.22239
6.78312
6.33352
1
1
1
1.00001
1.00002
1.00005
1.00011
1.00031
1.00062
1.00174
1.00351
1.01005
1.01982
1.06013
1.11551
1.37209
1.83895
3.3836
6.84757
7.99629
7.91881
7.66284
7.20073
6.75661
6.33056
1
1
1
1.00001
1.00002
1.00003
1.00009
1.00019
1.00052
1.00106
1.00297
1.00589
1.01752
1.03219
1.10896
1.19633
1.68675
2.54624
5.24824
7.67298
7.71218
7.57295
7.21607
6.75794
6.33259
1
1
1
1
1.00001
1.00003
1.00006
1.00015
1.00031
1.00087
1.00176
1.00492
1.00974
1.02894
1.05329
1.17712
1.34266
2.08922
3.53926
7.00334
7.59099
7.49199
7.21533
6.77316
6.34205
1
1
1
1
1.00001
1.00002
1.00004
1.00011
1.00022
1.0006
1.00122
1.0034
1.00672
1.01993
1.0361
1.12413
1.21712
1.78101
2.71165
5.55521
7.34103
7.32876
7.18706
6.83037
6.36952
1
1
1
1
1
1.00001
1.00003
1.00007
1.00015
1.00042
1.00085
1.00234
1.00471
1.01327
1.02628
1.07777
1.15417
1.47487
2.06595
3.80617
6.81944
7.22194
7.12646
6.86442
6.42095
1
1
1
1
1
1.00001
1.00002
1.00004
1.00012
1.00023
1.00064
1.0013
1.00362
1.00707
1.02133
1.03803
1.13127
1.23219
1.82017
2.80204
5.66664
7.00502
6.98915
6.8501
6.52003
1
1
1
1
1
1.00001
1.00001
1.00003
1.00008
1.00016
1.00044
1.0009
1.00248
1.005
1.01401
1.02771
1.08198
1.16069
1.49817
2.11448
3.90267
6.52386
6.88004
6.79761
6.56821
1
1
1
1
1
1
1.00001
1.00002
1.00005
1.00011
1.00029
1.00059
1.00161
1.00326
1.00906
1.01802
1.05217
1.10344
1.31042
1.68874
2.87888
5.43485
6.66083
6.66187
6.55407
1
1
1
1
1
1
1.00001
1.00001
1.00003
1.00008
1.00016
1.00044
1.00089
1.00243
1.00489
1.01368
1.02697
1.07971
1.15593
1.4774
2.06419
3.73073
6.17389
6.55882
6.50372
1
1
1
1
1
1
1
1.00001
1.00002
1.00005
1.0001
1.00028
1.00057
1.00155
1.00312
1.00862
1.01714
1.04927
1.09679
1.2898
1.63805
2.72169
5.05928
6.33149
6.39199
1
1
1
1
1
1
1
1.00001
1.00001
1.00003
1.00006
1.00017
1.00035
1.00094
1.00191
1.00521
1.01031
1.02989
1.05492
1.17865
1.33724
2.0271
3.3221
5.80357
6.28712
1
1
1
1
1
1
1
1
1.00001
1.00002
1.00005
1.00009
1.00025
1.00051
1.00138
1.00278
1.00769
1.01525
1.044
1.08632
1.25665
1.56456
2.51163
4.57728
6.00917
1
1
1
1
1
1
1
1
1
1.00001
1.00002
1.00006
1.00013
1.00036
1.00072
1.00196
1.00395
1.01091
1.02183
1.06157
1.12647
1.35681
1.79592
2.98775
5.34245
1
1
1
1
1
1
1
1
1
1.00001
1.00001
1.00004
1.00008
1.00022
1.00044
1.0012
1.00243
1.0066
1.01319
1.0373
1.07185
1.21856
1.44172
2.27135
3.93222
1
1
1
1
1
1
1
1
1
1
1.00001
1.00002
1.00005
1.00013
1.00026
1.0007
1.00143
1.00386
1.00775
1.02154
1.04169
1.12543
1.23979
1.72924
2.58147
1
1
1
1
1
1
1
1
1
1
1.00001
1.00001
1.00003
1.00007
1.00017
1.00035
1.00095
1.00192
1.00522
1.01029
1.02962
1.05445
1.17367
1.32811
1.96593
1
1
1
1
1
1
1
1
1
1
1
1.00001
1.00002
1.00004
1.0001
1.00021
1.00056
1.00112
1.00303
1.00602
1.01709
1.03148
1.10132
1.17804
1.58621
1
1
1
1
1
1
1
1
1
1
1
1
1.00001
1.00003
1.00005
1.00014
1.00028
1.00074
1.00149
1.00403
1.00807
1.02251
1.0431
1.12901
1.25375
1
1
1
1
1
1
1
1
1
1
1
1
1.00001
1.00001
1.00003
1.00008
1.00016
1.00043
1.00086
1.00231
1.00465
1.01263
1.02495
1.07129
1.1373
1
1
1
1
1
1
1
1
1
1
1
1
1
1.00001
1.00002
1.00004
1.00009
1.00024
1.00049
1.0013
1.00262
1.00706
1.01418
1.03881
1.07943
1
1
1
1
1
1
1
1
1
1
1
1
1
1
1.00001
1.00002
1.00006
1.00012
1.00031
1.00062
1.00166
1.00334
1.00902
1.01816
1.04941
1
1
1
1
1
1
1
1
1
1
1
1
1
1
1.00001
1.00001
1.00003
1.00006
1.00017
1.00035
1.00091
1.00185
1.0049
1.00981
1.02676
1
1
1
1
1
1
1
1
1
1
1
1
1
1
1
1.00001
1.00002
1.00004
1.00009
1.00019
1.0005
1.00102
1.0027
1.00542
1.0148
1
1
1
1
1
1
1
1
1
1
1
1
1
1
1
1
1.00001
1.00002
1.00005
1.00012
1.00025
1.00066
1.00134
1.00358
1.00718
1
1
1
1
1
1
1
1
1
1
1
1
1
1
1
1
1.00001
1.00001
1.00003
1.00008
1.00016
1.00042
1.00086
1.00232
1.00468
1
1
1
1
1
1
1
1
1
1
1
1
1
1
1
1
1
1.00001
1.00002
1.00006
1.00011
1.00031
1.00063
1.00178
1.00354
1
1
1
1
1
1
1
1
1
1
1
1
1
1
1
1
1
1.00001
1.00002
1.00004
1.00011
1.00022
1.00064
1.00122
1.00398
1
1
1
1
1
1
1
1
1
1
1
1
1
1
1
1
1
1.00001
1.00002
1.00004
1.00009
1.00025
1.00051
1.00153
1.00284
1
1
1
1
1
1
1
1
1
1
1
1
1
1
1
1
1
1.00001
1.00002
1.00004
1.00009
1.00026
1.00052
1.00154
1.003
3.13756
1.61144
1.0932
0.980658
1.00477
1.07939
1.23652
1.36531
1.40731
1.40582
1.4006
1.4007
1.40293
1.40968
1.4244
1.4508
1.49236
1.57734
1.75655
2.13944
2.87829
3.34156
3.41034
3.41946
3.371
3.31072
3.24527
3.20129
3.16555
3.14307
3.13407
3.13257
3.1482
3.19347
3.28223
3.41456
3.57343
3.73977
3.89877
4.04854
4.17695
4.28385
4.3694
4.44092
4.49938
4.54145
4.56648
4.58059
4.58406
4.58133
4.57132
4.55079
4.52399
4.49404
4.45992
4.42313
4.38299
4.34085
4.29624
4.25023
4.20246
4.15386
4.10418
4.0542
4.00374
3.9533
3.90274
3.8523
3.80188
3.75155
3.70126
3.65108
3.60096
3.551
3.50121
3.45167
3.40244
3.3536
3.3052
3.2573
3.20998
3.16328
3.11723
3.07187
3.02723
2.98327
2.94003
2.89742
2.85546
2.81409
2.77338
2.73327
2.69386
2.65522
2.61766
2.58131
2.54683
2.51524
2.48835
2.47101
3.79647
2.38699
1.77723
1.51581
1.39171
1.31312
1.28994
1.29652
1.31578
1.35595
1.40133
1.42341
1.42602
1.4273
1.43137
1.44353
1.47397
1.54528
1.69946
2.03619
2.74415
3.32531
3.43285
3.4121
3.35901
3.29415
3.24554
3.22114
3.18115
3.14728
3.12593
3.11905
3.13058
3.17733
3.26501
3.39294
3.54651
3.71034
3.86368
4.02166
4.15302
4.2622
4.35014
4.42344
4.48214
4.5253
4.55183
4.5672
4.5714
4.56968
4.56209
4.54419
4.51557
4.48539
4.45214
4.41606
4.37647
4.3347
4.29053
4.24491
4.19767
4.14948
4.1003
4.05065
4.00053
3.95029
3.89992
3.84959
3.79926
3.74902
3.69882
3.64872
3.59871
3.54883
3.49915
3.44969
3.40056
3.35177
3.30345
3.2556
3.20836
3.16169
3.11571
3.07037
3.02579
2.98184
2.93863
2.89601
2.85409
2.81279
2.77223
2.73223
2.69301
2.65439
2.61669
2.5801
2.54537
2.51341
2.48585
2.46819
4.60665
3.30346
2.47807
1.95428
1.61872
1.4104
1.28978
1.26833
1.27482
1.29433
1.33544
1.37761
1.40671
1.42194
1.42789
1.43805
1.45947
1.50827
1.61495
1.85226
2.36569
3.1762
3.39814
3.39085
3.35957
3.29634
3.24433
3.20239
3.16395
3.13779
3.12354
3.12038
3.13749
3.1739
3.24039
3.37011
3.52385
3.68441
3.84379
3.99701
4.12793
4.23756
4.32685
4.4005
4.45866
4.50236
4.53069
4.54719
4.55244
4.55128
4.54579
4.53181
4.50385
4.47304
4.44009
4.40473
4.36611
4.32504
4.28162
4.23663
4.19013
4.1426
4.09411
4.04501
3.99541
3.94553
3.89547
3.84534
3.7952
3.74509
3.69504
3.64506
3.5952
3.54546
3.49592
3.44659
3.39758
3.3489
3.30069
3.25295
3.20581
3.15924
3.11335
3.06816
3.0237
2.97984
2.9367
2.89419
2.85242
2.81118
2.77058
2.73056
2.69126
2.65263
2.61491
2.57825
2.54326
2.51088
2.48246
2.46382
5.04534
3.87333
3.00174
2.39238
1.9821
1.7052
1.52947
1.42084
1.35614
1.33582
1.33862
1.34876
1.37081
1.39986
1.42327
1.43943
1.45507
1.48649
1.55865
1.71116
2.05194
2.77564
3.30267
3.3779
3.36175
3.31516
3.25806
3.21269
3.17746
3.15632
3.14597
3.14777
3.16199
3.20201
3.27921
3.38723
3.5209
3.66671
3.811
3.95519
4.08477
4.19563
4.28724
4.36223
4.42144
4.46645
4.49705
4.51556
4.52292
4.52237
4.51891
4.50899
4.48731
4.45535
4.42194
4.38719
4.34984
4.30997
4.26775
4.22379
4.17832
4.13171
4.08412
4.03579
3.98687
3.93753
3.88792
3.83814
3.7883
3.73843
3.68863
3.63888
3.58926
3.53973
3.49041
3.44128
3.39245
3.34396
3.29593
3.24837
3.20141
3.15502
3.10924
3.06424
3.01997
2.97635
2.93339
2.89102
2.84931
2.80817
2.76766
2.72772
2.68849
2.64992
2.61221
2.57549
2.54024
2.50738
2.47808
2.45824
5.3062
4.28262
3.44949
2.81613
2.35163
2.01243
1.76604
1.58896
1.46547
1.3867
1.34291
1.34005
1.34321
1.35275
1.37277
1.39582
1.41908
1.44514
1.49399
1.59483
1.80658
2.24826
3.05913
3.33638
3.35697
3.33993
3.29727
3.24295
3.20929
3.19869
3.20161
3.21743
3.25997
3.33511
3.40338
3.4749
3.56357
3.66435
3.77165
3.89172
4.01391
4.12982
4.22956
4.31023
4.37297
4.42035
4.45343
4.47449
4.48483
4.48562
4.48388
4.4777
4.46294
4.43356
4.40035
4.36586
4.32955
4.29107
4.25037
4.2078
4.16367
4.11821
4.07167
4.02425
3.97615
3.92746
3.87844
3.82912
3.77969
3.73017
3.6807
3.63123
3.5819
3.53264
3.48358
3.43468
3.38612
3.33785
3.29009
3.24277
3.19608
3.14999
3.10473
3.05991
3.01578
2.97228
2.92945
2.88718
2.84556
2.8045
2.76409
2.72425
2.68509
2.64658
2.60887
2.5721
2.53663
2.50334
2.47323
2.45212
5.48698
4.60159
3.82823
3.19931
2.70725
2.32783
2.03831
1.81896
1.6549
1.53544
1.45043
1.39468
1.3646
1.36139
1.36396
1.37185
1.3887
1.41566
1.45011
1.51552
1.64539
1.92983
2.52181
3.16871
3.3353
3.33985
3.32813
3.29736
3.26762
3.27109
3.29076
3.34587
3.46129
3.56008
3.60915
3.639
3.66787
3.69647
3.7531
3.81476
3.90821
4.02832
4.14398
4.23844
4.31108
4.3643
4.40099
4.4251
4.43892
4.44288
4.44193
4.43818
4.42847
4.40766
4.37578
4.34138
4.30574
4.26851
4.22938
4.18834
4.14558
4.1014
4.05603
4.00961
3.9624
3.91449
3.86611
3.81736
3.76843
3.71934
3.67027
3.62117
3.57218
3.52323
3.47448
3.42587
3.37762
3.32965
3.28221
3.23531
3.1891
3.14344
3.09845
3.05395
3.01005
2.96671
2.92403
2.8819
2.84042
2.7995
2.75925
2.71955
2.68054
2.64214
2.60453
2.56777
2.5322
2.49857
2.46785
2.4455
5.61309
4.84215
4.1365
3.53156
3.03321
2.63127
2.3109
2.05723
1.85711
1.70051
1.57883
1.4895
1.42372
1.38318
1.36357
1.36399
1.36746
1.3765
1.3973
1.43759
1.52287
1.69243
2.04458
2.7594
3.22281
3.32833
3.34086
3.33854
3.34061
3.35978
3.42143
3.56455
3.77335
3.87656
3.88784
3.87728
3.84356
3.77547
3.76347
3.77797
3.81782
3.90044
4.02056
4.13352
4.22398
4.29088
4.33645
4.36664
4.38526
4.39355
4.39337
4.3916
4.38608
4.37323
4.34709
4.31407
4.27914
4.24293
4.20522
4.16576
4.12461
4.08188
4.03778
3.99249
3.94627
3.89923
3.85164
3.80356
3.75524
3.7067
3.65811
3.60944
3.56085
3.51228
3.46386
3.41563
3.36774
3.3203
3.27346
3.22709
3.18134
3.13603
3.09134
3.0471
3.00346
2.96031
2.91782
2.87586
2.83456
2.79382
2.75374
2.71422
2.67538
2.63714
2.59966
2.56295
2.52734
2.49347
2.4623
2.43874
5.70287
5.0257
4.38486
3.8132
3.32284
2.91222
2.57326
2.29593
2.06997
1.88726
1.73991
1.62322
1.53171
1.46432
1.41513
1.38497
1.37392
1.37556
1.38228
1.40334
1.44476
1.54317
1.73769
2.14318
2.91176
3.24614
3.33066
3.36392
3.3975
3.47073
3.62567
3.93412
4.18936
4.25204
4.23632
4.17866
4.04712
3.88641
3.79134
3.77435
3.78536
3.81801
3.88755
3.99744
4.10312
4.18976
4.25345
4.2963
4.32355
4.33788
4.34185
4.34107
4.33801
4.33014
4.3131
4.28387
4.25043
4.21519
4.17861
4.1405
4.10079
4.05944
4.01665
3.97253
3.92736
3.88126
3.8345
3.78718
3.73953
3.69159
3.64356
3.59538
3.54724
3.49908
3.45104
3.40333
3.35614
3.30935
3.26309
3.21722
3.17187
3.12693
3.08255
3.03861
2.99527
2.95239
2.91015
2.86842
2.82735
2.78682
2.74698
2.70767
2.66907
2.63104
2.59377
2.5572
2.52166
2.48765
2.45622
2.43155
5.77069
5.1672
4.58431
4.04906
3.57525
3.16624
2.81848
2.5263
2.28179
2.07872
1.9101
1.7713
1.65773
1.56614
1.4942
1.43993
1.40297
1.38183
1.38252
1.38789
1.40896
1.45136
1.56205
1.78285
2.25955
2.98067
3.26536
3.36272
3.46007
3.6245
3.95718
4.42945
4.67448
4.67072
4.62461
4.49694
4.24172
4.02381
3.87629
3.79787
3.78112
3.78848
3.81322
3.86777
3.96074
4.05816
4.1419
4.20499
4.24782
4.2727
4.28466
4.28606
4.28475
4.28038
4.27007
4.24881
4.21821
4.18442
4.14901
4.11211
4.07371
4.03372
3.99228
3.94944
3.90546
3.86044
3.81466
3.76821
3.72136
3.67413
3.62673
3.57912
3.53149
3.48384
3.43663
3.38965
3.34317
3.29702
3.25134
3.20596
3.16108
3.11654
3.07255
3.02895
2.98596
2.9434
2.90148
2.86003
2.81927
2.77901
2.73944
2.7004
2.66207
2.62429
2.58725
2.55088
2.51548
2.48142
2.44988
2.42423
5.8194
5.27763
4.74578
4.24667
3.79357
3.39275
3.04354
2.74328
2.48669
2.26868
2.08409
1.92825
1.79745
1.68823
1.59844
1.52551
1.46848
1.42727
1.39786
1.39674
1.40192
1.41768
1.47514
1.57908
1.85289
2.38594
3.04729
3.33071
3.53777
3.84065
4.45019
5.0192
5.16061
5.12625
5.00868
4.7513
4.43575
4.18353
4.00052
3.8773
3.80662
3.78208
3.78522
3.80096
3.83972
3.91662
4.00361
4.0847
4.14796
4.19111
4.21619
4.22679
4.22661
4.22467
4.21902
4.20639
4.1812
4.15005
4.11619
4.08052
4.04337
4.00469
3.96463
3.92316
3.88049
3.83667
3.79199
3.74652
3.70057
3.65413
3.60744
3.56044
3.5135
3.46672
3.42036
3.37423
3.32847
3.28295
3.23784
3.193
3.14861
3.10454
3.06099
3.01781
2.97521
2.93302
2.89146
2.85036
2.80993
2.77
2.73076
2.69205
2.65404
2.61656
2.57982
2.5437
2.50852
2.47449
2.443
2.41651
5.85659
5.36576
4.87833
4.41332
3.98281
3.59392
3.24844
2.94521
2.68151
2.45328
2.25664
2.08776
1.94296
1.81952
1.71458
1.62636
1.55314
1.49375
1.44877
1.41571
1.41046
1.41569
1.43331
1.49628
1.61497
1.92069
2.52128
3.18296
3.58183
4.1928
5.13076
5.62319
5.61818
5.5436
5.3371
4.95662
4.62253
4.35728
4.15058
3.99346
3.88051
3.80891
3.7756
3.77367
3.78036
3.80551
3.86052
3.93938
4.01703
4.08105
4.1263
4.15231
4.16272
4.16235
4.15979
4.15282
4.13765
4.11102
4.07931
4.045
4.00911
3.97181
3.93326
3.89331
3.85211
3.80964
3.76621
3.72188
3.67696
3.63142
3.5855
3.53941
3.49352
3.44777
3.40233
3.35704
3.31204
3.2672
3.22273
3.17847
3.13465
3.09111
3.04807
3.00537
2.96323
2.92149
2.88035
2.83967
2.79964
2.7601
2.72124
2.6829
2.64525
2.60814
2.57173
2.53591
2.50101
2.4671
2.43575
2.40864
5.89004
5.43736
4.98758
4.55405
4.14673
3.77226
3.43407
3.13202
2.86507
2.63038
2.42512
2.2461
2.09041
1.95524
1.83838
1.7376
1.65154
1.57863
1.51846
1.47108
1.43536
1.43101
1.43748
1.45948
1.53324
1.68199
2.03785
2.76824
3.53596
4.73575
5.90221
6.13931
6.08089
5.90067
5.53044
5.13854
4.80805
4.53682
4.31271
4.12988
3.98513
3.87662
3.80277
3.76407
3.75019
3.7521
3.76532
3.7989
3.86626
3.93821
4.00263
4.04995
4.07905
4.09151
4.09125
4.0887
4.08137
4.06536
4.03792
4.00551
3.97098
3.9351
3.89816
3.85989
3.82032
3.77939
3.73739
3.69437
3.65061
3.60606
3.56131
3.5164
3.47167
3.42696
3.38247
3.33802
3.29383
3.24973
3.20596
3.16236
3.11916
3.07621
3.03373
2.99157
2.94994
2.9087
2.86804
2.82783
2.78824
2.74915
2.71072
2.67281
2.63556
2.59885
2.56282
2.52735
2.49279
2.45905
2.42793
2.40038
5.9153
5.49738
5.08113
4.67493
4.28943
3.93049
3.60157
3.30381
3.03656
2.79867
2.5875
2.40118
2.23677
2.09239
1.96549
1.85458
1.75768
1.67372
1.60173
1.5408
1.49274
1.45828
1.45968
1.47197
1.50292
1.60756
1.81113
2.30573
3.28838
5.28341
6.57263
6.56053
6.43667
6.13521
5.68661
5.29933
4.97746
4.7048
4.47184
4.27341
4.10758
3.97239
3.86693
3.79047
3.74338
3.72132
3.71186
3.71753
3.73825
3.78379
3.84935
3.91208
3.96259
3.99554
4.01248
4.01363
4.01161
4.00491
3.98976
3.96193
3.92944
3.89498
3.85944
3.82272
3.78479
3.74554
3.70519
3.6637
3.62125
3.57813
3.53479
3.49123
3.44771
3.4041
3.3606
3.31708
3.27376
3.23048
3.18749
3.14462
3.10212
3.05982
3.01799
2.97642
2.93539
2.8947
2.8546
2.81491
2.77585
2.73725
2.69931
2.66187
2.62508
2.5888
2.55321
2.51812
2.48394
2.45045
2.41962
2.39177
5.94034
5.54951
5.16116
4.78138
4.41629
4.07266
3.7536
3.46158
3.19595
2.95697
2.7421
2.55063
2.37953
2.2279
2.09278
1.97357
1.86769
1.77465
1.69336
1.62172
1.56494
1.51328
1.504
1.51065
1.53622
1.6105
1.78589
2.2041
3.15178
5.26431
6.93099
6.8905
6.70224
6.308
5.8526
5.46647
5.1448
4.86996
4.63166
4.42404
4.24418
4.08985
3.95971
3.85383
3.77243
3.71674
3.68632
3.66418
3.66543
3.67566
3.70218
3.75604
3.81499
3.86721
3.90495
3.92526
3.93112
3.92961
3.92392
3.91055
3.88374
3.85216
3.81796
3.78231
3.74572
3.70811
3.66955
3.62975
3.5891
3.54772
3.50601
3.4639
3.42168
3.37923
3.33682
3.29431
3.25193
3.20954
3.1674
3.12532
3.08359
3.04201
3.00087
2.95997
2.91959
2.87951
2.84002
2.80091
2.76242
2.72438
2.68697
2.65004
2.61376
2.57795
2.54283
2.50816
2.47441
2.4412
2.41071
2.38267
5.97482
5.60059
5.23507
4.87766
4.53131
4.20213
3.89339
3.6077
3.34523
3.10642
2.88967
2.69449
2.51842
2.36091
2.21917
2.09292
1.97964
1.87892
1.78995
1.71016
1.64635
1.5866
1.57434
1.58114
1.6057
1.68197
1.84095
2.21179
2.97502
4.56222
6.73479
6.98423
6.86474
6.55664
6.09615
5.6804
5.33553
5.04474
4.79462
4.57771
4.38729
4.21884
4.0703
3.94184
3.83395
3.74766
3.68392
3.64497
3.6153
3.60433
3.60903
3.62553
3.66185
3.71498
3.76591
3.80623
3.83268
3.84344
3.8427
3.83856
3.8277
3.80517
3.77435
3.73978
3.70407
3.66769
3.63067
3.59272
3.55407
3.51466
3.47473
3.43422
3.39343
3.35227
3.31104
3.26962
3.22828
3.18685
3.14564
3.10442
3.06353
3.02274
2.98237
2.9422
2.90253
2.86314
2.82431
2.78585
2.74798
2.71053
2.67371
2.63734
2.6016
2.56631
2.53169
2.49748
2.4642
2.43133
2.40123
2.37309
6.02012
5.65649
5.30662
4.96573
4.63634
4.32023
4.02172
3.7428
3.4844
3.2471
3.02965
2.83226
2.65247
2.49039
2.34332
2.21114
2.09179
1.98457
1.88935
1.80388
1.73531
1.67588
1.67652
1.68902
1.72489
1.83588
2.05152
2.52415
3.25898
4.03036
5.35851
6.47941
6.67307
6.59358
6.36648
5.94621
5.56766
5.2479
4.97363
4.73844
4.53395
4.35206
4.18895
4.04353
3.91583
3.80636
3.71627
3.64599
3.59924
3.56327
3.5406
3.54184
3.55007
3.57115
3.61404
3.66145
3.70426
3.73501
3.75148
3.75239
3.75009
3.74239
3.72523
3.69499
3.6611
3.62553
3.58965
3.55329
3.51647
3.47896
3.4409
3.40213
3.36291
3.32318
3.28325
3.24303
3.20281
3.16244
3.12222
3.08197
3.04198
3.00207
2.96252
2.92317
2.88425
2.84562
2.8075
2.76974
2.73253
2.69574
2.65953
2.62376
2.5886
2.55387
2.51979
2.48609
2.4533
2.42082
2.39116
2.36298
6.08507
5.71294
5.37226
5.04593
4.73151
4.4289
4.14027
3.86855
3.61449
3.37961
3.16247
2.96378
2.78161
2.61577
2.46466
2.32742
2.20316
2.0908
1.99046
1.90356
1.83074
1.79796
1.8041
1.83433
1.90738
2.09619
2.47147
3.05832
3.4881
3.8474
4.38555
5.23457
6.1023
6.39007
6.34429
6.18573
5.86112
5.52181
5.19874
4.92605
4.69509
4.49356
4.3137
4.15291
4.00942
3.88245
3.77226
3.67945
3.60482
3.55097
3.50898
3.47952
3.47062
3.47432
3.48694
3.51479
3.55767
3.59936
3.6328
3.65411
3.66131
3.66004
3.65469
3.64174
3.61547
3.58223
3.54757
3.51208
3.47641
3.44049
3.40424
3.36733
3.32987
3.29179
3.25335
3.2145
3.17552
3.13631
3.09716
3.05795
3.01893
2.97998
2.94133
2.90285
2.86477
2.82696
2.78961
2.7526
2.71611
2.68002
2.64447
2.60935
2.57481
2.54068
2.50716
2.47401
2.44176
2.40971
2.38053
2.3524
6.15477
5.77754
5.44211
5.1258
4.82103
4.52945
4.25037
3.98588
3.73661
3.50432
3.28842
3.08902
2.90542
2.73676
2.58245
2.44132
2.31312
2.19709
2.09466
2.00842
1.94852
1.95081
1.9702
2.03449
2.18856
2.5182
3.10098
3.49235
3.67153
3.80594
4.00878
4.35664
4.91401
5.66494
6.09578
6.07958
5.99331
5.79668
5.47635
5.16346
4.89287
4.65665
4.45232
4.27243
4.11246
3.97003
3.84373
3.73318
3.63859
3.56057
3.50049
3.45402
3.41831
3.39649
3.39764
3.40413
3.42063
3.45424
3.49295
3.52876
3.55442
3.56791
3.56762
3.56461
3.55577
3.53668
3.50504
3.47034
3.43522
3.40015
3.36512
3.32976
3.29405
3.25777
3.22104
3.18378
3.14622
3.10834
3.07039
3.03232
2.99437
2.95645
2.91878
2.88125
2.84409
2.80714
2.77063
2.73442
2.6987
2.66334
2.62851
2.59408
2.56019
2.5267
2.49382
2.46124
2.42959
2.39804
2.3694
2.34144
6.2804
5.86727
5.51573
5.20294
4.90714
4.6238
4.35321
4.09558
3.8515
3.62209
3.40774
3.20844
3.0238
2.85336
2.6965
2.55265
2.42194
2.30424
2.20513
2.12494
2.11525
2.12961
2.18414
2.32345
2.62286
3.21747
3.63208
3.78819
3.82338
3.84064
3.88582
3.9932
4.21244
4.60712
5.24155
5.73863
5.86606
5.82694
5.69832
5.43218
5.14905
4.86695
4.62481
4.4146
4.23133
4.07033
3.92788
3.80169
3.69078
3.59475
3.51374
3.44859
3.39801
3.35543
3.32655
3.31945
3.32212
3.33165
3.35289
3.38831
3.42309
3.45165
3.47021
3.47501
3.47348
3.46769
3.454
3.42649
3.39432
3.35999
3.32528
3.29055
3.25599
3.22123
3.1862
3.15064
3.11471
3.07834
3.04179
3.005
2.96825
2.93144
2.89485
2.85833
2.82214
2.78613
2.75051
2.71516
2.68026
2.64569
2.61163
2.57793
2.54475
2.51195
2.47974
2.44782
2.41683
2.38586
2.35783
2.33024
6.32601
5.96109
5.59799
5.28127
4.99184
4.7162
4.45099
4.19862
3.95921
3.73327
3.52073
3.32214
3.13707
2.96553
2.80714
2.66189
2.53059
2.41692
2.32478
2.29424
2.30626
2.35715
2.48761
2.78276
3.36921
3.8255
3.98912
3.98533
3.96162
3.90342
3.85579
3.86782
3.9274
4.07181
4.36759
4.85595
5.36003
5.63349
5.6198
5.54665
5.3726
5.10768
4.8445
4.59597
4.38029
4.19285
4.02918
3.88519
3.75823
3.64627
3.54857
3.46481
3.39511
3.34066
3.29263
3.25809
3.23949
3.2402
3.24492
3.25755
3.2837
3.3167
3.34803
3.37036
3.38207
3.38146
3.37798
3.36849
3.34837
3.31827
3.28475
3.25049
3.21653
3.18272
3.14901
3.11502
3.08078
3.04607
3.01112
2.9758
2.94042
2.90487
2.86947
2.83406
2.79893
2.76391
2.72926
2.69482
2.6608
2.62708
2.59383
2.56092
2.52853
2.49648
2.46503
2.43384
2.4036
2.37337
2.34605
2.31914
6.30974
6.08865
5.70476
5.36963
5.07547
4.80313
4.5447
4.29757
4.06166
3.83805
3.62774
3.43018
3.24547
3.07365
2.91514
2.77045
2.64386
2.53928
2.4918
2.50163
2.54758
2.6749
2.96289
3.54962
4.05597
4.23432
4.22655
4.18788
4.09671
3.95953
3.84997
3.82337
3.82913
3.8659
3.96413
4.16704
4.50348
4.97214
5.30523
5.38953
5.3606
5.26201
5.0527
4.81309
4.57084
4.35047
4.1583
3.99069
3.84354
3.71425
3.60044
3.50052
3.41392
3.3402
3.28093
3.22957
3.18907
3.16273
3.15663
3.15864
3.16604
3.18286
3.21332
3.24369
3.26885
3.28644
3.28925
3.28753
3.2815
3.26757
3.24018
3.20922
3.17648
3.14328
3.11027
3.07738
3.04458
3.01151
2.97823
2.94456
2.91072
2.87661
2.84254
2.80835
2.77437
2.74043
2.70681
2.67335
2.64029
2.60748
2.57513
2.54309
2.51157
2.48037
2.44978
2.41947
2.39013
2.36092
2.33449
2.30885
6.25744
6.12271
5.82828
5.4713
5.16369
4.88943
4.63375
4.39041
4.1587
3.93893
3.72985
3.53348
3.34963
3.17888
3.02211
2.88313
2.76752
2.70473
2.7129
2.75651
2.88295
3.17378
3.77239
4.32756
4.52154
4.51068
4.46107
4.3463
4.17606
4.02726
3.90935
3.82648
3.79271
3.79279
3.8067
3.86159
3.98699
4.21541
4.56993
4.91608
5.1427
5.1352
5.09118
4.98366
4.76892
4.54778
4.32515
4.12905
3.95584
3.80408
3.67082
3.55383
3.45107
3.36146
3.28436
3.22062
3.16612
3.1209
3.08922
3.07334
3.07384
3.0776
3.08798
3.10965
3.13866
3.16679
3.18706
3.1967
3.19598
3.19228
3.18264
3.16258
3.13438
3.10284
3.07063
3.03848
3.00667
2.9749
2.94315
2.91113
2.87896
2.84645
2.81386
2.78106
2.74836
2.71561
2.68312
2.65074
2.61872
2.58692
2.55557
2.52451
2.49397
2.46379
2.43424
2.40508
2.37691
2.34923
2.32402
2.3008
6.16062
6.0972
5.92309
5.57538
5.25556
4.97539
4.71992
4.47957
4.25068
4.03334
3.82766
3.63307
3.4515
3.28374
3.13358
3.00791
2.93182
2.93859
2.98074
3.10694
3.40174
4.0113
4.63036
4.84207
4.82772
4.76674
4.62834
4.43409
4.26195
4.11961
3.99967
3.89791
3.81512
3.76861
3.74114
3.74304
3.76331
3.82947
3.97237
4.20819
4.53641
4.79251
4.91468
4.90082
4.84372
4.71306
4.50597
4.30482
4.10222
3.92411
3.76714
3.62899
3.50756
3.4012
3.30819
3.22778
3.15995
3.10327
3.05427
3.01705
2.99447
2.98834
2.98993
2.99598
3.00995
3.03674
3.06492
3.08718
3.10197
3.10429
3.10264
3.09687
3.08374
3.0582
3.02945
2.99877
2.96778
2.93686
2.90627
2.8757
2.84513
2.81429
2.78332
2.75207
2.7208
2.68941
2.65818
2.62701
2.59616
2.56551
2.5353
2.5054
2.47607
2.44715
2.41898
2.39144
2.36497
2.33983
2.31646
2.29793
6.00748
6.00545
5.91891
5.70592
5.36603
5.06773
4.80598
4.56584
4.34015
4.12548
3.92238
3.73163
3.55376
3.39369
3.25896
3.17242
3.17839
3.22082
3.35096
3.65732
4.29351
4.95632
5.18383
5.16666
5.09531
4.93512
4.71827
4.52686
4.36733
4.2297
4.10583
3.99147
3.88713
3.7973
3.72892
3.69206
3.66186
3.66545
3.69129
3.76523
3.91655
4.14754
4.41869
4.62253
4.67909
4.66147
4.59892
4.46114
4.26848
4.08023
3.89559
3.7325
3.58915
3.46277
3.35207
3.25543
3.17196
3.10039
3.04102
2.98889
2.94689
2.91926
2.90403
2.90436
2.90736
2.91607
2.93425
2.96144
2.98701
3.00491
3.01395
3.01331
3.00997
3.00131
2.98302
2.95697
2.92798
2.8981
2.86841
2.83889
2.80961
2.78026
2.7509
2.72128
2.6916
2.66175
2.63198
2.60222
2.57275
2.54345
2.51464
2.48617
2.45842
2.43126
2.40511
2.38012
2.35645
2.33551
2.31623
2.30152
5.61285
5.90655
5.87513
5.74876
5.47953
5.16693
4.89433
4.65155
4.42717
4.21559
4.01621
3.83023
3.66192
3.5187
3.425
3.43087
3.47535
3.61333
3.93891
4.6168
5.32693
5.55762
5.5362
5.4504
5.26141
5.02252
4.81355
4.63879
4.4872
4.34893
4.21847
4.09411
3.97548
3.86552
3.76648
3.68547
3.63113
3.58666
3.5613
3.56696
3.59684
3.67405
3.82907
4.04652
4.26308
4.42914
4.44781
4.42688
4.36371
4.22799
4.04553
3.86922
3.7001
3.55036
3.41964
3.30524
3.20529
3.11799
3.04255
2.97915
2.92459
2.87951
2.84603
2.82544
2.81895
2.82028
2.82554
2.83772
2.8621
2.88702
2.90771
2.92153
2.9249
2.92351
2.91851
2.90707
2.8843
2.85813
2.83007
2.80148
2.77311
2.7449
2.71692
2.68886
2.66086
2.6327
2.60465
2.57656
2.54878
2.52118
2.4942
2.46771
2.44225
2.41783
2.39495
2.37435
2.356
2.33905
2.32213
2.31386
4.7452
5.6903
5.78145
5.72728
5.57871
5.27771
4.99048
4.74029
4.51485
4.306
4.11152
3.93464
3.78534
3.68872
3.69533
3.74413
3.89461
4.2488
4.98608
5.73595
5.96323
5.93645
5.83228
5.60839
5.34626
5.11964
4.93059
4.76592
4.61475
4.47116
4.33254
4.19854
4.06935
3.94631
3.83082
3.72595
3.63358
3.5662
3.50909
3.46574
3.44519
3.45281
3.4851
3.56183
3.71351
3.91319
4.08912
4.22551
4.22387
4.20211
4.14115
4.01038
3.83249
3.66653
3.51449
3.37954
3.25894
3.15405
3.06334
2.98519
2.91855
2.86125
2.8124
2.77518
2.75038
2.73662
2.73698
2.73987
2.74806
2.76518
2.78912
2.8122
2.82898
2.83868
2.83829
2.83568
2.82846
2.81315
2.78964
2.7633
2.73616
2.70894
2.68209
2.65539
2.62902
2.60266
2.57656
2.55051
2.5249
2.49961
2.47525
2.45184
2.43002
2.41052
2.39357
2.37781
2.3625
2.3519
2.34201
2.34283
3.14732
5.15715
5.65724
5.65336
5.57859
5.39873
5.10333
4.83854
4.60726
4.40003
4.21523
4.05827
3.96202
3.9702
4.02578
4.19402
4.58633
5.3989
6.17673
6.3886
6.35557
6.23192
5.9724
5.68865
5.44535
5.24213
5.06433
4.90043
4.74392
4.59228
4.44479
4.30169
4.16357
4.03093
3.90481
3.78608
3.67656
3.5787
3.49763
3.43286
3.37579
3.33345
3.31826
3.32685
3.35922
3.43348
3.57741
3.756
3.90398
4.01773
4.01211
3.98584
3.92516
3.80303
3.64438
3.48526
3.33735
3.2122
3.10373
3.00882
2.92645
2.85561
2.79625
2.74548
2.70533
2.67696
2.65949