/*--------------------------------*- C++ -*----------------------------------*\
| =========                 |                                                 |
| \\      /  F ield         | OpenFOAM: The Open Source CFD Toolbox           |
|  \\    /   O peration     | Version:  2112                                  |
|   \\  /    A nd           | Website:  www.openfoam.com                      |
|    \\/     M anipulation  |                                                 |
\*---------------------------------------------------------------------------*/
FoamFile
{
    version     2.0;
    format      ascii;
    arch        "LSB;label=32;scalar=64";
    class       surfaceScalarField;
    location    "3.5";
    object      phi;
}
// * * * * * * * * * * * * * * * * * * * * * * * * * * * * * * * * * * * * * //

dimensions      [1 0 -1 0 0 0 0];

oriented        oriented;

internalField   nonuniform List<scalar> 
10325
(
0.00840003
8.71001e-11
0.00840003
6.74454e-10
0.00840003
2.07532e-09
0.00840002
6.26511e-09
0.00840001
1.48046e-08
0.00839998
3.99158e-08
0.0083999
8.79929e-08
0.00839971
2.45056e-07
0.00839929
5.12859e-07
0.00839801
1.58068e-06
0.00839527
3.37225e-06
0.00838483
1.22312e-05
0.00835504
3.28823e-05
0.00822567
0.000141835
0.00759351
0.000669596
0.00687133
0.000712789
0.00621148
0.000653878
0.00554467
0.000663895
0.00485714
0.000684647
0.00413406
0.000719504
0.00336885
0.000762013
0.00256158
0.000803305
0.00172118
0.00083652
0.000858603
0.000859576
0.000855382
0.00840003
1.71531e-10
0.00840003
1.33069e-09
0.00840003
4.07028e-09
0.00840002
1.23272e-08
0.00840001
2.90274e-08
0.00839998
7.88809e-08
0.00839991
1.72804e-07
0.00839971
4.88992e-07
0.0083993
1.01658e-06
0.00839799
3.19592e-06
0.00839515
6.81783e-06
0.0083842
2.50008e-05
0.00835291
6.7242e-05
0.00822278
0.000284229
0.00760349
0.00132657
0.00686638
0.0014402
0.00621641
0.00129787
0.00555955
0.00131772
0.00487748
0.00136395
0.00414911
0.00144431
0.00337905
0.0015289
0.00256973
0.00160895
0.0017259
0.00167675
0.000859454
0.001723
0.00171163
0.00840003
2.36704e-10
0.00840003
1.8321e-09
0.00840003
5.6223e-09
0.00840002
1.69957e-08
0.00840001
3.986e-08
0.00839999
1.09759e-07
0.00839995
2.31111e-07
0.00839978
7.08711e-07
0.00839954
1.34259e-06
0.00839818
4.85882e-06
0.00839581
9.77526e-06
0.00838544
3.71833e-05
0.00835587
9.99154e-05
0.00823752
0.000414356
0.00768482
0.00191741
0.00693603
0.00217869
0.0062839
0.00194384
0.00563327
0.00196522
0.00495587
0.00203852
0.00422862
0.00216809
0.00345348
0.00230106
0.00263458
0.00242374
0.00177716
0.00253049
0.000890348
0.00260687
0.00259898
0.00840003
2.90166e-10
0.00840003
2.24854e-09
0.00840003
6.91462e-09
0.00840002
2.09126e-08
0.00840002
4.89958e-08
0.0084
1.36042e-07
0.00839996
2.80556e-07
0.00839982
8.99299e-07
0.00839961
1.60729e-06
0.00839848
6.31208e-06
0.00839642
1.22879e-05
0.00838796
4.74215e-05
0.00836366
0.000127302
0.00827043
0.000518576
0.00785406
0.00237228
0.00709797
0.002924
0.00643408
0.00260138
0.00578178
0.00261432
0.00510672
0.00271069
0.00437745
0.00289391
0.00359852
0.0030768
0.00276793
0.00325075
0.00188083
0.00341389
0.000947686
0.00353788
0.00354423
0.00840003
3.43826e-10
0.00840003
2.66306e-09
0.00840003
8.15881e-09
0.00840002
2.47067e-08
0.00840002
5.7965e-08
0.0084
1.60174e-07
0.00839996
3.3571e-07
0.00839985
1.04583e-06
0.00839961
1.90668e-06
0.00839898
7.24707e-06
0.00839751
1.41856e-05
0.00839268
5.39389e-05
0.00837891
0.000144092
0.00833102
0.000575957
0.00815792
0.00258285
0.0073953
0.00367646
0.00668841
0.00330194
0.00602162
0.00327785
0.00534914
0.00338055
0.00461721
0.0036224
0.00382122
0.00386957
0.00296759
0.00410123
0.00204724
0.0043314
0.00104758
0.00453528
0.00459003
0.00840003
3.7129e-10
0.00840003
2.87124e-09
0.00840003
8.78861e-09
0.00840003
2.65793e-08
0.00840002
6.24963e-08
0.00840002
1.70721e-07
0.0084
3.65801e-07
0.00839999
1.09293e-06
0.00839992
2.03003e-06
0.00839992
7.51667e-06
0.00839988
1.45949e-05
0.00840114
5.41765e-05
0.00839908
0.000148847
0.00841162
0.000571542
0.00865753
0.00237188
0.00788686
0.00444184
0.00707481
0.00410845
0.0063766
0.00397246
0.00569177
0.00406262
0.00495689
0.00435423
0.00415201
0.00467193
0.00326185
0.00498901
0.00227945
0.00531144
0.00119193
0.0056211
0.00578074
0.00840003
3.5769e-10
0.00840003
2.76175e-09
0.00840003
8.52365e-09
0.00840003
2.55717e-08
0.00840003
6.04895e-08
0.00840005
1.60337e-07
0.00840007
3.56356e-07
0.00840022
9.65703e-07
0.00840032
1.98143e-06
0.00840164
6.37094e-06
0.00840436
1.22356e-05
0.00841434
4.51062e-05
0.00844578
0.000119867
0.00859041
0.000427084
0.00932242
0.00166089
0.00861956
0.0051505
0.00764097
0.00508647
0.00690747
0.00470293
0.00618764
0.00477934
0.00541912
0.00511802
0.00458761
0.00550052
0.0036661
0.00590787
0.00262824
0.00634841
0.00142041
0.00682796
0.00720056
0.00840003
3.57654e-10
0.00840003
2.76151e-09
0.00840003
8.57195e-09
0.00840003
2.55984e-08
0.00840003
6.04631e-08
0.00840004
1.58678e-07
0.00840004
3.52542e-07
0.0084001
9.32279e-07
0.0084002
1.91719e-06
0.00840074
5.95706e-06
0.00840214
1.10576e-05
0.00840753
4.02828e-05
0.00842533
0.000104124
0.00851386
0.000341097
0.00883459
0.00135716
0.00864677
0.00535523
0.00799836
0.00573987
0.00734992
0.00534916
0.00662776
0.00550077
0.00592875
0.005817
0.00510714
0.00632044
0.00416706
0.0068449
0.00308122
0.00743213
0.00176191
0.0081471
0.00896272
0.00840003
3.64195e-10
0.00840003
3.39284e-09
0.00840003
1.02622e-08
0.00840002
3.11674e-08
0.00840001
7.32211e-08
0.00839998
1.95779e-07
0.0083999
4.28343e-07
0.00839971
1.14509e-06
0.00839931
2.34542e-06
0.00839873
6.63945e-06
0.00839749
1.24849e-05
0.00839614
4.21469e-05
0.00840945
9.20964e-05
0.00840021
0.000352877
0.00862603
0.00114269
0.00853497
0.00546506
0.0082524
0.00602545
0.00763102
0.00596832
0.00699915
0.00612931
0.0063503
0.00646334
0.00562258
0.00704705
0.00477253
0.00769215
0.00374871
0.00845289
0.00234064
0.00955434
0.0113045
0.00840003
1.68901e-10
0.00840003
5.02985e-09
0.00840003
7.8252e-09
0.00840002
4.35334e-08
0.00840004
5.61957e-08
0.00839995
2.7981e-07
0.00840009
3.01419e-07
0.00839951
1.73303e-06
0.00840051
1.37322e-06
0.00839673
1.05056e-05
0.0084036
5.80114e-06
0.00837773
6.84526e-05
0.00842755
4.3341e-05
0.00830865
0.000474341
0.00854887
0.000910186
0.00857488
0.00545816
0.0082339
0.00636567
0.00780896
0.00639043
0.00735099
0.00658435
0.00679547
0.00701502
0.00620535
0.00763591
0.00552009
0.008376
0.00458997
0.00938074
0.00324722
0.0108946
0.0145532
0.00840003
5.65032e-10
0.00840003
8.96133e-10
0.00840003
8.45994e-09
0.00840007
9.77769e-09
0.00840006
6.03158e-08
0.00840029
5.84785e-08
0.00840019
4.03566e-07
0.00840164
2.9593e-07
0.00840014
2.87943e-06
0.00840909
1.56099e-06
0.00839465
2.02562e-05
0.0084516
1.10626e-05
0.00834397
0.000151347
0.00864467
0.000175592
0.00836065
0.001201
0.00859457
0.00524423
0.00830235
0.00665604
0.00795112
0.00673911
0.00761578
0.00691623
0.00723119
0.0073961
0.00682744
0.00803689
0.00636066
0.00884058
0.00592436
0.00981544
0.00589498
0.0109223
0.0116051
0.00884296
0.00840003
3.02625e-10
0.00840003
1.62597e-09
0.00840003
5.58538e-09
0.00840003
1.5474e-08
0.00840005
3.93022e-08
0.00840001
9.6032e-08
0.00840018
2.39822e-07
0.0083999
5.7492e-07
0.00840139
1.43579e-06
0.00839901
4.09342e-06
0.0084102
9.33178e-06
0.00839154
3.10232e-05
0.00846744
7.67233e-05
0.00832421
0.000320392
0.00864658
0.000883917
0.00899372
0.00491761
0.00859688
0.00705062
0.00820164
0.00713201
0.00789036
0.00722535
0.00761425
0.00766913
0.00733374
0.00831441
0.00709687
0.00907458
0.00702073
0.00988941
0.00744052
0.0105012
0.0105246
0.00852128
0.00840003
2.82945e-10
0.00840003
2.1975e-09
0.00840003
6.71284e-09
0.00840002
2.03538e-08
0.00840002
4.81399e-08
0.00839998
1.29369e-07
0.00839993
2.91146e-07
0.00839975
7.72932e-07
0.00839949
1.7039e-06
0.00839892
4.73286e-06
0.00839831
1.00155e-05
0.00839648
3.32458e-05
0.00840538
6.84155e-05
0.00843831
0.000289273
0.00854447
0.000781664
0.00958671
0.00389562
0.00909654
0.00754045
0.00856679
0.00766062
0.00823997
0.00755069
0.0080248
0.00788164
0.0078737
0.00846179
0.00782532
0.00912002
0.00798453
0.00972797
0.00847054
0.0100135
0.00982056
0.00917475
0.00840003
2.85168e-10
0.00840003
2.21554e-09
0.00840003
6.79338e-09
0.00840003
2.05385e-08
0.00840003
4.86595e-08
0.00840003
1.30034e-07
0.00840003
2.93308e-07
0.00840004
7.67898e-07
0.00840004
1.71526e-06
0.00840032
4.50009e-06
0.00840017
1.02512e-05
0.00840716
2.65357e-05
0.00840678
6.9294e-05
0.00849447
0.000202812
0.00869699
0.000582631
0.0101533
0.00244782
0.00973879
0.00796285
0.00927839
0.00812464
0.00874164
0.00808643
0.00847166
0.00815008
0.00838501
0.0085458
0.00845571
0.00904543
0.00867857
0.00950271
0.00908034
0.00961021
0.00928623
0.00961437
0.00840003
2.63108e-10
0.00840003
2.04169e-09
0.00840003
6.23952e-09
0.00840003
1.88618e-08
0.00840004
4.46921e-08
0.00840005
1.19175e-07
0.00840007
2.69392e-07
0.00840016
6.93425e-07
0.00840028
1.60283e-06
0.008401
3.82267e-06
0.00840166
9.66253e-06
0.00840658
2.18168e-05
0.00841908
5.74231e-05
0.0084653
0.000157958
0.00854515
0.000502714
0.00915706
0.00184394
0.00983201
0.00730448
0.00957057
0.00838718
0.00915141
0.00850581
0.00891339
0.00838601
0.00884823
0.00860908
0.00895519
0.00893603
0.00921347
0.00924191
0.00954492
0.00927659
0.00890548
0.00992497
0.00840003
1.9978e-10
0.00840003
1.54526e-09
0.00840003
4.80904e-09
0.00840004
1.43772e-08
0.00840005
3.41264e-08
0.00840008
8.95045e-08
0.00840015
2.0068e-07
0.00840032
5.22296e-07
0.00840083
1.10693e-06
0.00840147
3.20178e-06
0.0084051
6.08497e-06
0.00840616
2.09124e-05
0.00842358
4.03563e-05
0.00843531
0.000147087
0.00855557
0.000384296
0.00882135
0.00158305
0.00973939
0.00640629
0.00966538
0.0084623
0.00949692
0.00867413
0.00928861
0.00859212
0.00923088
0.00866491
0.00931496
0.00885003
0.00956394
0.00899068
0.00987773
0.00896067
0.00860628
0.0101755
0.00840003
1.78034e-10
0.00840003
1.37782e-09
0.00840003
4.23411e-09
0.00840003
1.27349e-08
0.00840004
3.01203e-08
0.00840005
7.97592e-08
0.00840007
1.7881e-07
0.00840013
4.64961e-07
0.00840023
1.01918e-06
0.00840069
2.75802e-06
0.00840112
5.69841e-06
0.00840432
1.78725e-05
0.00840931
3.56414e-05
0.00842949
0.000127774
0.00848249
0.000332589
0.00876431
0.00130981
0.0102258
0.00495945
0.010084
0.00860495
0.00987663
0.00888142
0.00966094
0.00880585
0.00963283
0.00869162
0.00969733
0.00878383
0.0098558
0.00883023
0.0101008
0.00871359
0.00836365
0.0103419
0.00840003
1.4409e-10
0.00840003
1.16522e-09
0.00840003
3.61748e-09
0.00840003
1.07599e-08
0.00840004
2.57594e-08
0.00840005
6.72579e-08
0.00840008
1.52986e-07
0.00840015
3.89977e-07
0.00840031
8.74007e-07
0.00840082
2.25677e-06
0.00840165
4.91505e-06
0.00840594
1.37354e-05
0.00841321
2.85274e-05
0.00845117
9.05705e-05
0.00855467
0.000231887
0.00905803
0.000798933
0.0113318
0.00271405
0.0109417
0.00899399
0.0106164
0.00920408
0.0102252
0.00919491
0.0100367
0.00887837
0.0100652
0.00875453
0.0101774
0.00871677
0.0103292
0.00855961
0.0082037
0.0104875
0.00840003
5.80193e-11
0.00840003
1.2004e-09
0.00840003
2.30425e-09
0.00840003
1.05118e-08
0.00840004
1.69448e-08
0.00840004
6.52971e-08
0.0084001
1.01529e-07
0.00840011
3.80603e-07
0.00840041
5.71675e-07
0.00840043
2.25742e-06
0.00840243
2.93375e-06
0.00840191
1.43393e-05
0.00841663
1.39867e-05
0.00841131
9.62562e-05
0.00853747
0.000107079
0.00862412
0.000713862
0.00958461
0.00176296
0.011108
0.00748458
0.0109914
0.00932251
0.0107234
0.00946286
0.0104293
0.0091707
0.0103614
0.0088209
0.0104373
0.00864
0.0105531
0.00844229
0.00810052
0.0106545
0.00840003
1.03171e-10
0.00840003
6.00994e-10
0.00840003
2.20329e-09
0.00840004
5.72591e-09
0.00840004
1.55306e-08
0.00840007
3.57081e-08
0.00840008
9.13792e-08
0.00840026
2.04022e-07
0.0084003
5.31641e-07
0.00840144
1.12204e-06
0.00840111
3.29188e-06
0.00840918
6.32942e-06
0.00840224
2.10379e-05
0.00845637
4.25162e-05
0.00841635
0.000147867
0.00874589
0.000386133
0.00895738
0.00155559
0.0109518
0.00550639
0.0111884
0.00908739
0.0111134
0.0095382
0.0108581
0.00942492
0.0106864
0.0089898
0.010663
0.00866195
0.0107252
0.00837866
0.00802781
0.0107964
0.00840003
1.24549e-10
0.00840003
3.63361e-10
0.00840003
2.11903e-09
0.00840003
3.70889e-09
0.00840003
1.46123e-08
0.00840005
2.34641e-08
0.00840005
8.58407e-08
0.00840012
1.34268e-07
0.00840017
4.90232e-07
0.00840055
7.43329e-07
0.008401
2.85874e-06
0.00840337
3.99814e-06
0.00840651
1.80363e-05
0.00842647
2.26132e-05
0.00845158
0.000123748
0.00863252
0.000205842
0.0092751
0.000919087
0.0116618
0.00313624
0.0117793
0.00897268
0.0116975
0.00961834
0.0114265
0.00969465
0.0111333
0.00928067
0.0109984
0.00879499
0.0109587
0.00841753
0.00802668
0.0109587
0.00840003
4.33594e-11
0.00840003
4.80738e-10
0.00840003
1.09266e-09
0.00840003
4.32951e-09
0.00840004
7.88661e-09
0.00840003
2.69983e-08
0.00840007
4.70894e-08
0.00840005
1.56555e-07
0.00840027
2.6979e-07
0.00840013
8.98202e-07
0.00840147
1.5321e-06
0.00840026
5.24159e-06
0.00840966
8.72043e-06
0.00839993
3.25306e-05
0.00847109
5.31982e-05
0.00845031
0.000227997
0.00887483
0.000493731
0.0100459
0.0019717
0.011751
0.00727834
0.011832
0.00953737
0.01172
0.00980578
0.0114221
0.00957659
0.0113074
0.00890757
0.0112293
0.00849425
0.00807686
0.0111782
0.00840003
6.43808e-11
0.00840003
2.2663e-10
0.00840003
1.1815e-09
0.00840003
2.2705e-09
0.00840003
8.24946e-09
0.00840004
1.44835e-08
0.00840004
4.89517e-08
0.00840012
8.44507e-08
0.0084001
2.81496e-07
0.00840052
4.83111e-07
0.00840043
1.62602e-06
0.00840297
2.72892e-06
0.00840188
9.8571e-06
0.00841927
1.51982e-05
0.00840722
6.55881e-05
0.00853514
0.000100479
0.0085338
0.000496466
0.00925949
0.00124931
0.0118219
0.00473023
0.0120579
0.00930512
0.0120768
0.0097869
0.0119216
0.009731
0.0115764
0.00925139
0.0114573
0.00861182
0.00815098
0.0113819
0.00840003
3.27288e-11
0.00840003
2.19821e-10
0.00840003
6.91906e-10
0.00840003
2.0628e-09
0.00840003
4.92288e-09
0.00840004
1.29585e-08
0.00840006
2.92656e-08
0.00840007
7.50456e-08
0.00840018
1.67335e-07
0.00840024
4.27535e-07
0.00840092
9.52041e-07
0.00840122
2.44002e-06
0.00840563
5.48371e-06
0.00840661
1.42857e-05
0.00843958
3.28576e-05
0.00844927
9.11271e-05
0.0087097
0.000237346
0.00918653
0.000774371
0.0114828
0.0024411
0.0125401
0.00825583
0.0125199
0.009808
0.0123037
0.00994749
0.0119
0.00965434
0.0117128
0.00879757
0.00829076
0.0115718
0.00840003
2.08439e-11
0.00840003
1.63792e-10
0.00840003
5.10422e-10
0.00840003
1.51411e-09
0.00840003
3.62526e-09
0.00840004
9.41644e-09
0.00840004
2.13975e-08
0.00840007
5.40162e-08
0.00840011
1.2109e-07
0.00840024
3.04381e-07
0.00840051
6.77536e-07
0.00840124
1.72824e-06
0.00840302
3.71623e-06
0.008407
1.03707e-05
0.00841979
2.01952e-05
0.00844222
6.89838e-05
0.0085441
0.00013628
0.00875992
0.000560053
0.00968855
0.00151688
0.0121282
0.00583128
0.0125362
0.00940238
0.0126398
0.00984542
0.0125163
0.0097784
0.0120898
0.00922236
0.00854422
0.0118349
0.00840003
9.33967e-12
0.00840003
1.43035e-10
0.00840003
3.11096e-10
0.00840003
1.26417e-09
0.00840003
2.26409e-09
0.00840003
7.80113e-09
0.00840004
1.34931e-08
0.00840005
4.47825e-08
0.0084001
7.69113e-08
0.00840015
2.53527e-07
0.00840039
4.33042e-07
0.00840069
1.43951e-06
0.00840202
2.4032e-06
0.00840401
8.4388e-06
0.00841137
1.29156e-05
0.00842783
5.28897e-05
0.00848564
7.89535e-05
0.00868219
0.000365339
0.00938696
0.000815175
0.012226
0.00300844
0.0128807
0.00875214
0.0129192
0.00980775
0.0127366
0.0099618
0.0123833
0.00957527
0.00879278
0.0121336
0.00840003
1.18509e-11
0.00840003
7.1939e-11
0.00840003
2.61918e-10
0.00840003
6.83066e-10
0.00840003
1.84833e-09
0.00840003
4.26475e-09
0.00840004
1.0856e-08
0.00840006
2.44083e-08
0.00840007
6.11984e-08
0.00840019
1.36771e-07
0.00840029
3.41965e-07
0.00840097
7.62533e-07
0.00840145
1.93825e-06
0.0084057
4.21421e-06
0.00840705
1.16272e-05
0.00843626
2.38719e-05
0.00844023
7.5334e-05
0.00864446
0.00016222
0.00884047
0.000620721
0.0101393
0.00171553
0.0126786
0.00622349
0.0130024
0.0094851
0.0131271
0.00983764
0.0128772
0.00982498
0.00918377
0.0124843
0.00840003
9.45648e-12
0.00840003
5.1198e-11
0.00840003
1.88077e-10
0.00840003
4.86619e-10
0.00840003
1.31843e-09
0.00840003
3.04142e-09
0.00840004
7.7477e-09
0.00840004
1.7427e-08
0.00840006
4.37845e-08
0.0084001
9.78455e-08
0.0084002
2.45287e-07
0.00840042
5.46361e-07
0.00840099
1.37551e-06
0.00840217
3.04848e-06
0.00840601
7.84612e-06
0.00841274
1.72341e-05
0.00844069
4.774e-05
0.00849522
0.000108209
0.00876724
0.000350306
0.00950085
0.000985254
0.0122543
0.00348422
0.0131817
0.00856087
0.0133362
0.0096828
0.0132037
0.00995703
0.00955361
0.0128328
0.00840003
8.48762e-12
0.00840003
2.87704e-11
0.00840003
1.47794e-10
0.00840003
2.90585e-10
0.00840003
1.0207e-09
0.00840003
1.83886e-09
0.00840003
5.96963e-09
0.00840004
1.05756e-08
0.00840005
3.36826e-08
0.00840009
5.94564e-08
0.00840015
1.88707e-07
0.00840036
3.31915e-07
0.00840069
1.05873e-06
0.0084019
1.8473e-06
0.00840376
6.02585e-06
0.00841081
1.02441e-05
0.00842286
3.58807e-05
0.00847047
6.10808e-05
0.00858697
0.000234992
0.00903183
0.000539926
0.0105742
0.001947
0.0129235
0.00622115
0.0132459
0.00936169
0.0134961
0.0097073
0.00973853
0.0133104
0.00840003
3.67408e-12
0.00840003
2.51118e-11
0.00840003
7.89391e-11
0.00840003
2.34795e-10
0.00840003
5.59123e-10
0.00840003
1.462e-09
0.00840003
3.2911e-09
0.00840004
8.3603e-09
0.00840005
1.85784e-08
0.00840006
4.6888e-08
0.00840015
1.03834e-07
0.00840022
2.61894e-07
0.0084007
5.79254e-07
0.00840109
1.46653e-06
0.0084039
3.24036e-06
0.00840585
8.34084e-06
0.00842338
1.84577e-05
0.0084346
5.01439e-05
0.00855496
0.000115174
0.00873842
0.000357861
0.00967302
0.00101499
0.0125056
0.0034009
0.013497
0.00837444
0.0135961
0.00960901
0.0097644
0.0135704
0.00840003
2.2059e-12
0.00840003
1.71263e-11
0.00840003
5.33475e-11
0.00840003
1.58171e-10
0.00840003
3.77742e-10
0.00840003
9.79686e-10
0.00840003
2.21842e-09
0.00840003
5.58588e-09
0.00840004
1.24933e-08
0.00840006
3.12506e-08
0.00840009
6.96337e-08
0.00840018
1.74118e-07
0.00840037
3.86937e-07
0.00840088
9.70984e-07
0.00840197
2.15246e-06
0.00840489
5.45962e-06
0.00841129
1.21216e-05
0.00843009
3.15184e-05
0.00847183
7.38832e-05
0.00862772
0.000203005
0.0090544
0.000588441
0.0104925
0.0019669
0.0131051
0.00577164
0.0135901
0.00912605
0.00956426
0.0137905
0.00840003
1.04406e-12
0.00840003
1.27041e-11
0.00840003
3.02594e-11
0.00840003
1.13139e-10
0.00840003
2.1746e-10
0.00840003
6.9265e-10
0.00840003
1.27765e-09
0.00840003
3.91654e-09
0.00840004
7.16531e-09
0.00840005
2.17311e-08
0.00840008
3.96841e-08
0.00840013
1.19967e-07
0.0084003
2.18509e-07
0.00840062
6.61565e-07
0.00840158
1.19743e-06
0.00840337
3.68269e-06
0.00840905
6.47775e-06
0.0084192
2.14948e-05
0.00845781
3.54843e-05
0.00852598
0.000135503
0.00885299
0.000262428
0.00982244
0.00100145
0.012647
0.00295885
0.0138382
0.00793824
0.00950049
0.0139029
0.00840003
1.31995e-12
0.00840003
5.48675e-12
0.00840003
2.528e-11
0.00840003
5.38229e-11
0.00840003
1.75321e-10
0.00840003
3.36963e-10
0.00840003
1.02027e-09
0.00840003
1.91932e-09
0.00840003
5.70692e-09
0.00840005
1.06835e-08
0.00840005
3.16233e-08
0.00840011
5.90751e-08
0.00840016
1.7489e-07
0.0084005
3.25726e-07
0.00840073
9.6881e-07
0.00840263
1.79638e-06
0.00840371
5.41856e-06
0.00841524
1.00301e-05
0.0084196
3.12609e-05
0.00849571
5.985e-05
0.00855921
0.000199842
0.00907719
0.000483103
0.0103961
0.00164392
0.0132642
0.00508151
0.00878856
0.0139786
0.00840003
6.12986e-13
0.00840003
4.19005e-12
0.00840003
1.3173e-11
0.00840003
3.90959e-11
0.00840003
9.30512e-11
0.00840003
2.42143e-10
0.00840003
5.44221e-10
0.00840003
1.37342e-09
0.00840003
3.04583e-09
0.00840004
7.6276e-09
0.00840005
1.68577e-08
0.00840007
4.2136e-08
0.00840015
9.29774e-08
0.00840025
2.32531e-07
0.0084007
5.12562e-07
0.00840122
1.28771e-06
0.00840381
2.8382e-06
0.00840664
7.22166e-06
0.00842193
1.6108e-05
0.00843997
4.18126e-05
0.00854125
9.94258e-05
0.00874852
0.000275821
0.00959662
0.000800854
0.0121444
0.00253222
0.00699919
0.013933
0.00840003
3.48224e-13
0.00840003
2.6947e-12
0.00840003
8.3945e-12
0.00840003
2.4894e-11
0.00840003
5.93336e-11
0.00840003
1.53483e-10
0.00840003
3.46385e-10
0.00840003
8.68476e-10
0.00840003
1.93487e-09
0.00840004
4.81452e-09
0.00840004
1.06906e-08
0.00840006
2.65581e-08
0.00840009
5.89007e-08
0.00840018
1.46378e-07
0.00840037
3.24288e-07
0.00840085
8.07545e-07
0.00840192
1.78623e-06
0.00840473
4.48277e-06
0.00841098
9.87022e-06
0.00842677
2.56198e-05
0.0084747
5.6834e-05
0.00858118
0.000160849
0.00899047
0.000414073
0.0100585
0.00143028
0.00393303
0.0131609
0.00840003
1.57365e-13
0.00840003
1.90256e-12
0.00840003
4.64039e-12
0.00840003
1.69656e-11
0.00840003
3.33353e-11
0.00840003
1.03637e-10
0.00840003
1.95329e-10
0.00840003
5.83858e-10
0.00840003
1.09151e-09
0.00840003
3.22652e-09
0.00840004
6.02813e-09
0.00840005
1.77449e-08
0.00840007
3.31836e-08
0.00840012
9.74859e-08
0.00840026
1.82346e-07
0.00840054
5.359e-07
0.00840133
9.99961e-07
0.00840287
2.95999e-06
0.00840732
5.45401e-06
0.00841608
1.68639e-05
0.00844399
2.95681e-05
0.00850047
0.000104044
0.0087258
0.000191461
0.00940762
0.000746564
0.00199849
0.0113495
0.00840003
1.56013e-13
0.00840003
9.01715e-13
0.00840003
3.31808e-12
0.00840003
8.57251e-12
0.00840003
2.32291e-11
0.00840003
5.30694e-11
0.00840003
1.34822e-10
0.00840003
2.99619e-10
0.00840003
7.48899e-10
0.00840003
1.65344e-09
0.00840003
4.11311e-09
0.00840004
9.06704e-09
0.00840005
2.25121e-08
0.0084001
4.95991e-08
0.00840016
1.23049e-07
0.00840043
2.70876e-07
0.00840076
6.72586e-07
0.00840224
1.47931e-06
0.008404
3.70315e-06
0.00841279
8.10738e-06
0.00842144
2.10278e-05
0.00847977
4.59041e-05
0.00854392
0.00012791
0.00897664
0.000314787
0.0010365
0.00994092
0.00840003
1.22851e-13
0.00840003
4.68684e-13
0.00840003
2.2002e-12
0.00840003
4.66231e-12
0.00840003
1.5131e-11
0.00840003
2.91291e-11
0.00840003
8.72696e-11
0.00840003
1.64661e-10
0.00840003
4.83008e-10
0.00840003
9.07787e-10
0.00840003
2.64508e-09
0.00840004
4.97038e-09
0.00840005
1.44384e-08
0.00840007
2.71396e-08
0.00840011
7.87094e-08
0.00840024
1.47798e-07
0.00840048
4.28988e-07
0.00840116
8.0229e-07
0.00840252
2.35495e-06
0.00840634
4.30262e-06
0.00841398
1.34345e-05
0.00843721
2.27752e-05
0.00848232
8.30346e-05
0.00865368
0.000144111
0.000575623
0.00911557
0.00840003
4.98098e-14
0.00840003
3.41758e-13
0.00840003
1.08004e-12
0.00840003
3.18621e-12
0.00840003
7.60108e-12
0.00840003
1.96187e-11
0.00840003
4.41152e-11
0.00840003
1.10276e-10
0.00840003
2.44445e-10
0.00840003
6.05953e-10
0.00840003
1.33824e-09
0.00840003
3.30932e-09
0.00840004
7.2999e-09
0.00840005
1.80383e-08
0.00840009
3.97553e-08
0.00840014
9.82521e-08
0.00840035
2.1626e-07
0.00840062
5.35356e-07
0.0084018
1.17794e-06
0.00840318
2.93243e-06
0.00841018
6.4677e-06
0.0084165
1.6493e-05
0.00846322
3.64877e-05
0.00850814
9.93643e-05
0.000239723
0.00884496
0.00840003
2.663e-14
0.00840003
2.0499e-13
0.00840003
6.38837e-13
0.00840003
1.89323e-12
0.00840003
4.50255e-12
0.00840003
1.16037e-11
0.00840003
2.60898e-11
0.00840003
6.50518e-11
0.00840003
1.44262e-10
0.00840003
3.56627e-10
0.00840003
7.88035e-10
0.00840003
1.94313e-09
0.00840004
4.2893e-09
0.00840004
1.05653e-08
0.00840006
2.33122e-08
0.0084001
5.73852e-08
0.00840019
1.26545e-07
0.00840042
3.11499e-07
0.00840091
6.86001e-07
0.00840216
1.69348e-06
0.00840492
3.71826e-06
0.00841211
9.33923e-06
0.00842844
2.02278e-05
0.00847377
5.42621e-05
0.000118684
0.0085952
0.00840003
1.17943e-14
0.00840003
1.34363e-13
0.00840003
3.38698e-13
0.00840003
1.20075e-12
0.00840003
2.4222e-12
0.00840003
7.29809e-12
0.00840003
1.40843e-11
0.00840003
4.07628e-11
0.00840003
7.79204e-11
0.00840003
2.22954e-10
0.00840003
4.25524e-10
0.00840003
1.2126e-09
0.00840003
2.31514e-09
0.00840004
6.58363e-09
0.00840005
1.25768e-08
0.00840007
3.57253e-08
0.00840013
6.82249e-08
0.00840025
1.939e-07
0.00840056
3.69426e-07
0.00840121
1.0542e-06
0.00840293
1.99775e-06
0.00840652
5.77396e-06
0.0084159
1.08819e-05
0.00843821
3.20882e-05
6.33737e-05
0.00849371
0.00840003
1.02702e-14
0.00840003
6.1869e-14
0.00840003
2.25126e-13
0.00840003
5.85391e-13
0.00840003
1.57395e-12
0.00840003
3.60484e-12
0.00840003
9.08161e-12
0.00840003
2.01992e-11
0.00840003
5.00474e-11
0.00840003
1.10489e-10
0.00840003
2.72514e-10
0.00840003
6.00409e-10
0.00840003
1.4788e-09
0.00840004
3.25569e-09
0.00840004
8.01535e-09
0.00840006
1.76341e-08
0.00840008
4.34276e-08
0.00840018
9.54298e-08
0.00840032
2.35392e-07
0.00840086
5.16507e-07
0.00840158
1.28018e-06
0.00840456
2.80348e-06
0.00840843
7.02298e-06
0.00842503
1.55403e-05
3.92832e-05
0.00844922
0.00840003
6.49025e-15
0.00840003
3.48894e-14
0.00840003
1.28964e-13
0.00840003
3.32635e-13
0.00840003
8.9516e-13
0.00840003
2.04788e-12
0.00840003
5.14682e-12
0.00840003
1.14435e-11
0.00840003
2.82593e-11
0.00840003
6.23706e-11
0.00840003
1.53255e-10
0.00840003
3.37536e-10
0.00840003
8.27893e-10
0.00840003
1.82203e-09
0.00840004
4.46443e-09
0.00840004
9.82075e-09
0.00840006
2.40436e-08
0.00840011
5.28582e-08
0.00840021
1.29344e-07
0.00840045
2.84045e-07
0.00840103
6.95601e-07
0.00840231
1.52499e-06
0.00840559
3.7525e-06
0.00841293
8.21882e-06
2.06505e-05
0.00843161
0.00840003
4.31908e-15
0.00840003
1.69704e-14
0.00840003
7.81392e-14
0.00840003
1.6968e-13
0.00840003
5.35293e-13
0.00840003
1.05266e-12
0.00840003
3.0579e-12
0.00840003
5.88054e-12
0.00840003
1.67119e-11
0.00840003
3.19618e-11
0.00840003
9.02353e-11
0.00840003
1.72335e-10
0.00840003
4.85331e-10
0.00840003
9.26512e-10
0.00840003
2.60563e-09
0.00840004
4.97296e-09
0.00840005
1.39708e-08
0.00840007
2.66493e-08
0.00840013
7.4822e-08
0.00840027
1.42479e-07
0.00840056
4.00421e-07
0.00840133
7.59195e-07
0.00840293
2.14918e-06
0.00840713
4.01846e-06
1.18312e-05
0.00841595
0.00840003
1.59174e-15
0.00840003
1.12995e-14
0.00840003
3.54235e-14
0.00840003
1.03959e-13
0.00840003
2.48859e-13
0.00840003
6.34057e-13
0.00840003
1.42746e-12
0.00840003
3.51196e-12
0.00840003
7.78407e-12
0.00840003
1.89542e-11
0.00840003
4.18335e-11
0.00840003
1.01456e-10
0.00840003
2.23669e-10
0.00840003
5.41147e-10
0.00840003
1.19275e-09
0.00840003
2.8795e-09
0.00840004
6.34722e-09
0.00840005
1.5287e-08
0.00840009
3.37017e-08
0.00840015
8.09557e-08
0.00840038
1.78464e-07
0.0084007
4.27663e-07
0.0084019
9.4296e-07
0.0084036
2.26068e-06
5.00057e-06
0.00841037
0.00840003
8.23695e-16
0.00840003
6.00114e-15
0.00840003
1.88752e-14
0.00840003
5.49619e-14
0.00840003
1.30725e-13
0.00840003
3.32791e-13
0.00840003
7.44672e-13
0.00840003
1.82913e-12
0.00840003
4.02697e-12
0.00840003
9.78197e-12
0.00840003
2.14249e-11
0.00840003
5.18207e-11
0.00840003
1.1323e-10
0.00840003
2.73292e-10
0.00840003
5.96169e-10
0.00840003
1.4369e-09
0.00840004
3.1305e-09
0.00840004
7.53268e-09
0.00840006
1.63981e-08
0.0084001
3.93203e-08
0.00840019
8.5531e-08
0.0084004
2.036e-07
0.00840088
4.42107e-07
0.00840199
1.03745e-06
2.27602e-06
0.00840461
0.00840003
6.25585e-17
0.00840003
3.63365e-15
0.00840003
7.72109e-15
0.00840003
3.19937e-14
0.00840003
5.5792e-14
0.00840003
1.90694e-13
0.00840003
3.16816e-13
0.00840003
1.04214e-12
0.00840003
1.68571e-12
0.00840003
5.54814e-12
0.00840003
8.78021e-12
0.00840003
2.92594e-11
0.00840003
4.52622e-11
0.00840003
1.53538e-10
0.00840003
2.3151e-10
0.00840003
8.02837e-10
0.00840003
1.17433e-09
0.00840004
4.18975e-09
0.00840005
5.89629e-09
0.00840006
2.18884e-08
0.00840011
2.91553e-08
0.00840017
1.15363e-07
0.00840044
1.37442e-07
0.0084006
6.30648e-07
5.66546e-07
0.00840211
0.00840003
3.60606e-16
0.00840003
7.73361e-16
0.00840003
5.68404e-15
0.00840003
8.88723e-15
0.00840003
3.82492e-14
0.00840003
5.42346e-14
0.00840003
2.15217e-13
0.00840003
2.88218e-13
0.00840003
1.15156e-12
0.00840003
1.46667e-12
0.00840003
6.05172e-12
0.00840003
7.28626e-12
0.00840003
3.14926e-11
0.00840003
3.53982e-11
0.00840003
1.62342e-10
0.00840003
1.67106e-10
0.00840003
8.28107e-10
0.00840003
7.56702e-10
0.00840004
4.18385e-09
0.00840005
3.2199e-09
0.00840005
2.11636e-08
0.00840015
1.21086e-08
0.00840011
1.15369e-07
0.00840067
1.04992e-08
7.66088e-07
0.00840003
0.00840003
8.42696e-17
0.00840003
3.78685e-16
0.00840003
1.60286e-15
0.00840003
4.06148e-15
0.00840003
1.10998e-14
0.00840003
2.3794e-14
0.00840003
6.05848e-14
0.00840003
1.2194e-13
0.00840003
3.13882e-13
0.00840003
5.99171e-13
0.00840003
1.59028e-12
0.00840003
2.84598e-12
0.00840003
7.92189e-12
0.00840003
1.28965e-11
0.00840003
3.86131e-11
0.00840003
5.37292e-11
0.00840003
1.82185e-10
0.00840003
1.84054e-10
0.00840003
8.18643e-10
0.00840003
2.13077e-10
0.00840005
3.47389e-09
0.00840004
-2.46789e-09
0.00840011
1.4795e-08
0.00839999
-3.24456e-08
9.00714e-08
0.0084005
0.00840003
0.00840003
0.00840003
0.00840003
0.00840003
0.00840003
0.00840003
0.00840003
0.00840003
0.00840003
0.00840003
0.00840003
0.00840003
0.00840003
0.00840003
0.00840003
0.00840003
0.00840003
0.00840003
0.00840003
0.00840003
0.00839999
0.00839998
0.00839975
0.00839961
0.00475026
0.00409383
0.00312401
0.00162707
0.00243359
0.000690851
0.00215999
0.000273627
0.00213656
2.334e-05
0.00229276
-0.00015645
0.00248695
-0.000194814
0.00260295
-0.000116577
0.00264518
-4.28844e-05
0.00264179
2.6938e-06
0.00261758
2.32432e-05
0.00260237
1.41693e-05
0.00259767
3.233e-06
0.00260332
-7.47931e-06
0.00261114
-1.0551e-05
0.00260973
-4.02427e-06
0.00258034
1.80188e-05
0.00249702
5.92877e-05
0.00231198
0.000139543
0.00187597
0.000320467
0.000983632
0.000731031
0.000160682
0.000786877
-0.000512343
0.000673782
-0.00109784
0.000577992
-0.00160207
0.000492573
-0.00199283
0.000396624
-0.00226719
0.000280521
-0.00243673
0.000164281
-0.0025307
9.4486e-05
-0.00259745
6.73647e-05
-0.00266056
5.95485e-05
-0.00269702
3.37388e-05
-0.00270317
3.36862e-07
-0.00268118
-3.12261e-05
-0.00260834
-8.5141e-05
-0.00246006
-0.000164353
-0.00223668
-0.000239716
-0.00195643
-0.000297345
-0.00164167
-0.000330614
-0.00128644
-0.000368407
-0.000928726
-0.000368758
-0.000570403
-0.000367083
-0.000210522
-0.000366655
0.00014905
-0.000364808
0.000478491
-0.000333269
0.000783585
-0.000308038
0.0010699
-0.000288879
0.00133827
-0.000270959
0.00158795
-0.000252591
0.00181876
-0.000234011
0.00203698
-0.000221777
0.0022489
-0.000215969
0.00244843
-0.000203768
0.00263341
-0.000189607
0.00280554
-0.00017718
0.0029655
-0.00016531
0.00311475
-0.000154917
0.00325338