/*--------------------------------*- C++ -*----------------------------------*\
| =========                 |                                                 |
| \\      /  F ield         | OpenFOAM: The Open Source CFD Toolbox           |
|  \\    /   O peration     | Version:  2112                                  |
|   \\  /    A nd           | Website:  www.openfoam.com                      |
|    \\/     M anipulation  |                                                 |
\*---------------------------------------------------------------------------*/
FoamFile
{
    version     2.0;
    format      ascii;
    arch        "LSB;label=32;scalar=64";
    class       volScalarField;
    location    "3.5";
    object      T;
}
// * * * * * * * * * * * * * * * * * * * * * * * * * * * * * * * * * * * * * //

dimensions      [0 0 0 1 0 0 0];

internalField   nonuniform List<scalar> 
5250
(
1.00001
1.00002
1.00006
1.00012
1.00038
1.0007
1.00205
1.00433
1.01105
1.0294
1.06563
1.20378
1.46822
2.25362
2.654
2.73818
2.73437
2.73452
2.7487
2.76207
2.77504
2.78257
2.79032
2.79247
2.78848
1.00001
1.00002
1.00006
1.00012
1.00037
1.00069
1.00202
1.00425
1.01087
1.02889
1.06457
1.20014
1.45973
2.23889
2.64929
2.73823
2.73403
2.73392
2.74781
2.7609
2.77368
2.78103
2.78815
2.7896
2.78545
1.00001
1.00002
1.00006
1.00011
1.00036
1.00067
1.00195
1.0041
1.01051
1.02783
1.06237
1.19234
1.44127
2.2049
2.63669
2.73681
2.73239
2.73134
2.74529
2.75841
2.77058
2.77791
2.78574
2.78745
2.78271
1.00001
1.00002
1.00006
1.00011
1.00034
1.00063
1.00187
1.00388
1.01005
1.0261
1.05909
1.18034
1.41327
2.14971
2.61605
2.73352
2.72894
2.72589
2.74007
2.75326
2.76656
2.77367
2.78
2.78259
2.77872
1.00001
1.00002
1.00006
1.0001
1.00032
1.00059
1.00179
1.00358
1.00952
1.02379
1.05484
1.16463
1.3769
2.06901
2.58707
2.72826
2.72439
2.71756
2.73238
2.74315
2.75618
2.76661
2.77448
2.77452
2.76963
1.00001
1.00001
1.00005
1.00009
1.0003
1.00054
1.00167
1.00325
1.00888
1.02115
1.04993
1.14657
1.3348
1.97315
2.54486
2.71591
2.71335
2.70721
2.72397
2.73547
2.74634
2.75133
2.7607
2.76573
2.76099
1.00001
1.00001
1.00005
1.00008
1.00027
1.00049
1.00154
1.00291
1.00822
1.01837
1.04508
1.12773
1.29193
1.81026
2.52539
2.69458
2.68718
2.68332
2.70152
2.71826
2.73537
2.74106
2.74704
2.74725
2.74206
1.00001
1.00001
1.00004
1.00008
1.00025
1.00045
1.00141
1.00262
1.00763
1.01627
1.04143
1.11225
1.26108
1.70762
2.52655
2.68267
2.67452
2.6676
2.68752
2.69493
2.71011
2.71767
2.72515
2.7283
2.7195
1.00001
1.00001
1.00004
1.00007
1.00022
1.0004
1.00128
1.00235
1.00711
1.0144
1.03833
1.09831
1.23435
1.65012
2.50529
2.65621
2.65086
2.65315
2.66104
2.67864
2.69342
2.69718
2.69619
2.68972
2.66802
1
1.00001
1.00003
1.00006
1.00019
1.00035
1.0011
1.00208
1.00606
1.01285
1.03327
1.08905
1.20438
1.59422
2.4458
2.63131
2.64571
2.63861
2.63862
2.64958
2.65941
2.66687
2.66305
2.64519
2.58673
1
1.00001
1.00002
1.00006
1.00012
1.00033
1.00073
1.00179
1.00472
1.01055
1.03076
1.06412
1.21038
1.4768
2.24839
2.6023
2.65014
2.63651
2.62621
2.62752
2.63158
2.628
2.61064
2.56283
2.36809
1
1.00001
1.00002
1.00005
1.00014
1.00027
1.00081
1.00158
1.00434
1.00995
1.02415
1.06814
1.14654
1.46526
2.17052
2.51792
2.63727
2.62844
2.61204
2.60441
2.60091
2.59175
2.56467
2.50446
2.30513
1
1.00001
1.00002
1.00004
1.00013
1.00023
1.00074
1.00135
1.00419
1.00803
1.02262
1.05277
1.12745
1.35873
2.00475
2.45023
2.61881
2.61177
2.60185
2.58487
2.5707
2.54737
2.51223
2.45551
2.30523
1
1.00001
1.00002
1.00003
1.00011
1.0002
1.00062
1.00112
1.00349
1.0066
1.01911
1.04121
1.10742
1.27061
1.81403
2.34745
2.57571
2.57182
2.57467
2.56769
2.55115
2.52318
2.47188
2.42305
2.31217
1
1
1.00001
1.00003
1.00009
1.00016
1.0005
1.00091
1.00281
1.00533
1.01504
1.03418
1.082
1.23002
1.59065
2.30319
2.54687
2.54617
2.54114
2.53542
2.52343
2.49909
2.44158
2.38788
2.30795
1
1
1.00001
1.00002
1.00007
1.00012
1.00039
1.00071
1.00209
1.0043
1.01108
1.02853
1.06436
1.19491
1.44426
2.14849
2.49017
2.53733
2.51984
2.51186
2.495
2.47873
2.43541
2.36983
2.2973
1
1
1.00001
1.00002
1.00006
1.0001
1.00032
1.00057
1.00177
1.00336
1.00931
1.02151
1.05143
1.14913
1.34052
1.94382
2.38435
2.51679
2.50947
2.49301
2.4653
2.43699
2.41434
2.36326
2.29522
1
1
1.00001
1.00001
1.00004
1.00008
1.00024
1.00044
1.00137
1.00254
1.00739
1.01557
1.0396
1.10592
1.24147
1.66516
2.25035
2.45802
2.48136
2.47628
2.45763
2.41993
2.3818
2.34376
2.28995
1
1
1.00001
1.00001
1.00003
1.00006
1.00018
1.00033
1.00103
1.00192
1.00557
1.0117
1.03003
1.08001
1.17817
1.52366
2.21131
2.39583
2.43253
2.43077
2.42707
2.40854
2.37048
2.32568
2.27658
1
1
1
1.00001
1.00002
1.00006
1.0001
1.00031
1.00058
1.00162
1.00356
1.00874
1.02342
1.05175
1.15579
1.35017
1.96864
2.34169
2.41788
2.41361
2.39448
2.38135
2.35657
2.31818
2.2709
1
1
1
1.00001
1.00001
1.00004
1.00008
1.00024
1.00044
1.00135
1.00252
1.00722
1.01544
1.03876
1.10416
1.23722
1.62881
2.18485
2.38835
2.38733
2.37578
2.3514
2.32448
2.29764
2.26244
1
1
1
1
1.00001
1.00002
1.00007
1.00014
1.00041
1.00077
1.0023
1.00452
1.01251
1.02806
1.06966
1.17838
1.4939
2.00494
2.32136
2.36845
2.36197
2.34333
2.31201
2.27768
2.24366
1
1
1
1
1.00001
1.00002
1.00004
1.00012
1.00023
1.0007
1.00132
1.0038
1.00792
1.02045
1.0521
1.11907
1.33459
1.89133
2.18067
2.30904
2.32534
2.32052
2.30434
2.2718
2.23454
1
1
1
1
1.00001
1.00001
1.00004
1.00007
1.00021
1.00038
1.00116
1.00219
1.00624
1.01314
1.03344
1.08539
1.19917
1.52108
2.0998
2.26275
2.28562
2.2832
2.27579
2.25927
2.22858
1
1
1
1
1
1.00001
1.00003
1.00005
1.00015
1.00026
1.00082
1.0015
1.00437
1.00892
1.02292
1.05914
1.12996
1.38564
1.93143
2.19164
2.26683
2.26377
2.24971
2.23257
2.20762
1
1
1
1
1
1.00001
1.00002
1.00003
1.0001
1.00018
1.00056
1.00103
1.00311
1.0059
1.01674
1.03591
1.09189
1.22483
1.65218
2.03518
2.22028
2.24198
2.23617
2.22106
2.19579
1
1
1
1
1
1
1.00001
1.00003
1.00005
1.00015
1.00028
1.00085
1.00161
1.00447
1.00968
1.02371
1.06351
1.13521
1.40865
1.93271
2.14779
2.20119
2.20611
2.19595
2.18375
1
1
1
1
1
1
1.00001
1.00002
1.00003
1.00011
1.00019
1.0006
1.00109
1.00331
1.00621
1.01764
1.03785
1.09492
1.2377
1.6579
2.03864
2.1775
2.182
2.17449
2.1585
1
1
1
1
1
1
1
1.00001
1.00002
1.00007
1.00013
1.00039
1.00071
1.00214
1.00402
1.01147
1.02389
1.06165
1.14682
1.40046
1.83218
2.11039
2.16297
2.16125
2.14943
1
1
1
1
1
1
1
1.00001
1.00002
1.00003
1.0001
1.00019
1.00058
1.00107
1.00314
1.00614
1.01671
1.03711
1.09127
1.2282
1.62197
1.96829
2.12249
2.13407
2.13104
1
1
1
1
1
1
1
1
1.00001
1.00002
1.00007
1.00012
1.00037
1.00068
1.00205
1.00381
1.0109
1.02251
1.05724
1.13792
1.35682
1.79208
2.05067
2.11268
2.11261
1
1
1
1
1
1
1
1
1.00001
1.00001
1.00004
1.00007
1.00023
1.00041
1.00124
1.0023
1.00657
1.01344
1.03393
1.08624
1.18995
1.5067
1.89195
2.06981
2.08615
1
1
1
1
1
1
1
1
1
1.00001
1.00002
1.00006
1.00011
1.00033
1.00061
1.00177
1.00344
1.00945
1.0203
1.05072
1.12193
1.32068
1.69867
1.98244
2.062
1
1
1
1
1
1
1
1
1
1.00001
1.00002
1.00003
1.00008
1.00016
1.00046
1.00087
1.00251
1.0049
1.01331
1.02835
1.073
1.16676
1.48287
1.81256
2.01025
1
1
1
1
1
1
1
1
1
1
1.00001
1.00002
1.00005
1.0001
1.00029
1.00052
1.00158
1.0029
1.00842
1.0169
1.04296
1.104
1.24644
1.61392
1.89777
1
1
1
1
1
1
1
1
1
1
1.00001
1.00001
1.00003
1.00006
1.00017
1.00031
1.00093
1.00169
1.00497
1.00963
1.02554
1.05903
1.13684
1.35527
1.76827
1
1
1
1
1
1
1
1
1
1
1
1.00001
1.00001
1.00004
1.00008
1.00023
1.00042
1.00122
1.00231
1.0064
1.01339
1.0331
1.08379
1.1837
1.49436
1
1
1
1
1
1
1
1
1
1
1
1
1.00001
1.00002
1.00004
1.00013
1.00024
1.00073
1.00133
1.00382
1.0076
1.01942
1.04774
1.10376
1.29227
1
1
1
1
1
1
1
1
1
1
1
1
1.00001
1.00001
1.00003
1.00006
1.00018
1.00033
1.00095
1.00178
1.00504
1.01018
1.02592
1.06111
1.14353
1
1
1
1
1
1
1
1
1
1
1
1
1
1.00001
1.00002
1.00003
1.0001
1.00019
1.00056
1.00101
1.00298
1.00559
1.01535
1.03289
1.07825
1
1
1
1
1
1
1
1
1
1
1
1
1
1
1.00001
1.00002
1.00006
1.0001
1.00031
1.00057
1.00166
1.00313
1.00875
1.01757
1.04595
1
1
1
1
1
1
1
1
1
1
1
1
1
1
1
1.00001
1.00003
1.00007
1.00014
1.00039
1.00073
1.00207
1.00404
1.01085
1.02259
1
1
1
1
1
1
1
1
1
1
1
1
1
1
1
1.00001
1.00001
1.00004
1.00007
1.00022
1.0004
1.00118
1.00214
1.00615
1.01196
1
1
1
1
1
1
1
1
1
1
1
1
1
1
1
1
1.00001
1.00002
1.00004
1.00012
1.00022
1.00065
1.00118
1.00342
1.00656
1
1
1
1
1
1
1
1
1
1
1
1
1
1
1
1
1.00001
1.00001
1.00003
1.00005
1.00016
1.00029
1.00084
1.00157
1.00445
1
1
1
1
1
1
1
1
1
1
1
1
1
1
1
1
1
1.00001
1.00002
1.00003
1.0001
1.00018
1.00055
1.00101
1.003
1
1
1
1
1
1
1
1
1
1
1
1
1
1
1
1
1
1
1.00001
1.00002
1.00007
1.00014
1.00041
1.00077
1.00225
1
1
1
1
1
1
1
1
1
1
1
1
1
1
1
1
1
1
1.00001
1.00003
1.00005
1.00014
1.00029
1.00077
1.0018
1
1
1
1
1
1
1
1
1
1
1
1
1
1
1
1
1
1
1.00001
1.00002
1.00006
1.00011
1.00033
1.00068
1.00181
1
1
1
1
1
1
1
1
1
1
1
1
1
1
1
1
1
1
1.00001
1.00002
1.00006
1.00011
1.00035
1.00067
1.00197
2.33672
2.23896
2.23896
2.27685
2.35793
2.41387
2.46096
2.48555
2.487
2.48393
2.48369
2.4846
2.48747
2.493
2.50097
2.51624
2.54427
2.60178
2.71213
2.89812
3.09477
3.20269
3.26282
3.27167
3.20342
3.14483
3.12528
3.10242
3.07425
3.06349
3.05215
3.04097
3.03839
3.0375
3.04465
3.059
3.07316
3.08877
3.09565
3.10116
3.10276
3.10338
3.09718
3.09554
3.08182
3.07732
3.06627
3.061
3.04947
3.04388
3.03203
3.02473
3.00903
3.00141
2.9859
2.97845
2.96323
2.95584
2.94087
2.93354
2.91882
2.91138
2.89712
2.88932
2.87621
2.86751
2.85598
2.84673
2.836
2.82688
2.81641
2.80741
2.79709
2.78818
2.77784
2.76906
2.75853
2.74981
2.73908
2.73038
2.71948
2.7108
2.6999
2.69123
2.68044
2.67185
2.66119
2.65277
2.64208
2.63398
2.62314
2.61534
2.60441
2.59687
2.58611
2.57895
2.5689
2.56305
2.55595
2.55395
2.20102
2.12182
2.07781
2.05433
2.02304
1.9943
1.97991
1.98077
1.98972
2.00364
2.02001
2.02719
2.0287
2.02968
2.0328
2.04098
2.06176
2.10964
2.21313
2.4021
2.72469
2.90029
3.0162
3.15155
3.2215
3.25682
3.28463
3.30921
3.31796
3.31269
3.2906
3.26801
3.2645
3.26753
3.25795
3.23705
3.20823
3.18365
3.15
3.12032
3.05936
3.02556
2.98167
2.95782
2.92251
2.9031
2.87327
2.85479
2.82904
2.81237
2.78983
2.77513
2.75334
2.74008
2.72036
2.70886
2.69064
2.67972
2.66292
2.65205
2.63647
2.62556
2.61078
2.59999
2.58572
2.5753
2.5614
2.55149
2.53787
2.52843
2.51508
2.50583
2.49277
2.48346
2.47068
2.46126
2.4488
2.43941
2.42726
2.41814
2.40622
2.39751
2.38573
2.3774
2.36572
2.35763
2.34604
2.33808
2.32657
2.31872
2.3073
2.29955
2.28823
2.28067
2.26962
2.26259
2.25246
2.24687
2.23964
2.238
2.19562
2.11427
2.03891
1.96495
1.89741
1.84712
1.81986
1.81681
1.81991
1.82942
1.84278
1.85495
1.86248
1.86646
1.86927
1.87502
1.8874
1.91641
1.97489
2.13808
2.33696
2.53211
2.70355
2.79027
2.87154
2.98012
3.083
3.17159
3.24006
3.29672
3.33189
3.35607
3.37176
3.37457
3.33778
3.28281
3.21426
3.13657
3.06246
2.99274
2.93739
2.89447
2.85567
2.82597
2.79522
2.77296
2.74701
2.72923
2.70781
2.69311
2.6745
2.66176
2.644
2.63167
2.61505
2.60411
2.58845
2.57801
2.56298
2.55252
2.5383
2.52791
2.51445
2.50421
2.4911
2.48105
2.46804
2.45825
2.44539
2.43585
2.4234
2.41398
2.40201
2.39252
2.38073
2.37101
2.35905
2.34905
2.33694
2.32679
2.31488
2.3048
2.29342
2.28362
2.27281
2.26334
2.25285
2.24358
2.23316
2.22402
2.21354
2.20444
2.19398
2.18491
2.17464
2.16581
2.15631
2.14849
2.14161
2.13735
2.19844
2.10697
2.02726
1.95475
1.89066
1.83791
1.79601
1.76776
1.75082
1.7469
1.74778
1.7526
1.76037
1.76889
1.77551
1.78084
1.78877
1.80704
1.84361
1.94149
2.07517
2.34394
2.48823
2.51352
2.58198
2.68556
2.74232
2.81867
2.91417
3.00262
3.08577
3.14436
3.19357
3.18138
3.13897
3.05858
2.97384
2.89816
2.82644
2.77672
2.7357
2.70637
2.68075
2.66166
2.64248
2.62802
2.61171
2.59973
2.58515
2.57592
2.56292
2.55364
2.53982
2.53009
2.51732
2.50876
2.49624
2.48757
2.47465
2.46581
2.4528
2.44376
2.43123
2.42217
2.41054
2.40156
2.39062
2.38155
2.37087
2.36159
2.35097
2.34151
2.33106
2.32146
2.31136
2.30171
2.29191
2.28232
2.2725
2.26303
2.25295
2.24362
2.23332
2.22419
2.21392
2.20497
2.195
2.18626
2.17665
2.16797
2.15851
2.14979
2.14029
2.13164
2.12208
2.11373
2.10458
2.09717
2.09025
2.08637
2.21159
2.11508
2.03366
1.96265
1.89859
1.84326
1.79408
1.75435
1.72265
1.70265
1.69335
1.69347
1.69491
1.69936
1.70653
1.71354
1.72205
1.73434
1.75965
1.80864
1.935
2.09534
2.28471
2.3797
2.43446
2.46291
2.51648
2.57919
2.6334
2.69601
2.77201
2.82142
2.8758
2.87183
2.84304
2.78304
2.72669
2.66887
2.62873
2.60701
2.59134
2.58097
2.57047
2.56383
2.55337
2.54602
2.535
2.52764
2.51758
2.51129
2.50265
2.49641
2.48518
2.47501
2.46157
2.45209
2.44049
2.43223
2.42145
2.41305
2.40152
2.39233
2.38033
2.37136
2.35988
2.3513
2.34011
2.3312
2.3198
2.31043
2.29902
2.28959
2.27833
2.26895
2.25765
2.24818
2.23681
2.22732
2.2161
2.20671
2.19577
2.18629
2.17554
2.16582
2.15522
2.14539
2.13488
2.12514
2.11471
2.1052
2.09492
2.08565
2.07564
2.06659
2.05704
2.04823
2.03945
2.03137
2.02464
2.01993
2.21461
2.13386
2.05442
1.98332
1.91838
1.86154
1.81051
1.76755
1.73048
1.70154
1.67886
1.66481
1.65821
1.65827
1.65942
1.66374
1.6696
1.68017
1.6954
1.72745
1.79197
1.93121
2.13567
2.23816
2.2906
2.34673
2.38207
2.41134
2.45586
2.51006
2.56803
2.61583
2.6701
2.67418
2.65358
2.61066
2.56511
2.52289
2.49618
2.47897
2.46973
2.46482
2.46352
2.46043
2.45677
2.45411
2.44878
2.44436
2.43513
2.42754
2.41832
2.41301
2.40575
2.39955
2.38955
2.38081
2.36996
2.36133
2.35137
2.34397
2.33503
2.32746
2.31762
2.30854
2.29797
2.2888
2.27871
2.27015
2.26012
2.25138
2.2407
2.23163
2.22084
2.21205
2.20178
2.19329
2.1833
2.17454
2.16437
2.15513
2.14485
2.13559
2.1256
2.11661
2.10685
2.098
2.08822
2.07937
2.06951
2.06069
2.05089
2.04218
2.03256
2.02398
2.01458
2.00622
1.99731
1.9897
1.98265
1.97844
2.21942
2.14496
2.0723
2.00458
1.94218
1.88515
1.83404
1.788
1.74802
1.7129
1.68379
1.66025
1.6437
1.63309
1.63014
1.63049
1.63242
1.63681
1.64646
1.66704
1.70533
1.80354
1.92205
2.12712
2.21777
2.23654
2.27366
2.31128
2.3513
2.38382
2.44797
2.51049
2.55635
2.56073
2.53911
2.50002
2.45884
2.41909
2.3936
2.37792
2.3691
2.37114
2.37727
2.38516
2.38832
2.39187
2.39045
2.38836
2.38369
2.37992
2.37476
2.37176
2.36692
2.36301
2.35518
2.34718
2.33729
2.32877
2.31911
2.31108
2.30192
2.29429
2.28511
2.27701
2.26705
2.25805
2.24748
2.2382
2.22779
2.21873
2.20853
2.19932
2.18884
2.17917
2.16844
2.15876
2.14823
2.13893
2.12856
2.1195
2.10895
2.0998
2.08907
2.07993
2.06954
2.06072
2.05102
2.04251
2.03325
2.02475
2.01544
2.00682
1.99731
1.98872
1.97931
1.97106
1.96223
1.95485
1.94782
1.94388
2.22371
2.15592
2.08944
2.0257
1.9659
1.9106
1.85959
1.81342
1.77168
1.73458
1.70252
1.67464
1.65202
1.63373
1.62149
1.614
1.61272
1.61406
1.61809
1.62753
1.65131
1.69465
1.81365
1.93334
2.10885
2.18923
2.2078
2.22636
2.26938
2.31936
2.38673
2.45696
2.49781
2.49939
2.47525
2.43922
2.39465
2.3537
2.32529
2.31425
2.30714
2.30321
2.30863
2.31981
2.32907
2.3355
2.33907
2.33915
2.33628
2.33258
2.32725
2.32314
2.31802
2.31368
2.30696
2.29989
2.29066
2.28259
2.27298
2.26478
2.25509
2.24676
2.23696
2.22824
2.21808
2.20896
2.19859
2.18948
2.17922
2.17048
2.16051
2.15205
2.14216
2.13357
2.12349
2.11447
2.10414
2.09492
2.08477
2.07576
2.06602
2.05739
2.04792
2.03944
2.02989
2.02131
2.01161
2.00306
1.99355
1.98543
1.97642
1.96893
1.96037
1.95328
1.94488
1.93781
1.92956
1.92264
1.91568
1.91157
2.22147
2.16139
2.10065
2.04224
1.98615
1.93333
1.88447
1.83838
1.79732
1.75855
1.72512
1.69399
1.66809
1.64523
1.62652
1.61259
1.60273
1.59953
1.60079
1.60424
1.6139
1.63981
1.68887
1.821
1.95974
2.09301
2.15864
2.18838
2.22022
2.28313
2.37461
2.45523
2.4791
2.47178
2.44405
2.40742
2.35757
2.31814
2.28979
2.27509
2.26467
2.25948
2.25714
2.26274
2.27487
2.28384
2.29228
2.29383
2.2936
2.29097
2.28612
2.28269
2.27784
2.27425
2.26811
2.26187
2.25249
2.24415
2.23408
2.22579
2.21596
2.20793
2.19841
2.19045
2.18088
2.17253
2.16254
2.15359
2.14315
2.13385
2.12332
2.11413
2.10394
2.09515
2.08537
2.07697
2.0675
2.05927
2.04969
2.04134
2.03151
2.02312
2.01328
2.00517
1.99563
1.98795
1.97876
1.97133
1.96234
1.95486
1.946
1.93836
1.92979
1.92215
1.91404
1.90669
1.89911
1.89253
1.8861
1.88274
2.21917
2.16433
2.10856
2.05345
2.00136
1.95076
1.90431
1.85996
1.81913
1.78159
1.74652
1.71564
1.68654
1.66233
1.63963
1.62237
1.60648
1.59632
1.59056
1.59098
1.59511
1.60485
1.63241
1.68875
1.82261
1.97992
2.09159
2.14677
2.21183
2.29238
2.40161
2.47298
2.47899
2.46569
2.43365
2.39058
2.3421
2.30301
2.27295
2.25073
2.23455
2.22661
2.22324
2.22231
2.22651
2.23555
2.24358
2.24883
2.2505
2.25018
2.2466
2.24356
2.2378
2.23387
2.22732
2.22197
2.21327
2.20555
2.19571
2.18747
2.17744
2.169
2.15899
2.15071
2.14111
2.13315
2.12384
2.11597
2.10664
2.09853
2.08893
2.08047
2.07059
2.06191
2.05204
2.04356
2.03396
2.02584
2.01662
2.00882
1.99984
1.99218
1.98324
1.97559
1.96667
1.95911
1.95033
1.94294
1.93437
1.92717
1.91875
1.91167
1.90332
1.89633
1.88807
1.88122
1.87324
1.86688
1.8601
1.85666
2.21633
2.16638
2.11587
2.06409
2.0145
1.96628
1.92068
1.8781
1.83773
1.80049
1.76611
1.73364
1.70531
1.67772
1.65501
1.63268
1.61583
1.5993
1.58895
1.58138
1.58172
1.58615
1.59611
1.62741
1.69206
1.82687
2.01
2.11926
2.19218
2.34173
2.46156
2.49738
2.4938
2.47211
2.43691
2.38605
2.34051
2.30262
2.27125
2.24301
2.22123
2.20558
2.19849
2.19263
2.19138
2.1879
2.19134
2.19711
2.20075
2.20275
2.20217
2.19919
2.19391
2.18956
2.18351
2.17902
2.17181
2.16541
2.1566
2.14963
2.14083
2.13383
2.12496
2.11763
2.10854
2.10092
2.09173
2.08397
2.0748
2.06708
2.05805
2.05034
2.04135
2.03362
2.02462
2.01679
2.00776
1.99996
1.99105
1.98347
1.97478
1.96745
1.95897
1.95181
1.94348
1.93637
1.92815
1.92102
1.91289
1.90576
1.89774
1.89062
1.88278
1.87573
1.86808
1.86121
1.85384
1.84753
1.84111
1.83773
2.20663
2.16471
2.11886
2.07278
2.02638
1.98171
1.93751
1.89642
1.85656
1.81981
1.78482
1.7529
1.72242
1.69556
1.66951
1.64743
1.62612
1.60899
1.59273
1.58178
1.57425
1.57481
1.57996
1.59307
1.62672
1.71909
1.84097
2.06132
2.20971
2.39388
2.52009
2.52916
2.51847
2.48657
2.43864
2.39281
2.35439
2.31637
2.28033
2.24417
2.21468
2.19178
2.17549
2.16369
2.15399
2.14364
2.13853
2.13865
2.14252
2.14865
2.1505
2.15129
2.1484
2.14572
2.14043
2.13754
2.13195
2.12744
2.11999
2.11398
2.10625
2.1002
2.09245
2.08605
2.07787
2.07098
2.06251
2.05526
2.04658
2.03909
2.03033
2.02282
2.01423
2.00687
1.99835
1.99102
1.98248
1.97512
1.96658
1.95926
1.95083
1.94364
1.93536
1.92831
1.92019
1.91323
1.90526
1.89838
1.8906
1.88379
1.87619
1.86943
1.86192
1.8552
1.84772
1.84113
1.83377
1.8277
1.82123
1.81801
2.19645
2.15612
2.11691
2.07509
2.03299
1.99193
1.95162
1.91255
1.87534
1.83929
1.80578
1.77348
1.74386
1.71549
1.6899
1.66545
1.6439
1.62375
1.60589
1.59138
1.57812
1.57422
1.57571
1.58345
1.60168
1.64798
1.75111
1.96178
2.19352
2.49047
2.5796
2.57347
2.54075
2.49719
2.45212
2.41138
2.36941
2.32691
2.28104
2.24025
2.20178
2.17359
2.14927
2.1312
2.1147
2.10484
2.09462
2.09137
2.08947
2.09325
2.09725
2.10195
2.10324
2.10354
2.10121
2.0988
2.09481
2.09181
2.08618
2.08062
2.07325
2.06706
2.05968
2.05333
2.04569
2.03914
2.03131
2.02469
2.01669
2.00983
2.0017
1.99483
1.98672
1.9798
1.97162
1.96459
1.95636
1.94933
1.94116
1.9343
1.92626
1.91963
1.91167
1.90518
1.89728
1.89083
1.88308
1.87664
1.86915
1.86275
1.8555
1.84918
1.84202
1.83574
1.82857
1.82236
1.81523
1.80941
1.80304
1.79987
2.1935
2.15491
2.11545
2.07606
2.03654
1.99688
1.95955
1.9219
1.88749
1.85245
1.82114
1.78913
1.76099
1.73225
1.70748
1.68184
1.66073
1.63826
1.62083
1.60239
1.58924
1.5793
1.5798
1.58496
1.59968
1.63503
1.71967
1.88725
2.19269
2.52777
2.60027
2.57518
2.53881
2.4992
2.4508
2.39335
2.33872
2.2916
2.25201
2.21363
2.17777
2.14463
2.11846
2.09632
2.08112
2.06675
2.05886
2.04986
2.04572
2.04338
2.04548
2.05047
2.05661
2.05988
2.06162
2.0608
2.05816
2.05621
2.05235
2.04917
2.04306
2.0378
2.03112
2.02542
2.01854
2.01252
2.00525
1.99896
1.99129
1.98492
1.97722
1.97091
1.96324
1.95684
1.94909
1.9425
1.9346
1.92791
1.91988
1.91328
1.90522
1.89881
1.89082
1.88459
1.87677
1.87061
1.86306
1.85689
1.84964
1.8435
1.83646
1.8304
1.82344
1.81748
1.81049
1.80462
1.79766
1.79209
1.78585
1.78277
2.1831
2.1521
2.11509
2.07885
2.04228
2.00422
1.9681
1.93204
1.89806
1.86493
1.8336
1.80339
1.77504
1.74729
1.72243
1.69696
1.67555
1.65265
1.63457
1.61514
1.60115
1.59026
1.59066
1.59628
1.61087
1.64279
1.73541
1.85389
2.08952
2.33285
2.50005
2.5022
2.47628
2.44526
2.3953
2.33996
2.29123
2.25408
2.22361
2.19192
2.15924
2.12817
2.10172
2.07861
2.05914
2.0429
2.02991
2.02014
2.01333
2.00792
2.00635
2.00643
2.00998
2.01424
2.01995
2.02213
2.0244
2.02341
2.02133
2.01952
2.01576
2.01169
2.00534
1.99998
1.99331
1.98782
1.98107
1.97536
1.96842
1.96257
1.95547
1.9495
1.94219
1.93612
1.9286
1.92243
1.91472
1.90849
1.90065
1.89442
1.88656
1.88036
1.8726
1.86641
1.85888
1.85268
1.84538
1.8392
1.83206
1.82598
1.81896
1.81301
1.80612
1.80033
1.79355
1.7879
1.78123
1.77591
1.76988
1.76698
2.16814
2.14125
2.11196
2.07684
2.04392
2.0097
1.97445
1.94092
1.90754
1.87531
1.84527
1.8147
1.78808
1.75968
1.73571
1.71017
1.68836
1.66615
1.64657
1.62849
1.61323
1.60652
1.6089
1.61767
1.63693
1.68507
1.77976
1.91753
2.03525
2.174
2.34059
2.41588
2.41921
2.39778
2.37611
2.33505
2.28325
2.24256
2.21024
2.17931
2.14782
2.11861
2.09156
2.06785
2.04585
2.02683
2.01007
1.99701
1.98605
1.97871
1.97329
1.97197
1.97204
1.97459
1.97995
1.98539
1.98915
1.9919
1.99176
1.99069
1.98868
1.98651
1.98202
1.97706
1.97067
1.96529
1.95866
1.95306
1.94632
1.94074
1.934
1.92839
1.92157
1.91586
1.90889
1.90313
1.896
1.89021
1.8829
1.87701
1.86961
1.86361
1.85626
1.85015
1.84289
1.8367
1.82952
1.82334
1.81625
1.81018
1.80326
1.79736
1.79066
1.78489
1.77835
1.77271
1.76629
1.76101
1.75515
1.75229
2.1592
2.13392
2.10785
2.07737
2.04384
2.01344
1.98071
1.94807
1.91733
1.88493
1.85641
1.82627
1.79943
1.77256
1.74729
1.72349
1.70001
1.67947
1.65861
1.64231
1.6292
1.62847
1.6341
1.64955
1.68454
1.75921
1.87735
1.96131
2.01941
2.07017
2.16601
2.27721
2.33825
2.35491
2.34179
2.32526
2.28393
2.24252
2.20636
2.1733
2.14178
2.11312
2.08634
2.06152
2.03844
2.01759
1.99845
1.9825
1.96895
1.95901
1.95099
1.94578
1.9429
1.94279
1.9435
1.94762
1.95171
1.95658
1.9586
1.96067
1.95974
1.95868
1.95631
1.9536
1.9481
1.94281
1.93643
1.93089
1.92461
1.91927
1.91319
1.90799
1.90181
1.89655
1.89007
1.8846
1.87787
1.87214
1.8653
1.85933
1.85249
1.84644
1.83963
1.83365
1.82687
1.82097
1.81419
1.80829
1.80156
1.79566
1.78907
1.78324
1.77682
1.77109
1.7648
1.7592
1.75297
1.7477
1.74198
1.73897
2.13788
2.11611
2.09359
2.07247
2.04337
2.01338
1.98509
1.95352
1.92469
1.89437
1.86532
1.83766
1.80971
1.78429
1.75865
1.73527
1.71229
1.69126
1.67244
1.65702
1.65196
1.65689
1.66906
1.69601
1.76279
1.86748
1.95236
1.99492
2.00738
2.02716
2.05792
2.12359
2.19393
2.26417
2.30118
2.29406
2.27412
2.24645
2.21279
2.17722
2.14379
2.11263
2.08457
2.05835
2.03417
2.01157
1.99131
1.97277
1.95701
1.94351
1.93335
1.92396
1.91791
1.9132
1.91234
1.9116
1.91344
1.91792
1.9217
1.92542
1.92704
1.92731
1.926
1.92471
1.92196
1.91826
1.91252
1.90761
1.90173
1.89691
1.89112
1.88632
1.88054
1.87544
1.86951
1.864
1.85789
1.8521
1.84579
1.83995
1.83346
1.82771
1.82109
1.81542
1.8088
1.80316
1.79663
1.791
1.78461
1.77904
1.77281
1.76734
1.76127
1.75594
1.74997
1.74477
1.73887
1.73395
1.72849
1.72572
2.13129
2.10689
2.08244
2.06096
2.03939
2.01235
1.98542
1.95806
1.92947
1.90225
1.87407
1.84682
1.8206
1.79451
1.77017
1.74627
1.72433
1.704
1.68713
1.67856
1.68144
1.69184
1.71592
1.77132
1.86809
1.96018
2.00117
2.01054
2.00483
2.00268
2.008
2.02752
2.07311
2.1271
2.20764
2.24584
2.24823
2.23374
2.21874
2.18705
2.15302
2.11753
2.08668
2.05719
2.03109
2.00713
1.98529
1.96516
1.94699
1.93094
1.91696
1.90546
1.89556
1.88728
1.88202
1.87921
1.8782
1.87856
1.88183
1.88474
1.8894
1.89159
1.89367
1.89323
1.89225
1.89075
1.88758
1.88361
1.87815
1.87341
1.8677
1.86302
1.85738
1.85265
1.84686
1.84194
1.83597
1.83085
1.82465
1.81934
1.81298
1.80754
1.80114
1.79568
1.78932
1.78394
1.77771
1.77244
1.76638
1.76117
1.75526
1.75009
1.7443
1.73923
1.73353
1.72865
1.72299
1.71851
1.71324
1.71094
2.11649
2.09573
2.07159
2.04898
2.02758
2.00721
1.98331
1.95818
1.93286
1.90619
1.88132
1.85484
1.82976
1.80478
1.78077
1.75809
1.73633
1.71869
1.7074
1.70775
1.71704
1.73946
1.78525
1.87907
1.97473
2.0214
2.02789
2.01659
2.00385
1.98892
1.98475
1.98632
1.99779
2.02588
2.07528
2.14
2.18057
2.20163
2.19498
2.17959
2.15496
2.12377
2.09137
2.05913
2.02922
2.00354
1.97916
1.9572
1.93673
1.91898
1.90243
1.88824
1.87584
1.86586
1.85678
1.85043
1.84667
1.84571
1.84548
1.84721
1.85156
1.855
1.85951
1.86127
1.86248
1.86169
1.86048
1.85863
1.85466
1.85039
1.84486
1.84034
1.83491
1.83045
1.82494
1.82033
1.81459
1.80982
1.80388
1.79906
1.793
1.78822
1.78212
1.77736
1.77131
1.76647
1.76056
1.75559
1.74984
1.74483
1.73917
1.73423
1.72863
1.72379
1.71825
1.71348
1.70802
1.70348
1.69844
1.6959
2.10556
2.08983
2.06572
2.04187
2.01958
1.99696
1.97616
1.95405
1.93173
1.90801
1.88365
1.86054
1.83658
1.81341
1.79057
1.76982
1.75062
1.7383
1.73694
1.74581
1.76608
1.80889
1.8962
1.99378
2.04334
2.05088
2.03714
2.02248
2.00381
1.98223
1.96795
1.96241
1.96301
1.96808
1.98504
2.02142
2.06406
2.11766
2.14286
2.14455
2.13327
2.12005
2.09234
2.06173
2.03135
2.00287
1.97526
1.95106
1.92924
1.90907
1.89115
1.87476
1.86056
1.84783
1.83739
1.82804
1.82093
1.81658
1.81486
1.81486
1.81562
1.81854
1.82254
1.82714
1.82976
1.83187
1.83168
1.83098
1.82935
1.82709
1.82245
1.81833
1.81305
1.80866
1.80342
1.79903
1.79377
1.78931
1.78392
1.77945
1.77393
1.76943
1.76374
1.75919
1.75345
1.74887
1.74322
1.73868
1.73316
1.72864
1.72318
1.71863
1.71322
1.70859
1.70323
1.69859
1.6933
1.68892
1.68409
1.68164
2.08649
2.07533
2.05855
2.03536
2.01363
1.99187
1.96972
1.94864
1.92607
1.90548
1.88354
1.86082
1.83964
1.81795
1.79782
1.77938
1.76687
1.76453
1.77346
1.79249
1.8364
1.91474
2.01349
2.06781
2.07565
2.06155
2.04582
2.02386
1.99915
1.97572
1.9575
1.94364
1.93659
1.93459
1.93529
1.94363
1.96508
2.0008
2.04434
2.07523
2.09456
2.08864
2.07596
2.06115
2.03422
2.00504
1.97546
1.94936
1.92526
1.90319
1.88351
1.86513
1.8491
1.83437
1.82173
1.8105
1.8012
1.79324
1.7881
1.7854
1.78517
1.78526
1.78696
1.79091
1.79433
1.79885
1.80057
1.80206
1.80159
1.8008
1.79885
1.79618
1.79145
1.78734
1.78224
1.77803
1.77305
1.7689
1.76387
1.75966
1.75442
1.75011
1.74474
1.74038
1.73498
1.73063
1.72528
1.72096
1.71566
1.71138
1.70614
1.70188
1.6967
1.69243
1.68733
1.68312
1.67816
1.67429
1.66987
1.66793
2.06515
2.06044
2.04767
2.02634
2.0053
1.98554
1.96471
1.94449
1.92379
1.90215
1.88204
1.86127
1.84049
1.82168
1.80367
1.79155
1.78925
1.79847
1.81732
1.85938
1.93457
2.03672
2.09497
2.10235
2.08814
2.06945
2.04647
2.01855
1.99416
1.97217
1.95208
1.93474
1.91968
1.91139
1.90449
1.9046
1.9062
1.91739
1.94124
1.97313
2.01332
2.03346
2.0425
2.03629
2.02505
2.00575
1.97903
1.95295
1.92611
1.90151
1.8796
1.85946
1.84132
1.82451
1.80964
1.79645
1.78512
1.77537
1.76703
1.76106
1.75742
1.75631
1.75635
1.75728
1.75976
1.76435
1.76844
1.77176
1.77354
1.7741
1.77367
1.77258
1.77001
1.76652
1.7617
1.75762
1.75274
1.74873
1.74399
1.74004
1.73525
1.7312
1.72623
1.72208
1.71698
1.71282
1.70768
1.70358
1.6985
1.69449
1.68949
1.68557
1.68065
1.67684
1.67205
1.66846
1.66388
1.66082
1.65692
1.6557
2.04151
2.04142
2.03368
2.01989
1.99763
1.97702
1.95723
1.9369
1.91763
1.898
1.87806
1.85943
1.8414
1.82441
1.81307
1.81086
1.82083
1.8401
1.88118
1.95682
2.05605
2.11617
2.12416
2.11007
2.0918
2.06667
2.03848
2.0137
1.99024
1.96977
1.94808
1.92911
1.91093
1.89585
1.88424
1.87734
1.87098
1.87174
1.87506
1.88794
1.91251
1.94113
1.97382
1.99072
1.99284
1.98586
1.97543
1.95572
1.9303
1.90522
1.88073
1.85813
1.83752
1.81893
1.80168
1.78667
1.7729
1.76161
1.75104
1.74287
1.73551
1.73148
1.72918
1.7292
1.72961
1.73138
1.73531
1.73946
1.74378
1.74586
1.7474
1.74718
1.74645
1.74491
1.74154
1.73796
1.7332
1.72924
1.72451
1.72071
1.71602
1.71223
1.7074
1.70351
1.69863
1.69472
1.68992
1.68606
1.68132
1.67762
1.67288
1.66944
1.6647
1.6615
1.65694
1.65408
1.65009
1.64797
1.6452
1.64453
2.00446
2.01915
2.01866
2.00992
1.99337
1.97227
1.95308
1.93366
1.914
1.89505
1.87578
1.85778
1.84216
1.83124
1.8291
1.84028
1.86012
1.90126
1.97828
2.07557
2.13709
2.14545
2.13202
2.11386
2.08732
2.05866
2.03242
2.00974
1.98779
1.96614
1.94573
1.92485
1.90646
1.88787
1.87286
1.8597
1.84988
1.84308
1.83812
1.839
1.84351
1.85768
1.88269
1.90858
1.93291
1.9482
1.94552
1.93901
1.92848
1.91003
1.88537
1.86148
1.83789
1.81721
1.79792
1.78095
1.76491
1.7511
1.73876
1.728
1.71916
1.71129
1.70647
1.70309
1.70263
1.70283
1.70405
1.70699
1.71166
1.71573
1.71929
1.72103
1.72202
1.72173
1.72062
1.71872
1.71475
1.71118
1.70655
1.70276
1.69822
1.69455
1.68998
1.68632
1.68161
1.67799
1.67319
1.66971
1.66492
1.66166
1.65696
1.65392
1.64947
1.64682
1.6429
1.64109
1.63809
1.63688
1.6347
1.63477
1.9403
1.98813
1.99343
1.99013
1.98098
1.96451
1.94581
1.92871
1.91089
1.8929
1.87618
1.85929
1.84822
1.84625
1.85854
1.87898
1.92191
1.99996
2.09731
2.15889
2.1676
2.15414
2.13597
2.10903
2.0792
2.05228
2.02857
2.00655
1.98546
1.96432
1.94379
1.923
1.90351
1.88457
1.86657
1.85084
1.83581
1.8251
1.81469
1.80777
1.80432
1.80515
1.80997
1.82355
1.84757
1.87189
1.89049
1.90396
1.89951
1.8939
1.88336
1.86586
1.84174
1.81841
1.79715
1.77755
1.75969
1.74308
1.72909
1.71598
1.70534
1.69536
1.68766
1.68157
1.67779
1.67655
1.67675
1.67759
1.68014
1.68386
1.68851
1.69242
1.69522
1.69676
1.69693
1.69654
1.69504
1.69294
1.68876
1.68538
1.68081
1.67754
1.673
1.6698
1.66523
1.66205
1.6575
1.65442
1.6499
1.64698
1.64265
1.64013
1.63635
1.63466
1.63183
1.63069
1.62841
1.62829
1.62808
1.62845
1.80117
1.95066
1.97212
1.97294
1.9662
1.95538
1.93876
1.92112
1.90566
1.88949
1.87588
1.86584
1.86424
1.87693
1.89815
1.9436
2.02198
2.1216
2.18056
2.189
2.17494
2.15625
2.12867
2.09916
2.07247
2.04844
2.02647
2.00517
1.98451
1.96349
1.94254
1.92202
1.90143
1.88233
1.86279
1.84517
1.82753
1.81215
1.79865
1.78702
1.77709
1.7703
1.76807
1.76894
1.77392
1.78679
1.80962
1.83187
1.84693
1.85875
1.85476
1.84901
1.83848
1.82085
1.79993
1.77664
1.75536
1.73677
1.72039
1.7056
1.6921
1.68105
1.67087
1.6633
1.65655
1.65283
1.65044
1.65058
1.65128
1.65311
1.65671
1.66123
1.66562
1.66905
1.67119
1.67234
1.67249
1.6719
1.66992
1.66755
1.66352
1.66058
1.6563
1.6535
1.64929
1.64663
1.64249
1.63997