/*--------------------------------*- C++ -*----------------------------------*\
| =========                 |                                                 |
| \\      /  F ield         | OpenFOAM: The Open Source CFD Toolbox           |
|  \\    /   O peration     | Version:  2112                                  |
|   \\  /    A nd           | Website:  www.openfoam.com                      |
|    \\/     M anipulation  |                                                 |
\*---------------------------------------------------------------------------*/
FoamFile
{
    version     2.0;
    format      ascii;
    arch        "LSB;label=32;scalar=64";
    class       volVectorField;
    location    "3.5";
    object      U;
}
// * * * * * * * * * * * * * * * * * * * * * * * * * * * * * * * * * * * * * //

dimensions      [0 1 -1 0 0 0 0];

internalField   nonuniform List<vector> 
5250
(
(2.99999 1.29633e-08 0)
(2.99998 1.00447e-07 0)
(2.99996 3.09238e-07 0)
(2.9999 9.3361e-07 0)
(2.99974 2.20548e-06 0)
(2.99944 5.94133e-06 0)
(2.99848 1.30759e-05 0)
(2.99685 3.62848e-05 0)
(2.99048 7.54523e-05 0)
(2.98051 0.000228345 0)
(2.93944 0.000473159 0)
(2.84824 0.00157325 0)
(2.57762 0.00368407 0)
(1.71715 0.0120654 0)
(0.831258 0.0295808 0)
(0.474994 0.0268027 0)
(0.534841 0.0260079 0)
(0.545734 0.0273791 0)
(0.48983 0.0288702 0)
(0.400022 0.0305514 0)
(0.317108 0.0326114 0)
(0.24953 0.0349758 0)
(0.181416 0.0372672 0)
(0.10523 0.039142 0)
(0.0417078 0.039819 0)
(2.99999 3.85574e-08 0)
(2.99998 2.99706e-07 0)
(2.99996 9.21805e-07 0)
(2.9999 2.78951e-06 0)
(2.99975 6.5881e-06 0)
(2.99945 1.78296e-05 0)
(2.9985 3.91925e-05 0)
(2.99691 0.000109797 0)
(2.99064 0.00022781 0)
(2.98084 0.00069849 0)
(2.94051 0.00144548 0)
(2.85109 0.00487295 0)
(2.58546 0.0114793 0)
(1.73909 0.037558 0)
(0.843555 0.0900668 0)
(0.470899 0.0767336 0)
(0.534329 0.070826 0)
(0.546862 0.0722485 0)
(0.490886 0.0741101 0)
(0.401324 0.0766213 0)
(0.318559 0.0795814 0)
(0.250707 0.0826945 0)
(0.182162 0.0852064 0)
(0.105452 0.0865766 0)
(0.041284 0.085069 0)
(3 6.08405e-08 0)
(2.99999 4.72487e-07 0)
(2.99996 1.45287e-06 0)
(2.99991 4.39629e-06 0)
(2.99976 1.03458e-05 0)
(2.99947 2.82869e-05 0)
(2.99855 6.06651e-05 0)
(2.99701 0.000178965 0)
(2.99097 0.000351884 0)
(2.98153 0.00117984 0)
(2.94276 0.00237168 0)
(2.85719 0.00823928 0)
(2.60244 0.0195426 0)
(1.78847 0.0640411 0)
(0.873148 0.15536 0)
(0.466834 0.12997 0)
(0.53776 0.118561 0)
(0.553871 0.121314 0)
(0.498063 0.125207 0)
(0.409056 0.130661 0)
(0.3263 0.136331 0)
(0.257685 0.142062 0)
(0.187917 0.147003 0)
(0.109363 0.149902 0)
(0.0427608 0.147811 0)
(3 7.84255e-08 0)
(2.99999 6.07762e-07 0)
(2.99996 1.86857e-06 0)
(2.99991 5.64969e-06 0)
(2.99977 1.32443e-05 0)
(2.99949 3.65987e-05 0)
(2.99863 7.62048e-05 0)
(2.99715 0.000238414 0)
(2.99147 0.000437686 0)
(2.98254 0.00162835 0)
(2.94613 0.00316712 0)
(2.86644 0.0112862 0)
(2.62811 0.026937 0)
(1.86493 0.0881025 0)
(0.920173 0.218199 0)
(0.464313 0.182886 0)
(0.546378 0.166085 0)
(0.568124 0.170165 0)
(0.512606 0.176236 0)
(0.424195 0.185142 0)
(0.340915 0.193824 0)
(0.271066 0.202512 0)
(0.19926 0.210617 0)
(0.117113 0.216161 0)
(0.0458883 0.21435 0)
(3 9.44072e-08 0)
(2.99999 7.32224e-07 0)
(2.99996 2.2507e-06 0)
(2.99992 6.81171e-06 0)
(2.99978 1.5982e-05 0)
(2.99952 4.42114e-05 0)
(2.99872 9.20824e-05 0)
(2.99731 0.000289193 0)
(2.99212 0.000523799 0)
(2.98383 0.00198328 0)
(2.95046 0.00382458 0)
(2.87843 0.0136495 0)
(2.6614 0.0326645 0)
(1.96704 0.10662 0)
(0.987349 0.27189 0)
(0.470257 0.234969 0)
(0.563044 0.214208 0)
(0.591054 0.218316 0)
(0.535796 0.225978 0)
(0.447873 0.238754 0)
(0.36322 0.251209 0)
(0.291326 0.263752 0)
(0.216709 0.275949 0)
(0.129525 0.28536 0)
(0.0513619 0.285062 0)
(3 1.0663e-07 0)
(2.99999 8.27603e-07 0)
(2.99997 2.54486e-06 0)
(2.99992 7.70383e-06 0)
(2.9998 1.81362e-05 0)
(2.99956 4.97592e-05 0)
(2.99883 0.000105784 0)
(2.99751 0.000320925 0)
(2.99287 0.000593399 0)
(2.98532 0.00218033 0)
(2.95547 0.00422486 0)
(2.89211 0.0148084 0)
(2.69968 0.0363723 0)
(2.08879 0.116352 0)
(1.07632 0.308125 0)
(0.495573 0.289224 0)
(0.59109 0.269459 0)
(0.623933 0.270788 0)
(0.569561 0.277962 0)
(0.482355 0.293992 0)
(0.395464 0.31042 0)
(0.320633 0.327702 0)
(0.242066 0.345719 0)
(0.147826 0.361514 0)
(0.059878 0.365432 0)
(3 1.08617e-07 0)
(2.99999 8.40346e-07 0)
(2.99997 2.58715e-06 0)
(2.99993 7.79514e-06 0)
(2.99982 1.84012e-05 0)
(2.9996 4.95166e-05 0)
(2.99895 0.000108072 0)
(2.99772 0.000307426 0)
(2.99366 0.000598277 0)
(2.98688 0.00204343 0)
(2.96062 0.0039101 0)
(2.9069 0.013584 0)
(2.73983 0.0337277 0)
(2.21979 0.10217 0)
(1.20762 0.280489 0)
(0.557483 0.323786 0)
(0.63637 0.323689 0)
(0.668098 0.323487 0)
(0.615876 0.331294 0)
(0.530183 0.35153 0)
(0.440076 0.373137 0)
(0.361311 0.396323 0)
(0.27828 0.42192 0)
(0.175695 0.447588 0)
(0.07396 0.461274 0)
(3 1.0603e-07 0)
(2.99999 8.16293e-07 0)
(2.99997 2.51544e-06 0)
(2.99994 7.52534e-06 0)
(2.99983 1.77403e-05 0)
(2.99963 4.67892e-05 0)
(2.99904 0.000103599 0)
(2.99792 0.000277349 0)
(2.99431 0.000564 0)
(2.9881 0.00177706 0)
(2.96479 0.00328795 0)
(2.91831 0.0114799 0)
(2.76753 0.0279158 0)
(2.30875 0.0771455 0)
(1.33429 0.224779 0)
(0.604397 0.358863 0)
(0.659024 0.38378 0)
(0.693751 0.377441 0)
(0.65633 0.387349 0)
(0.58031 0.409629 0)
(0.491986 0.438413 0)
(0.412008 0.469959 0)
(0.326397 0.50603 0)
(0.216664 0.54709 0)
(0.0974372 0.582309 0)
(3 1.16145e-07 0)
(2.99999 8.88058e-07 0)
(2.99997 2.74039e-06 0)
(2.99994 8.16065e-06 0)
(2.99985 1.93093e-05 0)
(2.99967 5.05065e-05 0)
(2.99914 0.000112949 0)
(2.9981 0.000291467 0)
(2.9949 0.000627823 0)
(2.98917 0.00172796 0)
(2.96848 0.0035448 0)
(2.92834 0.0104658 0)
(2.7897 0.0258179 0)
(2.38959 0.0694497 0)
(1.49284 0.199106 0)
(0.682527 0.405269 0)
(0.668159 0.434162 0)
(0.698549 0.428056 0)
(0.683599 0.442361 0)
(0.624285 0.466363 0)
(0.546483 0.503507 0)
(0.470692 0.545816 0)
(0.38857 0.595698 0)
(0.279586 0.661996 0)
(0.139497 0.744401 0)
(3 5.61249e-08 0)
(2.99999 1.40888e-06 0)
(2.99998 2.88554e-06 0)
(2.99995 1.25171e-05 0)
(2.99987 2.09131e-05 0)
(2.99971 8.03418e-05 0)
(2.99925 0.000115657 0)
(2.99835 0.000490412 0)
(2.9955 0.000535446 0)
(2.99054 0.00287897 0)
(2.9719 0.00206282 0)
(2.93757 0.0174018 0)
(2.81249 0.0129409 0)
(2.46201 0.0985126 0)
(1.64908 0.177201 0)
(0.777981 0.445846 0)
(0.67388 0.465144 0)
(0.705045 0.467908 0)
(0.706503 0.488388 0)
(0.664461 0.518768 0)
(0.602871 0.563826 0)
(0.537424 0.618121 0)
(0.469516 0.689297 0)
(0.381241 0.80062 0)
(0.217341 1.00419 0)
(3 1.01432e-07 0)
(2.99999 7.92068e-07 0)
(2.99998 2.43677e-06 0)
(2.99996 7.36893e-06 0)
(2.99991 1.74785e-05 0)
(2.99975 4.6524e-05 0)
(2.99948 0.00010531 0)
(2.99845 0.000271017 0)
(2.99689 0.000618767 0)
(2.99045 0.00157115 0)
(2.98019 0.00352051 0)
(2.93812 0.00981398 0)
(2.84517 0.0236868 0)
(2.56324 0.066784 0)
(1.71479 0.195521 0)
(0.894782 0.477247 0)
(0.677772 0.490497 0)
(0.713422 0.499163 0)
(0.730002 0.524076 0)
(0.704137 0.562812 0)
(0.660558 0.614384 0)
(0.615886 0.68022 0)
(0.58308 0.771551 0)
(0.578368 0.913685 0)
(0.610144 1.15197 0)
(3 1.44039e-07 0)
(2.99999 1.41767e-07 0)
(2.99998 1.88953e-06 0)
(2.99996 1.85462e-06 0)
(2.9999 1.31216e-05 0)
(2.99978 9.93269e-06 0)
(2.99943 8.71426e-05 0)
(2.99878 3.94052e-05 0)
(2.99659 0.000623411 0)
(2.99296 0.000304419 0)
(2.97876 0.00453272 0)
(2.95423 0.00283817 0)
(2.85928 0.0325082 0)
(2.61234 0.0480418 0)
(1.98272 0.199013 0)
(1.01975 0.51957 0)
(0.69265 0.523479 0)
(0.729381 0.530813 0)
(0.7579 0.554212 0)
(0.746336 0.597964 0)
(0.720304 0.65462 0)
(0.700325 0.728149 0)
(0.704928 0.827803 0)
(0.761839 0.966745 0)
(0.90349 1.14678 0)
(3 7.77159e-08 0)
(2.99999 6.06432e-07 0)
(2.99999 1.8633e-06 0)
(2.99997 5.65185e-06 0)
(2.99991 1.333e-05 0)
(2.99981 3.58898e-05 0)
(2.9995 7.97947e-05 0)
(2.9989 0.000219212 0)
(2.99711 0.000446553 0)
(2.99371 0.00144659 0)
(2.98242 0.0025915 0)
(2.96152 0.0100203 0)
(2.88674 0.0192381 0)
(2.69263 0.0752141 0)
(2.19344 0.184226 0)
(1.17796 0.53899 0)
(0.731922 0.563129 0)
(0.759566 0.572525 0)
(0.79411 0.585848 0)
(0.794633 0.627512 0)
(0.782617 0.685962 0)
(0.784027 0.760315 0)
(0.815983 0.854998 0)
(0.900787 0.970647 0)
(1.06743 1.08516 0)
(3 8.48035e-08 0)
(3 6.60868e-07 0)
(2.99999 2.03208e-06 0)
(2.99997 6.15415e-06 0)
(2.99993 1.46025e-05 0)
(2.99984 3.9094e-05 0)
(2.99959 8.82704e-05 0)
(2.99908 0.000232036 0)
(2.99761 0.000516524 0)
(2.99475 0.00138324 0)
(2.98582 0.00301484 0)
(2.96833 0.00864088 0)
(2.91079 0.0191851 0)
(2.76509 0.0604765 0)
(2.38277 0.151583 0)
(1.37892 0.461373 0)
(0.825527 0.581857 0)
(0.812762 0.61227 0)
(0.838925 0.623423 0)
(0.850532 0.656629 0)
(0.848293 0.710689 0)
(0.862332 0.779489 0)
(0.909003 0.860622 0)
(1.00244 0.949814 0)
(1.16339 1.02403 0)
(3 8.18698e-08 0)
(3 6.38068e-07 0)
(2.99999 1.96341e-06 0)
(2.99998 5.93933e-06 0)
(2.99994 1.41107e-05 0)
(2.99987 3.7642e-05 0)
(2.99966 8.51959e-05 0)
(2.99926 0.000220702 0)
(2.99807 0.000503013 0)
(2.9958 0.00125237 0)
(2.98842 0.00299132 0)
(2.97522 0.00705524 0)
(2.92783 0.0177959 0)
(2.81241 0.0454507 0)
(2.49949 0.120243 0)
(1.5768 0.343829 0)
(0.920634 0.611926 0)
(0.851903 0.651764 0)
(0.873817 0.667459 0)
(0.898021 0.687249 0)
(0.908886 0.731232 0)
(0.931792 0.790292 0)
(0.984627 0.856732 0)
(1.07762 0.923805 0)
(1.22423 0.97443 0)
(3 6.88196e-08 0)
(3 5.33154e-07 0)
(2.99999 1.64241e-06 0)
(2.99998 4.93956e-06 0)
(2.99995 1.17099e-05 0)
(2.9999 3.09824e-05 0)
(2.99974 6.97419e-05 0)
(2.99943 0.000180199 0)
(2.99847 0.000400462 0)
(2.99682 0.00103765 0)
(2.99062 0.00230296 0)
(2.98083 0.0061586 0)
(2.9414 0.01376 0)
(2.85517 0.0393975 0)
(2.59905 0.102042 0)
(1.80345 0.300107 0)
(1.07055 0.654429 0)
(0.88218 0.685031 0)
(0.897378 0.701073 0)
(0.930893 0.711649 0)
(0.959148 0.746121 0)
(0.991025 0.795118 0)
(1.04649 0.849459 0)
(1.13516 0.900698 0)
(1.26545 0.936749 0)
(3 5.59415e-08 0)
(3 4.31329e-07 0)
(2.99999 1.32943e-06 0)
(2.99999 3.9813e-06 0)
(2.99996 9.40983e-06 0)
(2.99992 2.4773e-05 0)
(2.99979 5.53663e-05 0)
(2.99953 0.000144159 0)
(2.99878 0.000307633 0)
(2.99739 0.00086795 0)
(2.99266 0.00168738 0)
(2.98485 0.00556839 0)
(2.95436 0.0108687 0)
(2.89008 0.0368279 0)
(2.69422 0.0876934 0)
(2.07023 0.279922 0)
(1.26676 0.680956 0)
(0.932988 0.718034 0)
(0.930567 0.727144 0)
(0.963987 0.732097 0)
(1.00391 0.755379 0)
(1.04227 0.795235 0)
(1.09825 0.840045 0)
(1.18119 0.880443 0)
(1.2962 0.907518 0)
(3 4.90749e-08 0)
(3 3.79042e-07 0)
(3 1.16846e-06 0)
(2.99999 3.50748e-06 0)
(2.99997 8.31762e-06 0)
(2.99994 2.19649e-05 0)
(2.99984 4.94243e-05 0)
(2.99964 0.000127721 0)
(2.99907 0.000282273 0)
(2.99798 0.000746714 0)
(2.99452 0.00157933 0)
(2.98854 0.0046218 0)
(2.96654 0.00935262 0)
(2.9227 0.0295571 0)
(2.7847 0.0719716 0)
(2.36329 0.216887 0)
(1.5539 0.586603 0)
(1.05188 0.727105 0)
(0.996661 0.748996 0)
(1.01184 0.757196 0)
(1.052 0.767656 0)
(1.0932 0.796673 0)
(1.14573 0.832275 0)
(1.22073 0.864106 0)
(1.32172 0.88465 0)
(3 2.6845e-08 0)
(3 3.57432e-07 0)
(3 8.79861e-07 0)
(2.99999 3.20775e-06 0)
(2.99998 6.37491e-06 0)
(2.99995 1.99942e-05 0)
(2.99988 3.80578e-05 0)
(2.99973 0.000116345 0)
(2.9993 0.000215699 0)
(2.99847 0.000682218 0)
(2.99588 0.00114723 0)
(2.99137 0.00420143 0)
(2.97459 0.00576884 0)
(2.94447 0.0262362 0)
(2.83534 0.0411354 0)
(2.53765 0.165008 0)
(1.84826 0.395789 0)
(1.16471 0.740406 0)
(1.04696 0.774032 0)
(1.05243 0.787961 0)
(1.09158 0.789196 0)
(1.13856 0.804313 0)
(1.18935 0.829683 0)
(1.25642 0.853711 0)
(1.34452 0.868593 0)
(3 1.99604e-08 0)
(3 2.68422e-07 0)
(3 6.58224e-07 0)
(2.99999 2.40813e-06 0)
(2.99999 4.7643e-06 0)
(2.99996 1.49633e-05 0)
(2.99992 2.83444e-05 0)
(2.99979 8.66184e-05 0)
(2.99954 0.000161556 0)
(2.99875 0.00050048 0)
(2.99744 0.000894233 0)
(2.99241 0.0030514 0)
(2.98448 0.00475257 0)
(2.953 0.0199764 0)
(2.88624 0.0315502 0)
(2.6814 0.12836 0)
(2.07901 0.318026 0)
(1.3547 0.754153 0)
(1.09735 0.805925 0)
(1.08896 0.81664 0)
(1.12238 0.813935 0)
(1.17494 0.815256 0)
(1.22775 0.83033 0)
(1.28904 0.847245 0)
(1.36628 0.857777 0)
(3 3.69112e-08 0)
(3 1.34603e-07 0)
(3 6.37341e-07 0)
(3 1.33991e-06 0)
(2.99999 4.4089e-06 0)
(2.99997 8.39889e-06 0)
(2.99994 2.5835e-05 0)
(2.99984 4.7688e-05 0)
(2.99964 0.000148357 0)
(2.99908 0.000258026 0)
(2.998 0.000895123 0)
(2.99459 0.00137678 0)
(2.98869 0.00576417 0)
(2.9671 0.00850022 0)
(2.9243 0.037825 0)
(2.78978 0.0731161 0)
(2.38027 0.261897 0)
(1.64365 0.644635 0)
(1.21082 0.806424 0)
(1.15025 0.832359 0)
(1.16319 0.838109 0)
(1.21056 0.831527 0)
(1.26451 0.835333 0)
(1.32094 0.844697 0)
(1.38887 0.85096 0)
(3 2.31104e-08 0)
(3 1.26082e-07 0)
(3 4.6822e-07 0)
(3 1.20201e-06 0)
(2.99999 3.29616e-06 0)
(2.99998 7.55318e-06 0)
(2.99995 1.95173e-05 0)
(2.99989 4.36007e-05 0)
(2.99972 0.000111475 0)
(2.99937 0.00024691 0)
(2.99838 0.000637592 0)
(2.99645 0.00138243 0)
(2.99043 0.00377338 0)
(2.97907 0.00787086 0)
(2.94158 0.0230299 0)
(2.85213 0.0548903 0)
(2.6017 0.15333 0)
(1.91012 0.461642 0)
(1.34441 0.790947 0)
(1.20663 0.84174 0)
(1.20253 0.860961 0)
(1.24021 0.855416 0)
(1.29554 0.847061 0)
(1.35044 0.847578 0)
(1.41141 0.849035 0)
(3 1.35515e-08 0)
(3 1.05455e-07 0)
(3 3.24762e-07 0)
(3 9.79247e-07 0)
(2.99999 2.32186e-06 0)
(2.99998 6.15322e-06 0)
(2.99997 1.38579e-05 0)
(2.99992 3.58183e-05 0)
(2.99981 7.96857e-05 0)
(2.99952 0.00020596 0)
(2.99895 0.000455529 0)
(2.9972 0.00119495 0)
(2.9941 0.00262797 0)
(2.98308 0.00711982 0)
(2.96351 0.0160668 0)
(2.89391 0.044014 0)
(2.71895 0.120234 0)
(2.25326 0.320963 0)
(1.52145 0.781813 0)
(1.26559 0.864198 0)
(1.24163 0.880958 0)
(1.26383 0.879152 0)
(1.31645 0.864584 0)
(1.3748 0.856394 0)
(1.43302 0.852635 0)
(3 1.58346e-08 0)
(3 6.18721e-08 0)
(3 2.80249e-07 0)
(3 6.16258e-07 0)
(3 1.96001e-06 0)
(2.99999 3.92375e-06 0)
(2.99997 1.16319e-05 0)
(2.99994 2.28293e-05 0)
(2.99986 6.67755e-05 0)
(2.99969 0.000130161 0)
(2.9992 0.000384296 0)
(2.99826 0.00073019 0)
(2.99537 0.00230165 0)
(2.99022 0.00398419 0)
(2.97236 0.0146104 0)
(2.93726 0.0246657 0)
(2.82506 0.0930207 0)
(2.51398 0.219181 0)
(1.8526 0.614379 0)
(1.38519 0.852127 0)
(1.30054 0.884922 0)
(1.30118 0.895539 0)
(1.34104 0.883821 0)
(1.39774 0.868051 0)
(1.4541 0.859476 0)
(3 7.33857e-09 0)
(3 5.68311e-08 0)
(3 1.75241e-07 0)
(3 5.26059e-07 0)
(3 1.24727e-06 0)
(2.99999 3.28275e-06 0)
(2.99998 7.38707e-06 0)
(2.99996 1.8909e-05 0)
(2.9999 4.19939e-05 0)
(2.99978 0.000107068 0)
(2.99945 0.000236486 0)
(2.9988 0.000608993 0)
(2.99681 0.00132113 0)
(2.99335 0.00358752 0)
(2.98078 0.00740141 0)
(2.95912 0.0220277 0)
(2.88006 0.049062 0)
(2.67772 0.14968 0)
(2.18268 0.396438 0)
(1.53868 0.832664 0)
(1.35143 0.898206 0)
(1.33583 0.911349 0)
(1.36042 0.90413 0)
(1.41418 0.884033 0)
(1.47236 0.869356 0)
(3 4.16312e-09 0)
(3 4.57437e-08 0)
(3 1.20981e-07 0)
(3 4.12587e-07 0)
(3 8.68387e-07 0)
(3 2.55319e-06 0)
(2.99999 5.14523e-06 0)
(2.99997 1.46418e-05 0)
(2.99993 2.92009e-05 0)
(2.99985 8.26402e-05 0)
(2.99962 0.000163738 0)
(2.99916 0.000468723 0)
(2.99785 0.000900279 0)
(2.99529 0.00277186 0)
(2.98754 0.00479638 0)
(2.97225 0.017498 0)
(2.92442 0.0291677 0)
(2.80518 0.113929 0)
(2.49349 0.253073 0)
(1.79927 0.705358 0)
(1.44624 0.881307 0)
(1.3846 0.911621 0)
(1.38985 0.918845 0)
(1.43217 0.903088 0)
(1.4889 0.880659 0)
(3 2.87656e-09 0)
(3 3.14532e-08 0)
(3 8.33141e-08 0)
(3 2.84323e-07 0)
(3 5.9875e-07 0)
(3 1.76096e-06 0)
(2.99999 3.54892e-06 0)
(2.99998 1.01004e-05 0)
(2.99996 2.01555e-05 0)
(2.99989 5.69995e-05 0)
(2.99977 0.000113243 0)
(2.99941 0.000321422 0)
(2.99873 0.000634368 0)
(2.9966 0.00183443 0)
(2.99295 0.00355069 0)
(2.97967 0.0108409 0)
(2.95635 0.0210839 0)
(2.87241 0.0674854 0)
(2.66039 0.161136 0)
(2.14057 0.458481 0)
(1.5803 0.849919 0)
(1.43629 0.914398 0)
(1.42265 0.929269 0)
(1.4473 0.921759 0)
(1.49948 0.896914 0)
(3 3.26701e-09 0)
(3 1.7617e-08 0)
(3 6.54739e-08 0)
(3 1.67891e-07 0)
(3 4.58511e-07 0)
(3 1.04817e-06 0)
(2.99999 2.68839e-06 0)
(2.99999 5.98937e-06 0)
(2.99997 1.5142e-05 0)
(2.99993 3.34719e-05 0)
(2.99984 8.44973e-05 0)
(2.9996 0.000185766 0)
(2.99911 0.000475703 0)
(2.99773 0.0010169 0)
(2.99504 0.00279264 0)
(2.98686 0.0056099 0)
(2.97095 0.0172162 0)
(2.92073 0.0355151 0)
(2.79483 0.115019 0)
(2.46796 0.291451 0)
(1.82252 0.735684 0)
(1.51675 0.900741 0)
(1.46441 0.930063 0)
(1.47053 0.936339 0)
(1.5111 0.918346 0)
(3 2.70877e-09 0)
(3 1.16933e-08 0)
(3 4.97756e-08 0)
(3 1.14207e-07 0)
(3 3.46028e-07 0)
(3 7.1782e-07 0)
(3 2.02898e-06 0)
(2.99999 4.12197e-06 0)
(2.99998 1.14645e-05 0)
(2.99995 2.31779e-05 0)
(2.9999 6.42823e-05 0)
(2.99974 0.000129537 0)
(2.99942 0.000360618 0)
(2.99853 0.000721956 0)
(2.99678 0.00204683 0)
(2.9916 0.00400936 0)
(2.98141 0.0120604 0)
(2.95029 0.0233823 0)
(2.87645 0.0755811 0)
(2.6756 0.173659 0)
(2.12377 0.517625 0)
(1.66013 0.859269 0)
(1.52177 0.927234 0)
(1.50439 0.943576 0)
(1.5237 0.936509 0)
(3 1.79337e-09 0)
(3 7.76744e-09 0)
(3 3.29634e-08 0)
(3 7.5912e-08 0)
(3 2.29213e-07 0)
(3 4.77056e-07 0)
(3 1.34303e-06 0)
(2.99999 2.73673e-06 0)
(2.99999 7.57728e-06 0)
(2.99997 1.53662e-05 0)
(2.99993 4.24023e-05 0)
(2.99984 8.57518e-05 0)
(2.9996 0.000237268 0)
(2.99913 0.000477765 0)
(2.99778 0.00133894 0)
(2.99516 0.00265995 0)
(2.98722 0.00775009 0)
(2.97178 0.0154221 0)
(2.92339 0.0467194 0)
(2.805 0.1084 0)
(2.48119 0.315966 0)
(1.88751 0.742203 0)
(1.60155 0.910055 0)
(1.54648 0.941199 0)
(1.54688 0.947627 0)
(3 8.01969e-10 0)
(3 6.19696e-09 0)
(3 1.91139e-08 0)
(3 5.71956e-08 0)
(3 1.35483e-07 0)
(3 3.54688e-07 0)
(3 7.96882e-07 0)
(3 2.02512e-06 0)
(2.99999 4.49426e-06 0)
(2.99998 1.13461e-05 0)
(2.99995 2.50869e-05 0)
(2.9999 6.33136e-05 0)
(2.99975 0.00013966 0)
(2.99944 0.000353886 0)
(2.9986 0.000777443 0)
(2.99693 0.00199931 0)
(2.99205 0.00436417 0)
(2.98255 0.0115998 0)
(2.95351 0.0260301 0)
(2.88504 0.0713797 0)
(2.69813 0.184345 0)
(2.18909 0.50946 0)
(1.74183 0.865097 0)
(1.60028 0.937064 0)
(1.57888 0.952678 0)
(3 4.45218e-10 0)
(3 4.40991e-09 0)
(3 1.2166e-08 0)
(3 3.98603e-08 0)
(3 8.66195e-08 0)
(3 2.45142e-07 0)
(3 5.08374e-07 0)
(3 1.39142e-06 0)
(2.99999 2.85601e-06 0)
(2.99999 7.75179e-06 0)
(2.99997 1.58642e-05 0)
(2.99994 4.29913e-05 0)
(2.99985 8.77183e-05 0)
(2.99966 0.000238337 0)
(2.99915 0.000483781 0)
(2.99815 0.00133046 0)
(2.99519 0.00265811 0)
(2.98989 0.0076167 0)
(2.9719 0.0150506 0)
(2.93703 0.0455963 0)
(2.82963 0.102787 0)
(2.51395 0.317403 0)
(1.99777 0.706412 0)
(1.69472 0.900117 0)
(1.62798 0.941244 0)
(3 3.37274e-10 0)
(3 2.59365e-09 0)
(3 8.00853e-09 0)
(3 2.38625e-08 0)
(3 5.65154e-08 0)
(3 1.47124e-07 0)
(3 3.3024e-07 0)
(3 8.3346e-07 0)
(3 1.8477e-06 0)
(2.99999 4.62572e-06 0)
(2.99998 1.0221e-05 0)
(2.99996 2.55224e-05 0)
(2.99991 5.62813e-05 0)
(2.99977 0.000140499 0)
(2.99951 0.000308922 0)
(2.99875 0.000776944 0)
(2.99727 0.0016815 0)
(2.99291 0.00442325 0)
(2.98444 0.00913438 0)
(2.95874 0.0262562 0)
(2.89922 0.057765 0)
(2.73204 0.166897 0)
(2.28851 0.459842 0)
(1.84589 0.830418 0)
(1.6852 0.926745 0)
(3 3.02213e-10 0)
(3 1.3378e-09 0)
(3 5.57673e-09 0)
(3 1.30459e-08 0)
(3 3.87056e-08 0)
(3 8.16185e-08 0)
(3 2.25497e-07 0)
(3 4.649e-07 0)
(3 1.26202e-06 0)
(3 2.58875e-06 0)
(2.99999 6.9956e-06 0)
(2.99998 1.43268e-05 0)
(2.99994 3.87008e-05 0)
(2.99987 7.91171e-05 0)
(2.99968 0.000214453 0)
(2.9993 0.000436789 0)
(2.99822 0.0011998 0)
(2.9961 0.00241838 0)
(2.99001 0.00688228 0)
(2.97746 0.0138702 0)
(2.94154 0.0407134 0)
(2.85443 0.0941135 0)
(2.61422 0.271489 0)
(2.09616 0.660597 0)
(1.78145 0.890719 0)
(3 1.30566e-10 0)
(3 1.00565e-09 0)
(3 3.10522e-09 0)
(3 9.26187e-09 0)
(3 2.19292e-08 0)
(3 5.71055e-08 0)
(3 1.28077e-07 0)
(3 3.23278e-07 0)
(3 7.158e-07 0)
(3 1.79297e-06 0)
(2.99999 3.95597e-06 0)
(2.99999 9.89298e-06 0)
(2.99996 2.17859e-05 0)
(2.99992 5.45282e-05 0)
(2.9998 0.000119832 0)
(2.99957 0.000301181 0)
(2.99892 0.000659629 0)
(2.99764 0.00167649 0)
(2.99397 0.00367701 0)
(2.98692 0.0094796 0)
(2.96515 0.0216308 0)
(2.91853 0.0565195 0)
(2.78266 0.143757 0)
(2.40041 0.399265 0)
(1.96074 0.786209 0)
(3 7.10378e-11 0)
(3 6.75581e-10 0)
(3 1.89497e-09 0)
(3 6.1107e-09 0)
(3 1.34481e-08 0)
(3 3.74561e-08 0)
(3 7.85618e-08 0)
(3 2.11441e-07 0)
(3 4.38829e-07 0)
(3 1.17048e-06 0)
(3 2.42429e-06 0)
(2.99999 6.4488e-06 0)
(2.99998 1.33539e-05 0)
(2.99995 3.54985e-05 0)
(2.99988 7.34702e-05 0)
(2.99975 0.00019551 0)
(2.99937 0.000403684 0)
(2.99862 0.00108123 0)
(2.9965 0.00220937 0)
(2.99246 0.00611699 0)
(2.97993 0.0121529 0)
(2.9557 0.0363335 0)
(2.88029 0.0765545 0)
(2.673 0.24149 0)
(2.24691 0.56895 0)
(3 4.28788e-11 0)
(3 4.05595e-10 0)
(3 1.14078e-09 0)
(3 3.6724e-09 0)
(3 8.09614e-09 0)
(3 2.24933e-08 0)
(3 4.72302e-08 0)
(3 1.2673e-07 0)
(3 2.63208e-07 0)
(3 6.99702e-07 0)
(3 1.45002e-06 0)
(2.99999 3.84271e-06 0)
(2.99999 7.96152e-06 0)
(2.99997 2.10695e-05 0)
(2.99994 4.36348e-05 0)
(2.99984 0.000115479 0)
(2.99966 0.000238673 0)
(2.99915 0.00063437 0)
(2.99816 0.00130075 0)
(2.99522 0.00354768 0)
(2.98998 0.00703208 0)
(2.97251 0.0207434 0)
(2.93863 0.0411465 0)
(2.83348 0.127602 0)
(2.54578 0.326028 0)
(3 4.25148e-11 0)
(3 1.95385e-10 0)
(3 7.95094e-10 0)
(3 1.8901e-09 0)
(3 5.49562e-09 0)
(3 1.174e-08 0)
(3 3.17763e-08 0)
(3 6.62826e-08 0)
(3 1.76145e-07 0)
(3 3.65413e-07 0)
(3 9.65756e-07 0)
(3 2.00104e-06 0)
(2.99999 5.27682e-06 0)
(2.99998 1.09267e-05 0)
(2.99996 2.87893e-05 0)
(2.99991 5.95164e-05 0)
(2.9998 0.000157002 0)
(2.9995 0.000323443 0)
(2.99892 0.00086178 0)
(2.99724 0.00174304 0)
(2.99422 0.00487413 0)
(2.98404 0.0093765 0)
(2.96633 0.0287237 0)
(2.90642 0.0582841 0)
(2.75445 0.182673 0)
(3 2.50432e-11 0)
(3 1.16275e-10 0)
(3 4.7125e-10 0)
(3 1.12313e-09 0)
(3 3.25551e-09 0)
(3 6.96812e-09 0)
(3 1.88002e-08 0)
(3 3.92829e-08 0)
(3 1.04056e-07 0)
(3 2.16227e-07 0)
(3 5.69653e-07 0)
(3 1.1825e-06 0)
(3 3.1083e-06 0)
(2.99999 6.45163e-06 0)
(2.99998 1.69369e-05 0)
(2.99995 3.513e-05 0)
(2.99988 9.22315e-05 0)
(2.99973 0.000190826 0)
(2.99934 0.000504517 0)
(2.99856 0.00102796 0)
(2.99634 0.00282895 0)
(2.99218 0.00548136 0)
(2.9793 0.0166385 0)
(2.95348 0.0320222 0)
(2.87648 0.100779 0)
(3 1.0305e-11 0)
(3 7.91325e-11 0)
(3 2.44496e-10 0)
(3 7.26815e-10 0)
(3 1.71924e-09 0)
(3 4.45347e-09 0)
(3 9.96666e-09 0)
(3 2.49865e-08 0)
(3 5.51677e-08 0)
(3 1.37125e-07 0)
(3 3.01698e-07 0)
(3 7.48009e-07 0)
(3 1.64397e-06 0)
(2.99999 4.07231e-06 0)
(2.99999 8.94372e-06 0)
(2.99997 2.21523e-05 0)
(2.99993 4.85962e-05 0)
(2.99985 0.0001205 0)
(2.99962 0.000263905 0)
(2.99917 0.000657833 0)
(2.99793 0.00143221 0)
(2.99552 0.00366198 0)
(2.98846 0.00778009 0)
(2.97491 0.0209942 0)
(2.93391 0.0466799 0)
(3 5.43616e-12 0)
(3 4.96057e-11 0)
(3 1.41276e-10 0)
(3 4.48397e-10 0)
(3 9.97437e-10 0)
(3 2.73188e-09 0)
(3 5.77948e-09 0)
(3 1.52782e-08 0)
(3 3.19453e-08 0)
(3 8.36408e-08 0)
(3 1.74421e-07 0)
(3 4.55234e-07 0)
(3 9.48938e-07 0)
(3 2.47295e-06 0)
(2.99999 5.15494e-06 0)
(2.99998 1.34215e-05 0)
(2.99996 2.79641e-05 0)
(2.99991 7.28078e-05 0)
(2.99979 0.000151406 0)
(2.99953 0.000395224 0)
(2.99884 0.000818003 0)
(2.99747 0.00216296 0)
(2.99366 0.00441198 0)
(2.98585 0.0121682 0)
(2.96415 0.0247154 0)
(3 3.0466e-12 0)
(3 2.81388e-11 0)
(3 8.01705e-11 0)
(3 2.54547e-10 0)
(3 5.66738e-10 0)
(3 1.55102e-09 0)
(3 3.28341e-09 0)
(3 8.66877e-09 0)
(3 1.81354e-08 0)
(3 4.74104e-08 0)
(3 9.89245e-08 0)
(3 2.57775e-07 0)
(3 5.377e-07 0)
(3 1.39899e-06 0)
(3 2.91871e-06 0)
(2.99999 7.58715e-06 0)
(2.99998 1.58271e-05 0)
(2.99995 4.1141e-05 0)
(2.99989 8.57376e-05 0)
(2.99973 0.000223336 0)
(2.99941 0.000464482 0)
(2.99852 0.00121839 0)
(2.99676 0.00253132 0)
(2.99191 0.00673397 0)
(2.98175 0.0142602 0)
(3 2.52436e-12 0)
(3 1.37497e-11 0)
(3 5.07265e-11 0)
(3 1.30063e-10 0)
(3 3.51396e-10 0)
(3 8.00326e-10 0)
(3 2.022e-09 0)
(3 4.47879e-09 0)
(3 1.1122e-08 0)
(3 2.44597e-08 0)
(3 6.04473e-08 0)
(3 1.32674e-07 0)
(3 3.27349e-07 0)
(3 7.17954e-07 0)
(3 1.77022e-06 0)
(2.99999 3.87989e-06 0)
(2.99999 9.56542e-06 0)
(2.99997 2.09409e-05 0)
(2.99994 5.16736e-05 0)
(2.99985 0.000112939 0)
(2.99967 0.000279633 0)
(2.99919 0.000609423 0)
(2.99825 0.00152038 0)
(2.99562 0.00333436 0)
(2.99065 0.00834882 0)
(3 1.59783e-12 0)
(3 7.48286e-12 0)
(3 2.99602e-11 0)
(3 7.19916e-11 0)
(3 2.05793e-10 0)
(3 4.433e-10 0)
(3 1.17807e-09 0)
(3 2.47401e-09 0)
(3 6.45074e-09 0)
(3 1.34603e-08 0)
(3 3.49002e-08 0)
(3 7.26986e-08 0)
(3 1.88088e-07 0)
(3 3.91584e-07 0)
(3 1.01178e-06 0)
(3 2.10585e-06 0)
(2.99999 5.43506e-06 0)
(2.99998 1.13066e-05 0)
(2.99997 2.9156e-05 0)
(2.99992 6.05725e-05 0)
(2.99982 0.000156217 0)
(2.99956 0.000323568 0)
(2.99904 0.000837977 0)
(2.99758 0.00172117 0)
(2.99488 0.00456667 0)
(3 8.50591e-13 0)
(3 3.98762e-12 0)
(3 1.61042e-11 0)
(3 3.84805e-11 0)
(3 1.10768e-10 0)
(3 2.36919e-10 0)
(3 6.32845e-10 0)
(3 1.31847e-09 0)
(3 3.45405e-09 0)
(3 7.14311e-09 0)
(3 1.86118e-08 0)
(3 3.83871e-08 0)
(3 9.98575e-08 0)
(3 2.05648e-07 0)
(3 5.34652e-07 0)
(3 1.09965e-06 0)
(3 2.85812e-06 0)
(2.99999 5.86943e-06 0)
(2.99998 1.52551e-05 0)
(2.99996 3.12515e-05 0)
(2.99989 8.12993e-05 0)
(2.99976 0.000165807 0)
(2.99941 0.0004336 0)
(2.99873 0.000873804 0)
(2.99681 0.00234894 0)
(3 3.27447e-13 0)
(3 2.48819e-12 0)
(3 7.61664e-12 0)
(3 2.24587e-11 0)
(3 5.30862e-11 0)
(3 1.36015e-10 0)
(3 3.03345e-10 0)
(3 7.50101e-10 0)
(3 1.64746e-09 0)
(3 4.03045e-09 0)
(3 8.8112e-09 0)
(3 2.14673e-08 0)
(3 4.6848e-08 0)
(3 1.1388e-07 0)
(3 2.48278e-07 0)
(3 6.02406e-07 0)
(3 1.31242e-06 0)
(2.99999 3.1779e-06 0)
(2.99999 6.91903e-06 0)
(2.99997 1.67061e-05 0)
(2.99993 3.63363e-05 0)
(2.99985 8.73491e-05 0)
(2.99963 0.00018967 0)
(2.99918 0.000452402 0)
(2.99794 0.000984152 0)
(3 1.13074e-13 0)
(3 1.39144e-12 0)
(3 3.7081e-12 0)
(3 1.24042e-11 0)
(3 2.59798e-11 0)
(3 7.42615e-11 0)
(3 1.47326e-10 0)
(3 4.06241e-10 0)
(3 7.89648e-10 0)
(3 2.16434e-09 0)
(3 4.15554e-09 0)
(3 1.14229e-08 0)
(3 2.16883e-08 0)
(3 6.00032e-08 0)
(3 1.12582e-07 0)
(3 3.14197e-07 0)
(3 5.81607e-07 0)
(3 1.64162e-06 0)
(2.99999 2.98817e-06 0)
(2.99998 8.56414e-06 0)
(2.99995 1.52001e-05 0)
(2.99989 4.46688e-05 0)
(2.99972 7.4616e-05 0)
(2.99939 0.000235567 0)
(2.99836 0.000330157 0)
(3 5.02601e-14 0)
(3 5.83892e-13 0)
(3 1.80954e-12 0)
(3 5.42067e-12 0)
(3 1.27604e-11 0)
(3 3.2478e-11 0)
(3 7.21689e-11 0)
(3 1.75703e-10 0)
(3 3.83691e-10 0)
(3 9.20366e-10 0)
(3 1.99705e-09 0)
(3 4.75314e-09 0)
(3 1.02794e-08 0)
(3 2.42991e-08 0)
(3 5.2402e-08 0)
(3 1.22931e-07 0)
(3 2.64216e-07 0)
(3 6.14575e-07 0)
(2.99999 1.31574e-06 0)
(2.99998 3.03494e-06 0)
(2.99996 6.47955e-06 0)
(2.9999 1.4758e-05 0)
(2.99978 3.20909e-05 0)
(2.99939 6.82901e-05 0)
(2.99876 0.000164057 0)
(3 7.23125e-14 0)
(3 1.26274e-13 0)
(3 1.03083e-12 0)
(3 1.49593e-12 0)
(3 6.80986e-12 0)
(3 8.98375e-12 0)
(3 3.77367e-11 0)
(3 4.60003e-11 0)
(3 1.9977e-10 0)
(3 2.22903e-10 0)
(3 1.03894e-09 0)
(3 1.03225e-09 0)
(3 5.34049e-09 0)
(3 4.49109e-09 0)
(3 2.70823e-08 0)
(3 1.73978e-08 0)
(3 1.34921e-07 0)
(3 4.98014e-08 0)
(2.99999 6.58276e-07 0)
(2.99998 -1.76558e-08 0)
(2.99996 3.18211e-06 0)
(2.99991 -2.0274e-06 0)
(2.99976 1.69666e-05 0)
(2.9995 -2.85359e-05 0)
(2.99854 0.000123859 0)
(3 1.08148e-14 0)
(3 5.56789e-14 0)
(3 2.05319e-13 0)
(3 5.74139e-13 0)
(3 1.35245e-12 0)
(3 3.2223e-12 0)
(3 6.9224e-12 0)
(3 1.59796e-11 0)
(3 3.39315e-11 0)
(3 7.65785e-11 0)
(3 1.61305e-10 0)
(3 3.54282e-10 0)
(3 7.38181e-10 0)
(3 1.55095e-09 0)
(3 3.17166e-09 0)
(3 6.1267e-09 0)
(3 1.19856e-08 0)
(3 1.89012e-08 0)
(2.99999 3.11958e-08 0)
(2.99998 1.26577e-08 0)
(2.99996 -4.94532e-08 0)
(2.99991 -3.98678e-07 0)
(2.99976 -1.95444e-06 0)
(2.99948 -2.49405e-06 0)
(2.99854 -2.28464e-05 0)
(1.27845 1.06241 0)
(1.7088 0.866388 0)
(1.91074 0.603609 0)
(1.94721 0.339731 0)
(1.90175 0.124805 0)
(1.80989 -0.015744 0)
(1.71351 -0.0523851 0)
(1.66294 -0.0237297 0)
(1.65393 0.0168905 0)
(1.65681 0.0394885 0)
(1.65911 0.0391529 0)
(1.65865 0.0287336 0)
(1.65576 0.0180531 0)
(1.64934 0.00981217 0)
(1.63678 0.00652608 0)
(1.61561 0.00973307 0)
(1.57669 0.0174997 0)
(1.49588 0.0304008 0)
(1.32206 0.0526333 0)
(0.9555 0.0924527 0)
(0.488394 0.160877 0)
(0.135011 0.18141 0)
(-0.0595028 0.147441 0)
(-0.291841 0.0947196 0)
(-0.475776 0.0450044 0)
(-0.623593 0.0136613 0)
(-0.738487 -0.00462548 0)
(-0.818088 -0.00685088 0)
(-0.868955 0.00556655 0)
(-0.903008 0.017347 0)
(-0.923643 0.0223457 0)
(-0.934469 0.0193689 0)
(-0.93545 0.0124613 0)
(-0.91783 0.00290826 0)
(-0.874893 -0.0059683 0)
(-0.803498 -0.0144927 0)
(-0.710266 -0.0228661 0)
(-0.605548 -0.0309192 0)
(-0.497996 -0.0378176 0)
(-0.386901 -0.0467235 0)
(-0.283159 -0.0492061 0)
(-0.184919 -0.0504733 0)
(-0.0942814 -0.052005 0)
(-0.00374029 -0.0538439 0)
(0.084082 -0.0456756 0)
(0.156768 -0.0408583 0)
(0.226134 -0.0378225 0)
(0.290099 -0.0353652 0)
(0.348194 -0.0327466 0)
(0.401064 -0.0302693 0)
(0.454127 -0.0289973 0)
(0.507878 -0.0289503 0)
(0.558396 -0.0275105 0)
(0.605614 -0.0256896 0)
(0.650403 -0.024105 0)
(0.693105 -0.0227122 0)
(0.734054 -0.0214724 0)
(0.773326 -0.0203033 0)
(0.81111 -0.0192244 0)
(0.847465 -0.0181879 0)
(0.882552 -0.0172257 0)
(0.916433 -0.0162861 0)
(0.949254 -0.0154051 0)
(0.981074 -0.0145407 0)
(1.01202 -0.0137264 0)
(1.04214 -0.01294 0)
(1.07151 -0.0122003 0)
(1.10016 -0.0114995 0)
(1.12815 -0.0108421 0)
(1.15549 -0.0102219 0)
(1.1822 -0.00963927 0)
(1.20832 -0.00908354 0)
(1.23386 -0.00855632 0)
(1.25886 -0.00804563 0)
(1.28333 -0.00755551 0)
(1.30729 -0.00707538 0)
(1.33078 -0.00661184 0)
(1.35379 -0.0061566 0)
(1.37637 -0.00571816 0)
(1.3985 -0.00528948 0)
(1.42022 -0.00487976 0)
(1.44154 -0.00448122 0)
(1.46247 -0.00410147 0)
(1.48302 -0.00373288 0)
(1.50322 -0.00338507 0)
(1.52306 -0.00304416 0)
(1.54258 -0.0027185 0)
(1.56178 -0.00239812 0)
(1.58066 -0.00209431 0)
(1.59923 -0.00180804 0)
(1.61746 -0.00155649 0)
(1.63537 -0.00133004 0)
(1.6529 -0.00114385 0)
(1.67001 -0.000964766 0)
(1.68662 -0.000753068 0)
(1.70257 -0.000481161 0)
(1.71754 -0.0001419 0)
(1.73094 0.0002963 0)
(1.74137 0.000910025 0)
(1.74873 0.00161376 0)
(1.36482 0.979566 0)
(1.68144 0.707632 0)
(1.86147 0.404532 0)
(1.95166 0.143164 0)
(2.00253 -0.0425707 0)
(2.03175 -0.142603 0)
(2.04171 -0.153881 0)
(2.04077 -0.11867 0)
(2.02976 -0.0746334 0)