/*--------------------------------*- C++ -*----------------------------------*\
| =========                 |                                                 |
| \\      /  F ield         | OpenFOAM: The Open Source CFD Toolbox           |
|  \\    /   O peration     | Version:  2112                                  |
|   \\  /    A nd           | Website:  www.openfoam.com                      |
|    \\/     M anipulation  |                                                 |
\*---------------------------------------------------------------------------*/
FoamFile
{
    version     2.0;
    format      ascii;
    arch        "LSB;label=32;scalar=64";
    class       volScalarField;
    location    "5";
    object      p;
}
// * * * * * * * * * * * * * * * * * * * * * * * * * * * * * * * * * * * * * //

dimensions      [0 2 -2 0 0 0 0];

internalField   nonuniform List<scalar> 
400
(
-2.5004456e-08
-0.00058750562
-0.0011698661
-0.0015907327
-0.0017394592
-0.0015659954
-0.0010550946
-0.00020759096
0.00095829108
0.0023946529
0.0040107564
0.0056662054
0.0071803532
0.0083582999
0.0090357788
0.0091324761
0.0086942751
0.0079053889
0.007038424
0.0065171732
0.00057436895
-3.3231781e-05
-0.0004608681
-0.00072206657
-0.00077907858
-0.00059813152
-0.00016528808
0.00052298419
0.0014570238
0.0026024242
0.0038885054
0.0052145109
0.0064322614
0.007388284
0.0079531975
0.0080640837
0.0077572
0.0071759113
0.0065297754
0.0059980126
0.0011999247
0.00035473479
-9.6712583e-05
-0.00032708753
-0.00037193183
-0.00021756111
0.0001447174
0.00072285653
0.0015189453
0.0025153352
0.0036622211
0.0048686404
0.0060002441
0.006906021
0.0074499933
0.0075556562
0.0072428933
0.0066391492
0.0059133835
0.0051249045
0.0016571349
0.00051465461
-2.8775752e-05
-0.00028828485
-0.00036622524
-0.00026784719
1.1239622e-05
0.00048625116
0.0011755638
0.0020818721
0.0031730743
0.00437251
0.0055429311
0.0065163308
0.0071251288
0.0072546144
0.0068944926
0.0061633444
0.0052146949
0.0040388054
0.0017320899
0.00029732117
-0.00035510876
-0.00067237279
-0.00081553551
-0.00080413375
-0.00063402078
-0.00027835011
0.00030255045
0.0011371068
0.0022159076
0.003485368
0.0047980174
0.0059589869
0.0067487724
0.0069868721
0.0066081644
0.0057152479
0.0044622047
0.0027864876
0.001242293
-0.00045865486
-0.0012248297
-0.0016226043
-0.0018642228
-0.0019791628
-0.0019592514
-0.0017613091
-0.0013182635
-0.00056579032
0.00052490308
0.0019177936
0.003477565
0.0049754309
0.0061184663
0.0066232421
0.0063275085
0.0052920741
0.0036722006
0.0013550171
3.4824971e-05
-0.0018950348
-0.0027746253
-0.0032754562
-0.0036547998
-0.0039496596
-0.0041451452
-0.0041778491
-0.0039464183
-0.0033377095
-0.0022632957
-0.00073053548
0.0011691662
0.0031799767
0.0049188014
0.0059517757
0.005951269
0.0048780552
0.0028587222
-0.00029033893
-0.0020172541
-0.0041317017
-0.0051222475
-0.0057506663
-0.0063149109
-0.0068600815
-0.0073649063
-0.0077442064
-0.0078562619
-0.0075271306
-0.0065902325
-0.004958442
-0.002667485
3.7510848e-05
0.0026847575
0.0046395736
0.0053103292
0.0044478763
0.0020639854
-0.0021594782
-0.0050086243
-0.0072596114
-0.0083561307
-0.0091354173
-0.0099344353
-0.010810977
-0.011742026
-0.012623329
-0.013270233
-0.013435609
-0.01284604
-0.011273838
-0.0086352461
-0.0051010399
-0.0011967935
0.0022098545
0.0041431527
0.0039660675
0.0013921166
-0.0041815975
-0.0089914592
-0.011331905
-0.012520731
-0.013459947
-0.014529175
-0.015808862
-0.017284026
-0.018839373
-0.020250599
-0.021190234
-0.02125177
-0.020020176
-0.017225446
-0.01285207
-0.0073903941
-0.0019184761
0.0020983907
0.0033940092
0.0010543533
-0.0061185115
-0.013969681
-0.016361005
-0.017605839
-0.018674241
-0.020003154
-0.021712761
-0.023810871
-0.026183827
-0.028576888
-0.030584058
-0.031653632
-0.031144292
-0.028536048
-0.023502625
-0.016349171
-0.0082448003
-0.0011631176
0.0027459653
0.0014425793
-0.0074147355
-0.019907859
-0.022329083
-0.023545322
-0.024632035
-0.02611971
-0.028194294
-0.030904029
-0.034150431
-0.037659798
-0.040956967
-0.043357244
-0.0440077
-0.041977816
-0.036636916
-0.027905876
-0.016813748
-0.0056961554
0.0022556516
0.0032567925
-0.0069439539
-0.026770485
-0.029219879
-0.030228843
-0.031086771
-0.032492064
-0.034731408
-0.037908529
-0.041946943
-0.046559951
-0.051212266
-0.055093903
-0.057135352
-0.056083043
-0.050858571
-0.04087422
-0.026746569
-0.010838378
0.0026909212
0.0077288638
-0.0026192734
-0.034619959
-0.037079118
-0.037524384
-0.037699037
-0.038599845
-0.040650063
-0.044009919
-0.048614395
-0.054152923
-0.060026523
-0.065307802
-0.068735707
-0.068773312
-0.063899298
-0.052962572
-0.035945098
-0.014795733
0.0057531591
0.016996439
0.0091138465
-0.04383797
-0.046109548
-0.045296822
-0.044046964
-0.04383038
-0.045213095
-0.048377664
-0.053230334
-0.059399209
-0.066193573
-0.072559819
-0.077058564
-0.077917408
-0.073190732
-0.06123619
-0.041317241
-0.014591522
0.014369314
0.034568033
0.033651257
-0.055649768
-0.05682098
-0.053394032
-0.04962508
-0.047535342
-0.047735844
-0.050332799
-0.055125193
-0.061612835
-0.068954534
-0.075939591
-0.080933529
-0.081936253
-0.076657901
-0.063018002
-0.039612422
-0.0066482573
0.032611694
0.06540467
0.077896383
-0.073458931
-0.070296721
-0.061675628
-0.053912512
-0.049155073
-0.047745839
-0.049529116
-0.054052328
-0.060598128
-0.06813077
-0.075230644
-0.080045675
-0.080335307
-0.073457925
-0.056867011
-0.028587868
0.012088301
0.064642231
0.11477975
0.15058148
-0.10605012
-0.087958683
-0.070219852
-0.056611301
-0.048409016
-0.04514748
-0.046067042
-0.050288068
-0.056774684
-0.064239374
-0.071036913
-0.07507963
-0.073870728
-0.06447363
-0.043750826
-0.008735239
0.042814858
0.11125356
0.18670241
0.27009122
-0.17548044
-0.10724048
-0.075874292
-0.05472122
-0.042993594
-0.038446555
-0.039149966
-0.043560255
-0.050282042
-0.057827658
-0.064420267
-0.067844492
-0.065379201
-0.05358562
-0.029144847
0.012535751
0.076408235
0.16799404
0.28738412
0.47217279
-0.37071563
-0.12379498
-0.05476836
-0.032254593
-0.022370825
-0.020124636
-0.023357546
-0.030013722
-0.038485663
-0.047327659
-0.054872529
-0.0590367
-0.057302998
-0.046716075
-0.022447645
0.02069907
0.091303769
0.20825148
0.40089575
0.77445161
)
;

boundaryField
{
    movingWall
    {
        type            zeroGradient;
    }
    fixedWalls
    {
        type            zeroGradient;
    }
    frontAndBack
    {
        type            empty;
    }
}


// ************************************************************************* //
