/*--------------------------------*- C++ -*----------------------------------*\
| =========                 |                                                 |
| \\      /  F ield         | OpenFOAM: The Open Source CFD Toolbox           |
|  \\    /   O peration     | Version:  2112                                  |
|   \\  /    A nd           | Website:  www.openfoam.com                      |
|    \\/     M anipulation  |                                                 |
\*---------------------------------------------------------------------------*/
FoamFile
{
    version     2.0;
    format      ascii;
    arch        "LSB;label=32;scalar=64";
    class       surfaceScalarField;
    location    "5";
    object      phi;
}
// * * * * * * * * * * * * * * * * * * * * * * * * * * * * * * * * * * * * * //

dimensions      [0 3 -1 0 0 0 0];

oriented        oriented;

internalField   nonuniform List<scalar> 
760
(
8.9383788e-06
-8.9380886e-06
-2.99813e-05
3.891964e-05
-0.000114366
8.4384612e-05
-0.00022841124
0.00011404501
-0.00035722219
0.00012881091
-0.00048868231
0.00013146005
-0.00061246783
0.00012378553
-0.0007186543
0.00010618642
-0.00079697423
7.8319931e-05
-0.00083722899
4.0254859e-05
-0.00083074678
-6.4822244e-06
-0.000772841
-5.7905686e-05
-0.00066541964
-0.00010742126
-0.00051898198
-0.00014643773
-0.0003527608
-0.00016622132
-0.00019241668
-0.00016034414
-6.4868528e-05
-0.00012754808
9.2507049e-06
-7.4119228e-05
2.4826296e-05
-1.5575617e-05
2.4826383e-05
-4.0004279e-05
3.1066159e-05
-0.0001840476
0.00018296298
-0.00041657793
0.00031691504
-0.00070815579
0.00040562281
-0.0010290461
0.00044970112
-0.0013519865
0.00045440032
-0.001651746
0.00042354499
-0.0019039179
0.00035835839
-0.002084584
0.00025898602
-0.0021716801
0.00012735117
-0.0021488799
-2.9282324e-05
-0.0020079013
-0.00019888432
-0.0017557407
-0.00035958193
-0.0014160339
-0.00048614455
-0.0010292282
-0.00055302701
-0.00064771274
-0.00054185952
-0.00032581923
-0.00044944155
-0.00010622805
-0.0002937104
-6.749855e-06
-0.00011505372
1.8076505e-05
-9.6710475e-05
0.00012777646
-0.00035225647
0.00043850867
-0.00072505117
0.00068970968
-0.0011724692
0.00085304086
-0.0016541547
0.00093138642
-0.0021328937
0.0009331393
-0.0025735842
0.00086423553
-0.0029420749
0.00072684915
-0.0032052933
0.00052220447
-0.003333449
0.00025550698
-0.0033039107
-5.8820581e-05
-0.0031062382
-0.00039655682
-0.0027486561
-0.000717164
-0.0022613487
-0.00097345217
-0.0016970659
-0.0011173099
-0.0011259794
-0.001112946
-0.00062369094
-0.00095172999
-0.00025378581
-0.00066361555
-4.9415869e-05
-0.00031942364
-3.1339448e-05
-0.00014940013
0.00027717668
-0.00051166868
0.0008007771
-0.0010171403
0.0011951811
-0.0016076622
0.0014435628
-0.0022335269
0.0015572512
-0.0028506323
0.0015502447
-0.0034176421
0.0014312454
-0.0038941143
0.0012033214
-0.0042404748
0.00086856511
-0.0044202483
0.00043528065
-0.0044046151
-7.445384e-05
-0.0041772047
-0.00062396737
-0.0037426855
-0.0011516833
-0.0031314758
-0.0015846619
-0.0024029721
-0.0018458137
-0.0016423746
-0.0018735436
-0.00094844312
-0.0016456616
-0.00041223504
-0.0011998236
-9.2757927e-05
-0.00063890073
-0.00012409741
-0.0001964954
0.000473672
-0.00065716114
0.0012614428
-0.0012855526
0.0018235726
-0.0020083093
0.0021663194
-0.0027675665
0.0023165084
-0.0035145539
0.002297232
-0.0042044038
0.0021210954
-0.0047928917
0.0017918094
-0.0052355531
0.0013112266
-0.0054892392
0.00068896669
-0.0055173283
-4.6364827e-05
-0.0052925959
-0.00084869992
-0.0048102619
-0.0016340173
-0.0040938683
-0.0023010555
-0.003203775
-0.002735907
-0.0022386568
-0.0028386619
-0.00132523
-0.0025590884
-0.00059287714
-0.0019321764
-0.00013899065
-0.0010927872
-0.00026308799
-0.00023768892
0.00071136095
-0.00078610499
0.0018098588
-0.0015252575
0.0025627251
-0.0023683672
0.0030094291
-0.0032511007
0.003199242
-0.0041221014
0.0031682328
-0.0049353329
0.002934327
-0.0056449803
0.0025014567
-0.0062031259
0.0018693723
-0.0065601291
0.0010459698
-0.0066681554
6.1661331e-05
-0.0064869195
-0.0010299358
-0.005994063
-0.0021268737
-0.0051979112
-0.0030972072
-0.0041517119
-0.0037821064
-0.0029634573
-0.0040269166
-0.0017917266
-0.0037308191
-0.00081777338
-0.0029061295
-0.00019555569
-0.0017150048
-0.00045864357
-0.00027229615
0.00098365707
-0.00089536669
0.0024329294
-0.0017297435
0.003397102
-0.002677712
0.0039573976
-0.0036704666
0.0041919966
-0.0046561862
0.0041539524
-0.0055900351
0.0038681759
-0.0064270012
0.0033384227
-0.0071177052
0.0025600763
-0.0076071257
0.0015353902
-0.0078348959
0.00028943149
-0.0077454989
-0.0011193328
-0.0072921734
-0.0025801992
-0.0064583115
-0.0039310691
-0.0052780304
-0.0049623875
-0.0038583112
-0.0054466358
-0.0023879383
-0.0052011919
-0.0011135824
-0.0041804854
-0.00027190993
-0.0025566772
-0.00073055353
-0.00029907593
0.001282733
-0.00098075254
0.0031146061
-0.001890297
0.0043066466
-0.0029215504
0.0049886511
-0.0040031911
0.0052736374
-0.0050850228
0.0052357841
-0.006125902
0.0049090552
-0.007084519
0.0042970396
-0.0079131242
0.0033886814
-0.0085539566
0.0021762225
-0.0089380516
0.00067352656
-0.0089912211
-0.0010661633
-0.0086405046
-0.0029309156
-0.0078345456
-0.0047370282
-0.0065724862
-0.0062244468
-0.0049411625
-0.0070779594
-0.0031465025
-0.0069958518
-0.0015079906
-0.0058189974
-0.00037893258
-0.0036857352
-0.0011094863
-0.00031672123
0.0015994543
-0.001038058
0.0038359429
-0.0019976045
0.0052661932
-0.0030826271
0.0060736736
-0.0042208781
0.0064118885
-0.0053657098
0.0063806158
-0.0064822624
0.0060256079
-0.0075363969
0.0053511741
-0.0084864369
0.0043387214
-0.0092772781
0.0029670636
-0.0098368047
0.0012330532
-0.010076683
-0.00082628446
-0.0098987693
-0.0031088298
-0.0092108355
-0.0054249621
-0.0079601702
-0.007475112
-0.006185545
-0.0088525846
-0.0040799031
-0.0091014937
-0.0020260087
-0.0078728918
-0.00052931564
-0.0051824282
-0.0016388019
-0.0003249096
0.0019243639
-0.0010655356
0.0045765689
-0.0020454904
0.0062461481
-0.0031461649
0.0071743481
-0.0042955058
0.0075612295
-0.0054521782
0.0075372883
-0.006590229
0.0071636587
-0.0076865367
0.0064474818
-0.0087109912
0.0053631757
-0.0096186243
0.0038746967
-0.010343156
0.0019575853
-0.01079157
-0.0003778709
-0.010849971
-0.0030504289
-0.010385602
-0.0058893317
-0.0092816735
-0.0085790401
-0.0074968979
-0.01063736
-0.0051621915
-0.0114362
-0.0026834955
-0.010351588
-0.00073827423
-0.0071276493
-0.002377076
-0.00032588254
0.0022502466
-0.001067562
0.0053182483
-0.002036351
0.0072149373
-0.003106953
0.0082449503
-0.0042085423
0.0086628188
-0.0053070892
0.0086358353
-0.0063882777
0.0082448471
-0.0074438743
0.0075030784
-0.0084610622
0.0063803635
-0.0094133436
0.004826978
-0.010252084
0.0027963259
-0.010893479
0.00026352355
-0.01122401
-0.0027198982
-0.011082481
-0.0060308602
-0.010287905
-0.0093736161
-0.0086931373
-0.012232128
-0.0063058906
-0.013823447
-0.0034748056
-0.013182673
-0.0010235038
-0.009578951
-0.0034005798
-0.00032674136
0.002576988
-0.0010594213
0.0060509283
-0.0019876
0.008143116
-0.002977216
0.0092345664
-0.0039608647
0.0096464676
-0.0049150674
0.0095900379
-0.0058403833
0.0091701629
-0.0067470177
0.0084097126
-0.0076442648
0.0072776106
-0.0085313328
0.0057140459
-0.00938719
0.0036521831
-0.010161017
0.0010373509
-0.01074831
-0.0021326052
-0.01099157
-0.0057876007
-0.010662552
-0.0097026337
-0.0095025065
-0.013392173
-0.0073407306
-0.015985223
-0.004352802
-0.016170601
-0.0014023577
-0.012529395
-0.0048029375
-0.0003430439
0.002920032
-0.0010732536
0.0067811381
-0.00193791
0.0090077724
-0.0027926227
0.010089279
-0.0035793692
0.010433214
-0.0042914889
0.010302158
-0.0049489564
0.0098276305
-0.0055835716
0.0090443277
-0.0062296121
0.007923651
-0.0069161321
0.0064005659
-0.0076580778
0.0043941287
-0.0084449337
0.0018242067
-0.0092134663
-0.0013640725
-0.0098355824
-0.0051654846
-0.010075622
-0.0094625943
-0.0095903347
-0.01387746
-0.0080067953
-0.017568762
-0.0052038903
-0.018973506
-0.0018824768
-0.015850809
-0.0066854141
-0.00040498081
0.0033250128
-0.001165115
0.0075412722
-0.0019506638
0.0097933213
-0.0026113656
0.010749981
-0.0031128586
0.010934707
-0.0034768251
0.010666124
-0.0037492677
0.010100073
-0.0039862885
0.0092813483
-0.0042474416
0.0081848041
-0.0045911072
0.0067442316
-0.0050688145
0.0048718359
-0.0057158806
0.0024712728
-0.0065276416
-0.00055231148
-0.0074362768
-0.0042568494
-0.0082523491
-0.008646522
-0.0086118744
-0.013517935
-0.007970923
-0.018209713
-0.0058256777
-0.021118752
-0.0024404238
-0.019236063
-0.0091258378
-0.00056824373
0.0038932564
-0.001421047
0.0083940754
-0.0021065235
0.010478798
-0.0024936192
0.011137076
-0.0026011468
0.011042235
-0.0024978371
0.010562814
-0.0022644507
0.0098666867
-0.0019834237
0.0090003214
-0.0017373803
0.0079387606
-0.0016087638
0.006615615
-0.0016794513
0.0049425233
-0.0020257651
0.0028175866
-0.0027075107
0.00012943413
-0.0037341761
-0.003230184
-0.0050181452
-0.0073625528
-0.0062650657
-0.012271014
-0.0068596221
-0.017615157
-0.0059127848
-0.022065589
-0.0029838241
-0.022165023
-0.012109662
-0.00093018924
0.0048234456
-0.0019473884
0.0094112745
-0.002454364
0.010985773
-0.0024207662
0.011103479
-0.0019720247
0.010593493
-0.0012494742
0.0098402638
-0.00037762673
0.0089948392
0.00053643887
0.0080862557
0.0013942649
0.0070809346
0.0020971319
0.005912748
0.0025434053
0.0044962499
0.0026263627
0.0027346294
0.0022346526
0.00052114437
0.0012803272
-0.0022758587
-0.00027487764
-0.0058073479
-0.0022995317
-0.01024636
-0.0042783895
-0.015636299
-0.0050438211
-0.021300157
-0.0033106599
-0.023898184
-0.015420322
-0.0016379773
0.006461423
-0.0027642661
0.010537563
-0.0028036152
0.011025123
-0.0020258476
0.010325711
-0.00074400555
0.009311651
0.00080761275
0.0082886454
0.0024658687
0.0073365831
0.004109962
0.0064421624
0.0056386825
0.0055522141
0.0069544227
0.0045970078
0.0079518469
0.0034988258
0.008511631
0.0021748453
0.0084904033
0.00054237198
0.0077408803
-0.0015263358
0.0061106663
-0.0041771335
0.0035335071
-0.0076692013
0.00028920832
-0.012392
-0.0026427905
-0.018368158
-0.0030928377
-0.023448137
-0.018513159
-0.0027349702
0.0091963932
-0.003225798
0.011028391
-0.0019775913
0.0097769159
0.0001739722
0.0081741474
0.0026768524
0.0068087708
0.0052537917
0.0057117061
0.007758923
0.0048314519
0.010103294
0.0040977914
0.01221719
0.0034383185
0.014028382
0.0027858152
0.015448907
0.0020783008
0.016367424
0.0012563285
0.016640672
0.00026912442
0.016091796
-0.0009774602
0.014493389
-0.0025787268
0.01158931
-0.0047651219
0.0072354757
-0.0080381661
0.0021317804
-0.013264463
-0.0013325799
-0.019983777
-0.019845739
-0.0023967947
0.011593188
3.6128714e-05
0.0085954675
0.0042202659
0.0055927787
0.0083063136
0.0040880996
0.012030093
0.003084991
0.015362781
0.0023790189
0.018313858
0.001880374
0.020900229
0.0015114212
0.02312717
0.0012113771
0.024976314
0.0009366713
0.026399709
0.0006549063
0.027313943
0.00034209447
0.02759288
-9.8130847e-06
0.027113635
-0.000498215
0.02560252
-0.0010676124
0.022723397
-0.0018859984
0.017969468
-0.0032842371
0.011057007
-0.0063520028
0.0033647772
-0.012291547
-0.016480962
0.011593188
0.020188656
0.025781434
0.029869534
0.032954525
0.035333544
0.037213918
0.038725339
0.039936716
0.040873387
0.041528294
0.041870388
0.041860575
0.04136236
0.040294747
0.038408749
0.035124512
0.028772509
0.016480962
)
;

boundaryField
{
    movingWall
    {
        type            calculated;
        value           uniform 0;
    }
    fixedWalls
    {
        type            calculated;
        value           uniform 0;
    }
    frontAndBack
    {
        type            empty;
        value           nonuniform List<scalar> 0();
    }
}


// ************************************************************************* //
