/*--------------------------------*- C++ -*----------------------------------*\
| =========                 |                                                 |
| \\      /  F ield         | OpenFOAM: The Open Source CFD Toolbox           |
|  \\    /   O peration     | Version:  2112                                  |
|   \\  /    A nd           | Website:  www.openfoam.com                      |
|    \\/     M anipulation  |                                                 |
\*---------------------------------------------------------------------------*/
FoamFile
{
    version     2.0;
    format      ascii;
    arch        "LSB;label=32;scalar=64";
    class       surfaceScalarField;
    location    "5";
    object      phi_0;
}
// * * * * * * * * * * * * * * * * * * * * * * * * * * * * * * * * * * * * * //

dimensions      [0 3 -1 0 0 0 0];

oriented        oriented;

internalField   nonuniform List<scalar> 
760
(
8.9207527e-06
-8.9204604e-06
-2.9987992e-05
3.8908705e-05
-0.00011433089
8.4342802e-05
-0.0002283108
0.00011397968
-0.00035704169
0.00012873085
-0.00048841509
0.00013137334
-0.00061211548
0.00012370039
-0.00071822787
0.00010611234
-0.00079649539
7.8267523e-05
-0.00083672961
4.023432e-05
-0.00083026614
-6.4634839e-06
-0.00077241974
-5.7846307e-05
-0.00066509223
-0.00010732741
-0.00051876856
-0.00014632375
-0.00035266116
-0.00016610754
-0.00019240888
-0.00016025229
-6.4914024e-05
-0.00012749479
9.1952669e-06
-7.4109285e-05
2.4797023e-05
-1.5601782e-05
2.4797109e-05
-3.9990514e-05
3.1070022e-05
-0.00018395564
0.00018287384
-0.00041634243
0.0003167297
-0.00070772922
0.0004053664
-0.0010284006
0.00044940219
-0.0013511147
0.00045408728
-0.0016506621
0.00042324773
-0.0019026594
0.00035810972
-0.0020832119
0.00025881997
-0.002170275
0.00012729773
-0.0021475338
-2.9204647e-05
-0.0020067052
-0.00019867494
-0.0017547692
-0.00035926349
-0.0014153309
-0.00048576213
-0.0010287968
-0.0005526416
-0.00064751356
-0.00054153542
-0.00032577906
-0.00044922924
-0.00010625855
-0.00029362979
-6.7784394e-06
-0.0001150818
1.8018647e-05
-9.6650672e-05
0.00012772052
-0.00035202568
0.00043824854
-0.00072456265
0.00068926661
-0.0011716648
0.0008524685
-0.0016530051
0.00093074236
-0.0021313994
0.00093248157
-0.0025717769
0.00086362529
-0.0029400187
0.00072635155
-0.0032030826
0.00052188397
-0.0033312019
0.00025541708
-0.0033017573
-5.8649228e-05
-0.0031043034
-0.00039612878
-0.0027470427
-0.00071652419
-0.0022601204
-0.00097268461
-0.0016962358
-0.0011165263
-0.0011255065
-0.0011122648
-0.00062348811
-0.00095124763
-0.00025374121
-0.00066337672
-4.9424821e-05
-0.00031939816
-3.140626e-05
-0.00014929067
0.00027701129
-0.00051129331
0.00080025107
-0.0010163945
0.0011943676
-0.0016064843
0.0014425584
-0.0022318931
0.0015561512
-0.0028485552
0.0015491436
-0.0034151715
0.0014302416
-0.0038913372
0.0012025172
-0.0042375113
0.00086805829
-0.0044172432
0.00043514907
-0.0044017246
-7.4167851e-05
-0.0041745772
-0.0006232763
-0.0037404463
-0.0011506551
-0.0031297097
-0.0015834212
-0.00240171
-0.001844526
-0.0016415865
-0.0018723884
-0.00094804122
-0.001644793
-0.00041209198
-0.001199326
-9.2738819e-05
-0.0006387513
-0.00012414512
-0.00019634154
0.00047335275
-0.00065665796
0.0012605674
-0.0012845828
0.0018222924
-0.0020068118
0.0021647874
-0.0027655257
0.0023148651
-0.0035119947
0.0022956127
-0.0042013914
0.0021196384
-0.0047895294
0.0017906554
-0.0052319775
0.0013105065
-0.0054856088
0.00068878031
-0.0055138157
-4.5961022e-05
-0.0052893613
-0.00084773085
-0.0048074491
-0.0016325673
-0.0040915843
-0.0022992861
-0.0032020758
-0.0027340346
-0.0022375351
-0.0028369292
-0.00132461
-0.0025577182
-0.00059262405
-0.0019313118
-0.00013894034
-0.001092435
-0.00026308538
-0.0002375027
0.00071085547
-0.00078551037
0.0018085751
-0.0015241301
0.0025609122
-0.0023666494
0.0030073067
-0.003248785
0.0031970007
-0.004119223
0.0031660508
-0.0049319673
0.0029323827
-0.0056412394
0.0024999275
-0.0061991519
0.001868419
-0.0065560864
0.0010457147
-0.0066642022
6.2154631e-05
-0.0064832336
-0.0010286994
-0.0059907934
-0.0021250075
-0.0051951832
-0.0030948963
-0.0041496106
-0.0037796073
-0.0029620091
-0.0040245307
-0.0017908822
-0.0037288451
-0.00081740332
-0.0029047905
-0.00019547173
-0.0017143665
-0.000458557
-0.00027209549
0.00098295093
-0.0008947339
0.0024312135
-0.0017285544
0.0033947327
-0.0026759137
0.0039546661
-0.0036680586
0.0041891457
-0.0046532108
0.004151203
-0.0055865723
0.0038657442
-0.006423163
0.0033365181
-0.0071136278
0.0025588838
-0.0076029581
0.0015350449
-0.0078307989
0.0002899953
-0.0077416201
-0.0011178782
-0.0072886597
-0.0025779677
-0.0064552968
-0.0039282592
-0.0052756255
-0.0049592786
-0.0038565835
-0.0054435727
-0.002386882
-0.0051985464
-0.0011130933
-0.0041785792
-0.00027178958
-0.0025556702
-0.00073034661
-0.00029888336
0.0012818343
-0.00098014788
0.0031124781
-0.001889164
0.0043037489
-0.0029198426
0.0049853448
-0.0040009137
0.0052702168
-0.0050822218
0.0052325111
-0.006122657
0.0049061795
-0.0070809349
0.004294796
-0.0079093218
0.0033872706
-0.0085500623
0.0021757853
-0.0089341924
0.00067412539
-0.0089875164
-0.0010645541
-0.0086370733
-0.0029284109
-0.0078315086
-0.0047338238
-0.0065699655
-0.0062208217
-0.0049392641
-0.007074274
-0.0031452792
-0.0069925312
-0.0015073911
-0.0058164674
-0.00037877393
-0.0036842874
-0.0011091207
-0.00031656183
0.0015983962
-0.0010375546
0.003833471
-0.0019966574
0.0052628518
-0.0030811978
0.0060698851
-0.0042189758
0.0064079948
-0.0053633813
0.0063769167
-0.0064795827
0.0060223809
-0.0075334582
0.0053486715
-0.0084833372
0.0043371494
-0.00927411
0.0029665582
-0.00983365
0.0012336655
-0.010073612
-0.00082459174
-0.0098958507
-0.0031061726
-0.0092081504
-0.0054215242
-0.0079578248
-0.0074711473
-0.0061836674
-0.0088484313
-0.0040786086
-0.00909759
-0.0020253278
-0.0078697482
-0.00052912012
-0.0051804949
-0.0016382408
-0.00032480791
0.0019232041
-0.0010652052
0.0045738683
-0.0020448562
0.0062425029
-0.0031451976
0.0071702265
-0.004294217
0.0075570143
-0.0054506122
0.007533312
-0.006588452
0.0071602207
-0.0076846232
0.0064448428
-0.0087090105
0.0053615366
-0.0096166288
0.0038741764
-0.010341176
0.0019582126
-0.010789616
-0.00037615208
-0.01084804
-0.003047748
-0.01038371
-0.0058858551
-0.009279878
-0.0085749787
-0.0074953169
-0.010632992
-0.0051609859
-0.011431921
-0.0026827939
-0.01034794
-0.00073805039
-0.0071252383
-0.0023762911
-0.00032585898
0.0022490632
-0.0010674645
0.0053154737
-0.0020361364
0.007211175
-0.0031066019
0.0082406922
-0.0042080656
0.0086584782
-0.0053065239
0.0086317703
-0.0063876748
0.0082413716
-0.0074432851
0.0075004531
-0.0084605234
0.0063787747
-0.0094128652
0.004826518
-0.010251639
0.0027969866
-0.010893033
0.00026524171
-0.011223471
-0.0027173102
-0.011081791
-0.0060275354
-0.010287046
-0.0093697236
-0.0086921759
-0.012227862
-0.0063049927
-0.013819104
-0.0034741842
-0.013178748
-0.0010232719
-0.0095761506
-0.003399563
-0.00032680881
0.0025758721
-0.0010595953
0.0060482602
-0.0019878744
0.0081394541
-0.002977581
0.0092303988
-0.0039613257
0.009642223
-0.0049156457
0.0095860903
-0.0058411062
0.009166832
-0.0067479051
0.0084072517
-0.0076453165
0.0072761861
-0.0085325187
0.0057137202
-0.009388447
0.0036529149
-0.010162228
0.0010390228
-0.010749359
-0.0021301789
-0.010992322
-0.0057845724
-0.010662907
-0.0096991384
-0.0095024487
-0.013388321
-0.0073403759
-0.015981177
-0.004352396
-0.016166728
-0.0014021536
-0.012526393
-0.0048017167
-0.00034320498
0.0029190772
-0.0010737077
0.006778763
-0.0019386904
0.0090044367
-0.0027937279
0.010085436
-0.003580793
0.010429288
-0.0042932267
0.010298524
-0.004950999
0.0098246044
-0.0055858961
0.0090421487
-0.0062321752
0.0079224652
-0.0069188649
0.0064004098
-0.0076608827
0.0043949327
-0.0084476789
0.0018258188
-0.009215998
-0.0013618598
-0.0098377359
-0.0051628344
-0.010077237
-0.009459637
-0.0095913104
-0.013874248
-0.0080071558
-0.017565331
-0.0052038384
-0.018970046
-0.0018823515
-0.01584788
-0.006684068
-0.00040522548
0.0033243026
-0.0011658205
0.007539358
-0.0019519023
0.0097905185
-0.002613143
0.010746677
-0.0031151522
0.010931297
-0.0034795948
0.010662967
-0.0037524562
0.010097466
-0.0039898197
0.009279512
-0.0042512238
0.0081838693
-0.0045950341
0.00674422
-0.0050727677
0.0048726663
-0.0057197315
0.0024727826
-0.0065312427
-0.00055034856
-0.0074394757
-0.0042546013
-0.0082549736
-0.0086441392
-0.0086137693
-0.013515452
-0.007972015
-0.018207085
-0.0058260651
-0.021115996
-0.0024404323
-0.019233512
-0.0091245002
-0.0005685452
0.0038928478
-0.0014219284
0.0083927412
-0.0021080925
0.010476683
-0.002495891
0.011134475
-0.0026040819
0.011039488
-0.0025013575
0.010560242
-0.00226845
0.0098645583
-0.001987767
0.0089988291
-0.001741931
0.0079380333
-0.0016133798
0.0066156687
-0.001684001
0.0049432874
-0.0020301281
0.0028189096
-0.0027115959
0.00013111928
-0.003737854
-0.0032283433
-0.0050212883
-0.0073607048
-0.006267523
-0.012269217
-0.0068612612
-0.017613347
-0.0059135815
-0.022063675
-0.0029839986
-0.022163095
-0.012108499
-0.00093049595
0.0048233437
-0.0019483073
0.0094105524
-0.0024560337
0.010984409
-0.0024232174
0.011101659
-0.0019752122
0.010591483
-0.0012532948
0.0098383246
-0.00038193588
0.0089931994
0.000531795
0.0080850982
0.0013894724
0.0070803559
0.0020923565
0.0059127845
0.0025387903
0.0044968536
0.0026220184
0.0027356817
0.0022306645
0.00052247332
0.0012767482
-0.0022744271
-0.00027797733
-0.0058059791
-0.0023020641
-0.010245131
-0.0042802488
-0.015635163
-0.0050448525
-0.021299071
-0.0033109716
-0.023896976
-0.01541947
-0.0016382041
0.0064615478
-0.0027650123
0.010537361
-0.0028050422
0.011024439
-0.0020280155
0.010324632
-0.00074689415
0.0093103614
0.00080409564
0.0082873347
0.0024618632
0.0073354317
0.0041056452
0.0064413161
0.005634236
0.0055517652
0.0069500269
0.0045969936
0.0079476575
0.003499223
0.0085077654
0.0021755738
0.0084869406
0.00054329805
0.0077378439
-0.0015253304
0.0061080723
-0.0041762072
0.0035313948
-0.0076684531
0.00028769136
-0.012391459
-0.002643782
-0.018367598
-0.003093208
-0.02344755
-0.018512678
-0.0027350408
0.0091965886
-0.0032261431
0.011028463
-0.0019784117
0.0097767076
0.00017256316
0.0081736575
0.0026748295
0.0068080951
0.0052511908
0.0057109734
0.0077558424
0.0048307801
0.010099879
0.0040972793
0.012213612
0.0034380325
0.01402482
0.0027857856
0.015445524
0.0020785184
0.016364351
0.0012567474
0.016637992
0.00026965699
0.01608954
-0.00097687896
0.014491545
-0.0025782123
0.011587833
-0.0047647412
0.0072343185
-0.0080379442
0.0021310264
-0.013264306
-0.0013329245
-0.019983599
-0.019845603
-0.0023967044
0.011593293
3.6195222e-05
0.0085955633
0.004220142
0.0055927608
0.0083058347
0.0040879647
0.01202916
0.00308477
0.01536137
0.002378763
0.018312017
0.0018801336
0.020898058
0.0015112383
0.02312481
0.0012112797
0.024973925
0.0009366713
0.026397446
0.00065499796
0.027311938
0.00034225482
0.027591195
-9.599894e-06
0.027112323
-0.00049800659
0.025601556
-0.0010674459
0.022722705
-0.0018858902
0.017968969
-0.0032842077
0.011056676
-0.0063520137
0.0033646375
-0.012291561
-0.016480966
0.011593293
0.020188856
0.025781617
0.029869582
0.032954352
0.035333115
0.037213248
0.038724487
0.039935766
0.040872438
0.041527436
0.041869691
0.041860091
0.041362084
0.040294638
0.038408748
0.03512454
0.028772526
0.016480966
)
;

boundaryField
{
    movingWall
    {
        type            calculated;
        value           uniform 0;
    }
    fixedWalls
    {
        type            calculated;
        value           uniform 0;
    }
    frontAndBack
    {
        type            empty;
        value           nonuniform List<scalar> 0();
    }
}


// ************************************************************************* //
