/*--------------------------------*- C++ -*----------------------------------*\
| =========                 |                                                 |
| \\      /  F ield         | OpenFOAM: The Open Source CFD Toolbox           |
|  \\    /   O peration     | Version:  2112                                  |
|   \\  /    A nd           | Website:  www.openfoam.com                      |
|    \\/     M anipulation  |                                                 |
\*---------------------------------------------------------------------------*/
FoamFile
{
    version     2.0;
    format      ascii;
    arch        "LSB;label=32;scalar=64";
    class       volVectorField;
    location    "5";
    object      U;
}
// * * * * * * * * * * * * * * * * * * * * * * * * * * * * * * * * * * * * * //

dimensions      [0 1 -1 0 0 0 0];

internalField   nonuniform List<vector> 
400
(
(0.00023256096 -0.00022896189 0)
(3.023309e-05 9.7122681e-05 0)
(-0.0012868647 0.00044639149 0)
(-0.0033386961 0.00066800557 0)
(-0.0058221619 0.00077737256 0)
(-0.0084742043 0.00080569146 0)
(-0.011072562 0.00077153257 0)
(-0.013416994 0.00067787251 0)
(-0.015305394 0.00051842676 0)
(-0.01652882 0.00028805132 0)
(-0.016891482 -7.5364372e-06 0)
(-0.016250174 -0.00034770579 0)
(-0.014568548 -0.00068332178 0)
(-0.011968128 -0.00095054628 0)
(-0.0087515352 -0.0010815236 0)
(-0.0053812901 -0.0010239727 0)
(-0.0024001252 -0.00076485067 0)
(-0.00029895944 -0.00035208702 0)
(0.00058876091 8.6933405e-05 0)
(0.00034952927 0.00033108516 0)
(-9.7507968e-05 -4.0904007e-05 0)
(-0.0017110649 0.0016543881 0)
(-0.0056424092 0.0032527873 0)
(-0.011043901 0.004313872 0)
(-0.017303173 0.0048490298 0)
(-0.023867221 0.0049387572 0)
(-0.030214277 0.0046388033 0)
(-0.035849386 0.0039635467 0)
(-0.040285842 0.0029063204 0)
(-0.04305367 0.0014772217 0)
(-0.04375124 -0.00025867983 0)
(-0.042112673 -0.0021529541 0)
(-0.038108925 -0.0039634349 0)
(-0.032040965 -0.0053860052 0)
(-0.024561303 -0.0061130087 0)
(-0.016630025 -0.0059221053 0)
(-0.0093648304 -0.0047752214 0)
(-0.0037878902 -0.0028960092 0)
(-0.00055399879 -0.00080594416 0)
(0.00021262719 0.00060989365 0)
(-0.0005237621 0.0013588089 0)
(-0.0037222109 0.0057005613 0)
(-0.010267388 0.0093939869 0)
(-0.018712771 0.01184056 0)
(-0.028194495 0.013048589 0)
(-0.037976994 0.013144147 0)
(-0.047343522 0.01222159 0)
(-0.055600938 0.010313988 0)
(-0.062070894 0.007433524 0)
(-0.066109775 0.0036468467 0)
(-0.067171784 -0.00084775208 0)
(-0.064901533 -0.0056655302 0)
(-0.059254705 -0.010231044 0)
(-0.05060748 -0.013837917 0)
(-0.039798937 -0.01578062 0)
(-0.028095823 -0.015550492 0)
(-0.017021215 -0.013053944 0)
(-0.0080275875 -0.0087748739 0)
(-0.0021593897 -0.0038115045 0)
(-5.2460239e-05 6.6021124e-05 0)
(-0.00090662262 0.0038458937 0)
(-0.0056157707 0.01192823 0)
(-0.014670031 0.018253974 0)
(-0.025952942 0.022321879 0)
(-0.03835029 0.024239662 0)
(-0.050993392 0.024215154 0)
(-0.063041135 0.022389529 0)
(-0.073675706 0.018815564 0)
(-0.082090284 0.013529136 0)
(-0.087508557 0.0066675784 0)
(-0.089253784 -0.0014121927 0)
(-0.086845763 -0.010058669 0)
(-0.080138538 -0.018300645 0)
(-0.069465263 -0.024944555 0)
(-0.055722642 -0.028773186 0)
(-0.040389636 -0.028861644 0)
(-0.025378211 -0.024951768 0)
(-0.012652764 -0.017749211 0)
(-0.0038303607 -0.0089829012 0)
(-0.00028492143 -0.0013402586 0)
(-0.0012379069 0.0073269461 0)
(-0.0073243989 0.020200286 0)
(-0.018707207 0.029644233 0)
(-0.032616652 0.035508307 0)
(-0.047703588 0.038138805 0)
(-0.063001486 0.03788811 0)
(-0.077597063 0.034962955 0)
(-0.090603385 0.029432869 0)
(-0.1011296 0.021344317 0)
(-0.10828637 0.010886002 0)
(-0.11125006 -0.0014464224 0)
(-0.1093514 -0.014731104 0)
(-0.10223194 -0.027593997 0)
(-0.090042891 -0.038285097 0)
(-0.07360017 -0.044935733 0)
(-0.054510281 -0.046000853 0)
(-0.035099287 -0.040840033 0)
(-0.018004116 -0.030242141 0)
(-0.0056723822 -0.016583222 0)
(-0.00049350344 -0.0036171407 0)
(-0.0015216468 0.011693819 0)
(-0.0088254192 0.030344099 0)
(-0.022297445 0.043382699 0)
(-0.038583606 0.051228517 0)
(-0.056132756 0.054609339 0)
(-0.073916125 0.054097682 0)
(-0.090994374 0.04999191 0)
(-0.10646014 0.042371176 0)
(-0.11937865 0.03126189 0)
(-0.12876414 0.016855115 0)
(-0.1336177 -0.00027420275 0)
(-0.13302526 -0.018982662 0)
(-0.12630979 -0.037518858 0)
(-0.11327176 -0.053522807 0)
(-0.094469696 -0.064307658 0)
(-0.071498329 -0.067415387 0)
(-0.047077653 -0.06146109 0)
(-0.024686778 -0.047035262 0)
(-0.0079549994 -0.027136967 0)
(-0.00073265572 -0.0068891079 0)
(-0.0017564695 0.016822834 0)
(-0.010088361 0.042124192 0)
(-0.025346475 0.059199169 0)
(-0.043686732 0.069222839 0)
(-0.063398708 0.07343949 0)
(-0.083428901 0.072721192 0)
(-0.10285744 0.067488405 0)
(-0.1208063 0.05782048 0)
(-0.1363434 0.043680824 0)
(-0.14841923 0.025191434 0)
(-0.1558613 0.0029098936 0)
(-0.15747739 -0.02192313 0)
(-0.15218423 -0.04723072 0)
(-0.13926622 -0.070039829 0)
(-0.1187989 -0.086691815 0)
(-0.092120281 -0.093456409 0)
(-0.062187886 -0.087667172 0)
(-0.033407848 -0.069194284 0)
(-0.011023448 -0.041489375 0)
(-0.001073769 -0.011451484 0)
(-0.0019344868 0.022570387 0)
(-0.011067515 0.0552496 0)
(-0.027732767 0.076740096 0)
(-0.047697926 0.089127583 0)
(-0.069135958 0.094296692 0)
(-0.0910045 0.093499982 0)
(-0.11244868 0.087316066 0)
(-0.1326746 0.075818311 0)
(-0.15081334 0.058860418 0)
(-0.16581443 0.036408553 0)
(-0.17639775 0.0088771952 0)
(-0.18110196 -0.022550691 0)
(-0.17839498 -0.05561189 0)
(-0.16693396 -0.086806232 0)
(-0.14605745 -0.1114271 0)
(-0.11647855 -0.12411494 0)
(-0.081014214 -0.12021845 0)
(-0.044853334 -0.098003003 0)
(-0.01527353 -0.060842099 0)
(-0.0016054604 -0.017805365 0)
(-0.0020464442 0.028765237 0)
(-0.011717426 0.069368273 0)
(-0.02933371 0.095554082 0)
(-0.050365684 0.11043806 0)
(-0.072903317 0.11665961 0)
(-0.095945596 0.11593665 0)
(-0.11874676 0.10905234 0)
(-0.14065735 0.096080187 0)
(-0.16095082 0.076727816 0)
(-0.17867546 0.050721556 0)
(-0.1925566 0.018198357 0)
(-0.20096761 -0.019887878 0)
(-0.20199385 -0.061322083 0)
(-0.19363232 -0.10229428 0)
(-0.17426812 -0.13713987 0)
(-0.14354166 -0.15864336 0)
(-0.10348954 -0.15939701 0)
(-0.059530198 -0.13473235 0)
(-0.021149122 -0.086717652 0)
(-0.0024503423 -0.026690273 0)
(-0.0020919278 0.035215512 0)
(-0.012027733 0.084078117 0)
(-0.030087793 0.11508828 0)
(-0.051501391 0.13247889 0)
(-0.074295002 0.1397576 0)
(-0.097533898 0.13920203 0)
(-0.12062388 0.13186221 0)
(-0.14312322 0.11783991 0)
(-0.16453995 0.09668746 0)
(-0.18415046 0.067836661 0)
(-0.20085114 0.031033477 0)
(-0.21304296 -0.01319135 0)
(-0.21862985 -0.062965055 0)
(-0.2150658 -0.11452123 0)
(-0.1996965 -0.16157951 0)
(-0.17067753 -0.19514709 0)
(-0.12842822 -0.2044497 0)
(-0.077504154 -0.1801909 0)
(-0.029131675 -0.12082073 0)
(-0.0037965526 -0.039130396 0)
(-0.002094964 0.041742215 0)
(-0.012075402 0.09897473 0)
(-0.030086023 0.13471771 0)
(-0.051103535 0.15440548 0)
(-0.073099762 0.16254625 0)
(-0.095236269 0.16208781 0)
(-0.11711675 0.15442735 0)
(-0.13857085 0.13974947 0)
(-0.15943391 0.11748035 0)
(-0.17934829 0.0867522 0)
(-0.19758081 0.04686007 0)
(-0.21282607 -0.0022517569 0)
(-0.22311528 -0.059405399 0)
(-0.22565654 -0.12130312 0)
(-0.21692487 -0.18168001 0)
(-0.19339321 -0.23031381 0)
(-0.15303696 -0.25295985 0)
(-0.097981815 -0.23401556 0)
(-0.039670465 -0.16471503 0)
(-0.0059399322 -0.056491768 0)
(-0.0021288155 0.048250913 0)
(-0.01209743 0.11374642 0)
(-0.029685533 0.15381244 0)
(-0.049499308 0.1752408 0)
(-0.069474078 0.18372826 0)
(-0.088929569 0.18302427 0)
(-0.10773293 0.17496407 0)
(-0.12605022 0.15988826 0)
(-0.14412224 0.13716161 0)
(-0.16206898 0.10566531 0)
(-0.1797089 0.064249314 0)
(-0.19635097 0.01218953 0)
(-0.2104819 -0.050241079 0)
(-0.21950103 -0.12077171 0)
(-0.21952865 -0.19398738 0)
(-0.2055596 -0.25950904 0)
(-0.17263812 -0.30038388 0)
(-0.11878434 -0.29376347 0)
(-0.052972346 -0.21919678 0)
(-0.0093186056 -0.080519898 0)
(-0.0023605506 0.054860756 0)
(-0.01259526 0.12832061 0)
(-0.029635392 0.17183129 0)
(-0.047465711 0.19393238 0)
(-0.064062711 0.20180929 0)
(-0.079046624 0.20016164 0)
(-0.092658793 0.19134105 0)
(-0.10547474 0.17591141 0)
(-0.11819563 0.15325572 0)
(-0.13148387 0.1220957 0)
(-0.14581455 0.080919152 0)
(-0.16127422 0.028376352 0)
(-0.1771862 -0.036215678 0)
(-0.19171833 -0.11207636 0)
(-0.20132458 -0.19550244 0)
(-0.20027217 -0.27745773 0)
(-0.18088984 -0.34012478 0)
(-0.13591556 -0.35410445 0)
(-0.068547211 -0.28328091 0)
(-0.014480251 -0.11326559 0)
(-0.0031382644 0.062130012 0)
(-0.014493464 0.14305231 0)
(-0.031190899 0.18839657 0)
(-0.046253861 0.20937784 0)
(-0.05794258 0.21514043 0)
(-0.066471458 0.21146902 0)
(-0.072639947 0.20125113 0)
(-0.077519731 0.18529258 0)
(-0.082295567 0.16305105 0)
(-0.088162319 0.13319047 0)
(-0.096240157 0.093983007 0)
(-0.10743467 0.043616345 0)
(-0.1221186 -0.01946553 0)
(-0.13969175 -0.096049532 0)
(-0.15777276 -0.18476285 0)
(-0.17114332 -0.27951661 0)
(-0.17057983 -0.3644427 0)
(-0.14348556 -0.40662443 0)
(-0.084447578 -0.35287617 0)
(-0.021841359 -0.15667108 0)
(-0.0051583868 0.071464041 0)
(-0.019371417 0.15891519 0)
(-0.036116927 0.20324239 0)
(-0.047304423 0.22030815 0)
(-0.05209832 0.22184599 0)
(-0.051833602 0.21475111 0)
(-0.048135731 0.20232997 0)
(-0.042665991 0.18554468 0)
(-0.03708024 0.1639145 0)
(-0.033022294 0.13610828 0)
(-0.032134096 0.10033182 0)
(-0.036021121 0.054542913 0)
(-0.04609431 -0.0033765591 0)
(-0.063157278 -0.075446362 0)
(-0.086660913 -0.16270886 0)
(-0.11336535 -0.26317261 0)
(-0.13463271 -0.36612623 0)
(-0.13400464 -0.44060692 0)
(-0.096306179 -0.4195598 0)
(-0.031009014 -0.21160025 0)
(-0.0097275257 0.08584786 0)
(-0.02965547 0.17751309 0)
(-0.046120167 0.21582209 0)
(-0.050916587 0.22485086 0)
(-0.045546368 0.21949462 0)
(-0.033267423 0.20746572 0)
(-0.016832134 0.19211917 0)
(0.0014602254 0.17431254 0)
(0.019560701 0.15351089 0)
(0.035534252 0.1284019 0)
(0.04742702 0.097231121 0)
(0.05317742 0.057963005 0)
(0.050592468 0.0083296368 0)
(0.037632372 -0.054274556 0)
(0.012810253 -0.13267705 0)
(-0.023688335 -0.22904244 0)
(-0.066559567 -0.3403508 0)
(-0.098568606 -0.44455969 0)
(-0.096567125 -0.47023537 0)
(-0.039562546 -0.27689303 0)
(-0.018865173 0.11091311 0)
(-0.047820091 0.19980594 0)
(-0.059629483 0.22365493 0)
(-0.051299434 0.21909906 0)
(-0.029526883 0.20406638 0)
(-0.00032610103 0.18608116 0)
(0.032371014 0.16773371 0)
(0.065837341 0.14930564 0)
(0.097939727 0.12998422 0)
(0.12675369 0.10842522 0)
(0.15030865 0.082987483 0)
(0.16641739 0.051833761 0)
(0.17246353 0.012915793 0)
(0.16562102 -0.036239212 0)
(0.14281927 -0.099030486 0)
(0.10116941 -0.18051487 0)
(0.040477431 -0.28585545 0)
(-0.026157353 -0.40793895 0)
(-0.074430594 -0.48814459 0)
(-0.041627158 -0.34826707 0)
(-0.033351866 0.15633001 0)
(-0.069338306 0.22013917 0)
(-0.057642835 0.21545043 0)
(-0.02073035 0.19212255 0)
(0.027466554 0.16700319 0)
(0.079153771 0.14455007 0)
(0.13046492 0.12523639 0)
(0.17926129 0.10820992 0)
(0.2240843 0.092189805 0)
(0.26359736 0.075790458 0)
(0.29626139 0.057601505 0)
(0.32016857 0.036178775 0)
(0.33273622 0.0099566593 0)
(0.33097692 -0.022933591 0)
(0.31088352 -0.065117781 0)
(0.26747745 -0.12213959 0)
(0.19587107 -0.20462942 0)
(0.098824172 -0.32410776 0)
(-0.014094738 -0.45352698 0)
(-0.024191865 -0.4077165 0)
(-0.032865886 0.239757 0)
(-0.042247359 0.21841705 0)
(0.042086444 0.1639634 0)
(0.12624177 0.12673389 0)
(0.20465836 0.099814523 0)
(0.27536869 0.079886317 0)
(0.33819583 0.065060095 0)
(0.39350055 0.05355634 0)
(0.44159232 0.043849032 0)
(0.48239896 0.034732037 0)
(0.51528758 0.025223372 0)
(0.53902425 0.014478688 0)
(0.55141847 0.0016785426 0)
(0.55025529 -0.013803089 0)
(0.53148322 -0.03379078 0)
(0.48960162 -0.061661501 0)
(0.41599675 -0.10654339 0)
(0.3027271 -0.19302864 0)
(0.12234004 -0.33682086 0)
(0.052114058 -0.39429144 0)
(0.2432351 0.15280304 0)
(0.30594745 0.11887475 0)
(0.45557625 0.076253517 0)
(0.56042864 0.050761701 0)
(0.63189383 0.03486947 0)
(0.68521604 0.024469982 0)
(0.72710598 0.017629787 0)
(0.76065312 0.013017556 0)
(0.78764268 0.0096654743 0)
(0.80899744 0.0069150924 0)
(0.82490193 0.0043146855 0)
(0.83497787 0.0015582941 0)
(0.83836881 -0.0016210146 0)
(0.83366274 -0.005072545 0)
(0.81826022 -0.0095881916 0)
(0.78932034 -0.01607804 0)
(0.73798494 -0.026885987 0)
(0.65331808 -0.051310976 0)
(0.45615829 -0.11380318 0)
(0.31788904 -0.17211045 0)
)
;

boundaryField
{
    movingWall
    {
        type            fixedValue;
        value           uniform (1 0 0);
    }
    fixedWalls
    {
        type            fixedValue;
        value           uniform (0 0 0);
    }
    frontAndBack
    {
        type            empty;
    }
}


// ************************************************************************* //
