/*--------------------------------*- C++ -*----------------------------------*\
| =========                 |                                                 |
| \\      /  F ield         | OpenFOAM: The Open Source CFD Toolbox           |
|  \\    /   O peration     | Version:  2112                                  |
|   \\  /    A nd           | Website:  www.openfoam.com                      |
|    \\/     M anipulation  |                                                 |
\*---------------------------------------------------------------------------*/
FoamFile
{
    version     2.0;
    format      ascii;
    arch        "LSB;label=32;scalar=64";
    class       volVectorField;
    location    "5";
    object      U_0;
}
// * * * * * * * * * * * * * * * * * * * * * * * * * * * * * * * * * * * * * //

dimensions      [0 1 -1 0 0 0 0];

internalField   nonuniform List<vector> 
400
(
(0.00023232369 -0.00022872248 0)
(2.9855436e-05 9.7204187e-05 0)
(-0.0012867043 0.00044625005 0)
(-0.0033374209 0.00066769245 0)
(-0.0058193936 0.00077694753 0)
(-0.0084697293 0.00080520194 0)
(-0.011066327 0.00077102365 0)
(-0.013409122 0.00067740044 0)
(-0.015296213 0.00051806265 0)
(-0.016518877 0.00028787137 0)
(-0.016881507 -7.4700767e-06 0)
(-0.016240995 -0.00034736644 0)
(-0.014560947 -0.00068274243 0)
(-0.011962676 -0.0009498252 0)
(-0.0087484445 -0.0010808099 0)
(-0.0053803386 -0.0010234303 0)
(-0.0024006909 -0.00076460227 0)
(-0.00030009937 -0.00035216004 0)
(0.00058787243 8.658315e-05 0)
(0.0003492186 0.00033078411 0)
(-9.7566188e-05 -4.0516239e-05 0)
(-0.0017103695 0.0016538007 0)
(-0.0056394151 0.0032510849 0)
(-0.011037459 0.0043113204 0)
(-0.017292532 0.0048459456 0)
(-0.023852021 0.0049354445 0)
(-0.030194579 0.0046355784 0)
(-0.035825705 0.0039607676 0)
(-0.040259176 0.0029043776 0)
(-0.043025468 0.0014764815 0)
(-0.043723283 -0.00025796582 0)
(-0.042086855 -0.0021507493 0)
(-0.038086968 -0.0039599779 0)
(-0.032024106 -0.0053818171 0)
(-0.024550036 -0.0061088156 0)
(-0.016623978 -0.0059186781 0)
(-0.0093628202 -0.004773154 0)
(-0.0037881837 -0.0028954999 0)
(-0.00055488039 -0.00080671023 0)
(0.00021222865 0.00060897777 0)
(-0.00052347975 0.0013585012 0)
(-0.0037198647 0.0056975092 0)
(-0.010260586 0.0093882605 0)
(-0.01870006 0.011832871 0)
(-0.028175021 0.013039746 0)
(-0.037950463 0.013134968 0)
(-0.047310249 0.012212945 0)
(-0.055561887 0.010306817 0)
(-0.062027676 0.0074287846 0)
(-0.066064568 0.0036453657 0)
(-0.067127144 -0.00084547909 0)
(-0.064860095 -0.0056595371 0)
(-0.059218823 -0.01022198 0)
(-0.050578878 -0.013827036 0)
(-0.039778416 -0.015769603 0)
(-0.028083097 -0.015541112 0)
(-0.017014941 -0.013047608 0)
(-0.0080256532 -0.0087721618 0)
(-0.0021594821 -0.0038118411 0)
(-5.2733165e-05 6.4671598e-05 0)
(-0.00090596427 0.003843872 0)
(-0.0056116656 0.011920775 0)
(-0.014659286 0.018241897 0)
(-0.025933924 0.022306604 0)
(-0.038322198 0.024222676 0)
(-0.050956113 0.024197951 0)
(-0.06299529 0.022373682 0)
(-0.073622677 0.018802732 0)
(-0.082032184 0.013520936 0)
(-0.087448101 0.0066653322 0)
(-0.089194066 -0.0014077667 0)
(-0.086789915 -0.010047724 0)
(-0.08008937 -0.018284316 0)
(-0.069424937 -0.024924927 0)
(-0.055692357 -0.028753023 0)
(-0.040369412 -0.028843894 0)
(-0.025366831 -0.024938877 0)
(-0.012647979 -0.017742385 0)
(-0.0038293901 -0.0089815253 0)
(-0.00028502799 -0.0013415443 0)
(-0.0012369096 0.0073222507 0)
(-0.0073187262 0.020186593 0)
(-0.018692993 0.029623671 0)
(-0.032592176 0.035483307 0)
(-0.047668175 0.038111692 0)
(-0.062955237 0.037861164 0)
(-0.077540886 0.034938535 0)
(-0.09053899 0.029413405 0)
(-0.10105944 0.0213321 0)
(-0.10821346 0.010882821 0)
(-0.1111778 -0.0014396661 0)
(-0.10928318 -0.014714608 0)
(-0.10217088 -0.027569395 0)
(-0.089991545 -0.038255281 0)
(-0.073560223 -0.044904546 0)
(-0.054482263 -0.04597251 0)
(-0.035082372 -0.040818248 0)
(-0.017996145 -0.030229083 0)
(-0.0056702169 -0.016578613 0)
(-0.00049343147 -0.0036177443 0)
(-0.0015203994 0.011685661 0)
(-0.0088186144 0.030322692 0)
(-0.022280767 0.043351974 0)
(-0.038555324 0.05119216 0)
(-0.056092338 0.054570641 0)
(-0.073863872 0.054059774 0)
(-0.09093141 0.049957964 0)
(-0.10638837 0.042344386 0)
(-0.11930069 0.031245193 0)
(-0.12868311 0.016850754 0)
(-0.1335369 -0.00026512379 0)
(-0.13294811 -0.018960525 0)
(-0.12623959 -0.037485641 0)
(-0.11321131 -0.053482032 0)
(-0.09442115 -0.064264117 0)
(-0.071462881 -0.067374553 0)
(-0.04705514 -0.061428148 0)
(-0.024675439 -0.047013764 0)
(-0.0079515389 -0.027127478 0)
(-0.00073238899 -0.0068883765 0)
(-0.0017551055 0.016810726 0)
(-0.010081068 0.042094203 0)
(-0.025328797 0.059157338 0)
(-0.043656996 0.069174266 0)
(-0.063356518 0.073388508 0)
(-0.083374714 0.0726718 0)
(-0.1027925 0.067444564 0)
(-0.12073258 0.057786086 0)
(-0.13626345 0.04365937 0)
(-0.14833597 0.025185529 0)
(-0.15577787 0.0029207904 0)
(-0.15739692 -0.021895932 0)
(-0.15210967 -0.047189393 0)
(-0.1392004 -0.069988288 0)
(-0.11874432 -0.086635526 0)
(-0.092078811 -0.093401927 0)
(-0.062160278 -0.087621233 0)
(-0.033393152 -0.06916225 0)
(-0.0110186 -0.041473309 0)
(-0.0010732725 -0.01144871 0)
(-0.0019331757 0.022554253 0)
(-0.011060541 0.055210965 0)
(-0.027715902 0.076687174 0)
(-0.047669626 0.089066925 0)
(-0.069095948 0.094233686 0)
(-0.09095334 0.093439473 0)
(-0.11238767 0.087262738 0)
(-0.13260564 0.075776647 0)
(-0.15073875 0.058834318 0)
(-0.16573676 0.036400823 0)
(-0.17631958 0.0088891154 0)
(-0.18102576 -0.022519566 0)
(-0.1783231 -0.055563845 0)
(-0.16686879 -0.086745308 0)
(-0.14600141 -0.11135903 0)
(-0.11643402 -0.12404693 0)
(-0.080982955 -0.1201586 0)
(-0.044835677 -0.097958791 0)
(-0.015267256 -0.060817834 0)
(-0.001604682 -0.017799785 0)
(-0.0020453756 0.028745487 0)
(-0.011711664 0.069321868 0)
(-0.029319658 0.09549119 0)
(-0.050341997 0.11036658 0)
(-0.072869821 0.11658594 0)
(-0.095902906 0.11586644 0)
(-0.11869615 0.10899088 0)
(-0.14060056 0.096032402 0)
(-0.16088983 0.076697832 0)
(-0.17861225 0.050712202 0)
(-0.19249295 0.018210816 0)
(-0.20090503 -0.019854179 0)
(-0.20193368 -0.06126947 0)
(-0.19357597 -0.10222662 0)
(-0.1742174 -0.13706264 0)
(-0.14349894 -0.15856376 0)
(-0.10345744 -0.15932393 0)
(-0.059510655 -0.13467529 0)
(-0.02114154 -0.086683906 0)
(-0.0024492247 -0.026681105 0)
(-0.002091286 0.035193062 0)
(-0.012024056 0.084025791 0)
(-0.030078507 0.11501768 0)
(-0.051485427 0.13239903 0)
(-0.074272255 0.13967577 0)
(-0.097504981 0.13912459 0)
(-0.12058996 0.13179496 0)
(-0.1430858 0.11778803 0)
(-0.16450055 0.096655088 0)
(-0.18411037 0.067826407 0)
(-0.20081122 0.031046199 0)
(-0.21300361 -0.013156512 0)
(-0.21859107 -0.062910553 0)
(-0.21502756 -0.11445057 0)
(-0.19965941 -0.16149744 0)
(-0.17064326 -0.19506001 0)
(-0.12839968 -0.20436627 0)
(-0.077484788 -0.180122 0)
(-0.029123211 -0.12077698 0)
(-0.0037950583 -0.039116941 0)
(-0.0020948984 0.041718445 0)
(-0.012074535 0.098919226 0)
(-0.030083148 0.13464272 0)
(-0.051097915 0.15432074 0)
(-0.073091317 0.16245978 0)
(-0.095225523 0.16200656 0)
(-0.11710466 0.1543575 0)
(-0.13855853 0.13969627 0)
(-0.15942234 0.11744772 0)
(-0.179338 0.086742276 0)
(-0.19757171 0.046873093 0)
(-0.21281751 -0.0022172234 0)
(-0.22310587 -0.059351793 0)
(-0.22564463 -0.12123371 0)
(-0.21690948 -0.18159861 0)
(-0.19337466 -0.23022528 0)
(-0.15301755 -0.25287143 0)
(-0.097965793 -0.23393813 0)
(-0.03966202 -0.16466209 0)
(-0.0059380891 -0.056473602 0)
(-0.0021294147 0.048227549 0)
(-0.01209983 0.11369116 0)
(-0.029690136 0.15373718 0)
(-0.049505745 0.1751555 0)
(-0.069482225 0.18364142 0)
(-0.088939725 0.18294326 0)
(-0.10774566 0.17489526 0)
(-0.12606607 0.15983684 0)
(-0.14414152 0.13713109 0)
(-0.16209147 0.10565725 0)
(-0.1797337 0.0642632 0)
(-0.19637628 0.012223216 0)
(-0.21050527 -0.050190451 0)
(-0.21951979 -0.12070735 0)
(-0.21954022 -0.19391218 0)
(-0.20556256 -0.25942599 0)
(-0.17263329 -0.30029773 0)
(-0.11877553 -0.29368332 0)
(-0.052965403 -0.21913736 0)
(-0.0093165761 -0.080497169 0)
(-0.0023618231 0.05483969 0)
(-0.012601016 0.12826936 0)
(-0.029647729 0.1717603 0)
(-0.047484646 0.19385123 0)
(-0.064087993 0.2017266 0)
(-0.07907815 0.20008498 0)
(-0.092696487 0.19127681 0)
(-0.10551835 0.17586454 0)
(-0.11824458 0.15322933 0)
(-0.13153712 0.12209073 0)
(-0.14587048 0.080934432 0)
(-0.16133051 0.028409072 0)
(-0.17723992 -0.036169206 0)
(-0.1917662 -0.11201952 0)
(-0.2013631 -0.19543759 0)
(-0.20029845 -0.27738623 0)
(-0.18090282 -0.34004848 0)
(-0.13591736 -0.35402909 0)
(-0.068543701 -0.28321985 0)
(-0.014478408 -0.11323936 0)
(-0.0031401197 0.062113078 0)
(-0.014502207 0.14300875 0)
(-0.031210221 0.18833433 0)
(-0.046284167 0.20930547 0)
(-0.057983434 0.21506621 0)
(-0.066522201 0.2114004 0)
(-0.072699647 0.20119429 0)
(-0.077587103 0.18525213 0)
(-0.082368986 0.16302973 0)
(-0.088239853 0.1331888 0)
(-0.096319591 0.093999359 0)
(-0.10751352 0.043647468 0)
(-0.12219407 -0.019423753 0)
(-0.13976082 -0.09600107 0)
(-0.157832 -0.18471009 0)
(-0.17118919 -0.27946006 0)
(-0.17060974 -0.36438188 0)
(-0.1434993 -0.40656118 0)
(-0.084449296 -0.35281986 0)
(-0.021840299 -0.15664355 0)
(-0.0051605966 0.071452729 0)
(-0.019382194 0.15888236 0)
(-0.036141228 0.20319268 0)
(-0.047343052 0.22024847 0)
(-0.052150688 0.22178379 0)
(-0.051898473 0.21469329 0)
(-0.048211285 0.20228227 0)
(-0.042749833 0.18551127 0)
(-0.037169696 0.16389792 0)
(-0.033114608 0.13610887 0)
(-0.032226512 0.10034793 0)
(-0.03611108 0.054571283 0)
(-0.046179645 -0.0033401714 0)
(-0.063235825 -0.075406096 0)
(-0.086730058 -0.16266761 0)
(-0.11342211 -0.26313107 0)
(-0.13467408 -0.36608286 0)
(-0.13402838 -0.44056066 0)
(-0.096313709 -0.41951444 0)
(-0.031009359 -0.2115746 0)
(-0.0097296502 0.085842895 0)
(-0.029666514 0.17749264 0)
(-0.046145809 0.21578722 0)
(-0.050958053 0.22480639 0)
(-0.04560313 0.2194467 0)
(-0.033337945 0.20742026 0)
(-0.016914058 0.19208124 0)
(0.0013701368 0.17428593 0)
(0.019465899 0.15349786 0)
(0.035438022 0.12840295 0)
(0.04733255 0.097244996 0)
(0.053087298 0.057986917 0)
(0.05050866 0.008359738 0)
(0.037556217 -0.05424215 0)
(0.01274294 -0.13264568 0)
(-0.023745153 -0.22901352 0)
(-0.066604042 -0.34032316 0)
(-0.098597304 -0.44453112 0)
(-0.096578826 -0.47020463 0)
(-0.039564437 -0.27687253 0)
(-0.018866525 0.11091378 0)
(-0.047828684 0.1997972 0)
(-0.059650959 0.22363479 0)
(-0.051335555 0.21907014 0)
(-0.029577724 0.20403323 0)
(-0.00039050644 0.18604841 0)
(0.032295328 0.1677055 0)
(0.065753558 0.14928532 0)
(0.097851469 0.12997373 0)
(0.12666458 0.10842532 0)
(0.15022211 0.082997471 0)
(0.16633619 0.051851651 0)
(0.17238971 0.012938632 0)
(0.16555556 -0.036214883 0)
(0.14276263 -0.099007832 0)
(0.10112191 -0.18049591 0)
(0.040438536 -0.28584004 0)
(-0.026184477 -0.40792402 0)
(-0.074442884 -0.48812794 0)
(-0.041629844 -0.34825396 0)
(-0.033351768 0.15633384 0)
(-0.069341529 0.22013861 0)
(-0.057654209 0.21544226 0)
(-0.020752415 0.19210739 0)
(0.027432418 0.16698381 0)
(0.079107469 0.14452969 0)
(0.13040785 0.12521804 0)
(0.1791959 0.10819609 0)
(0.22401378 0.092182104 0)
(0.26352524 0.075789639 0)
(0.29619118 0.057607306 0)
(0.32010328 0.036189997 0)
(0.33267813 0.009971391 0)
(0.33092713 -0.022917934 0)
(0.31084232 -0.065103538 0)
(0.26744424 -0.12212867 0)
(0.19584466 -0.2046226 0)
(0.09880498 -0.32410207 0)
(-0.014104554 -0.45352082 0)
(-0.024194356 -0.4077111 0)
(-0.032864775 0.23976044 0)
(-0.042245068 0.21841987 0)
(0.042086595 0.16396245 0)
(0.12623617 0.12672897 0)
(0.20464464 0.099806738 0)
(0.2753455 0.079877385 0)
(0.33816331 0.065051674 0)
(0.39346016 0.053549827 0)
(0.44154653 0.043845382 0)
(0.48235082 0.034731701 0)
(0.51524033 0.025226249 0)
(0.53898085 0.014484145 0)
(0.55138101 0.0016855177 0)
(0.55022494 -0.013795761 0)
(0.53146034 -0.033784252 0)
(0.48958525 -0.061656826 0)
(0.4159852 -0.10654104 0)
(0.30271898 -0.19302767 0)
(0.12233536 -0.3368202 0)
(0.052112544 -0.39429088 0)
(0.24323624 0.15280412 0)
(0.3059507 0.11887643 0)
(0.4555803 0.076254339 0)
(0.56043129 0.050761444 0)
(0.63189297 0.034868288 0)
(0.6852103 0.024468292 0)
(0.7270951 0.017628063 0)
(0.76063781 0.013016215 0)
(0.78762442 0.0096648095 0)
(0.80897809 0.0069152418 0)
(0.82488345 0.0043156155 0)
(0.83496195 0.0015598165 0)
(0.83835666 -0.001619305 0)
(0.83365493 -0.0050708139 0)
(0.81825638 -0.0095866818 0)
(0.78931941 -0.016077061 0)
(0.73798551 -0.02688562 0)
(0.65331878 -0.051311045 0)
(0.45615857 -0.11380347 0)
(0.31788903 -0.17211072 0)
)
;

boundaryField
{
    movingWall
    {
        type            fixedValue;
        value           uniform (1 0 0);
    }
    fixedWalls
    {
        type            fixedValue;
        value           uniform (0 0 0);
    }
    frontAndBack
    {
        type            empty;
    }
}


// ************************************************************************* //
