/*--------------------------------*- C++ -*----------------------------------*\
| =========                 |                                                 |
| \\      /  F ield         | OpenFOAM: The Open Source CFD Toolbox           |
|  \\    /   O peration     | Version:  2112                                  |
|   \\  /    A nd           | Website:  www.openfoam.com                      |
|    \\/     M anipulation  |                                                 |
\*---------------------------------------------------------------------------*/
FoamFile
{
    version     2.0;
    format      ascii;
    arch        "LSB;label=32;scalar=64";
    class       volScalarField;
    location    "2";
    object      T;
}
// * * * * * * * * * * * * * * * * * * * * * * * * * * * * * * * * * * * * * //

dimensions      [0 0 0 1 0 0 0];

internalField   nonuniform List<scalar> 
1000
(
0
0
0
0
0
0
0
0
0
0
0
0
0
0
0
0
0
0
0
0
0
0
0
0
0
0
0
0
0
0
0
0
0
0
0
0
0
0
0
0
0
0
0
0
0
0
0
0
0
0
0
0
0
0
0
0
0
0
0
0
0
0
0
0
0
0
0
0
0
0
0
0
0
0
0
0
0
0
0
0
0
0
0
0
0
0
0
0
0
0
0
0
0
0
0
0
0
0
0
0
0
0
0
0
0
0
0
0
0
0
0
0
0
0
0
0
0
0
0
0
0
0
0
0
0
0
0
0
0
0
0
0
0
0
0
0
0
0
0
0
0
0
0
0
0
0
0
0
0
0
0
0
0
0
0
0
0
0
0
0
0
0
0
0
0
0
0
0
0
0
0
0
0
0
0
0
0
0
0
0
0
0
0
0
0
0
0
0
0
0
0
0
0
0
0
0
0
0
0
0
0
0
0
0
0
0
0
0
0
0
0
0
0
0
0
0
0
0
0
0
0
0
0
0
0
0
0
0
0
0
0
0
0
0
0
0
0
0
0
0
0
0
0
0
0
0
0
0
0
0
1.45798e-216
-2.5257e-213
2.1756e-210
-1.2424e-207
5.29142e-205
-1.79276e-202
5.03297e-200
-1.2042e-197
2.5066e-195
-4.61109e-193
7.5899e-191
-1.12909e-188
1.53064e-186
-1.90403e-184
2.18621e-182
-2.32881e-180
2.31161e-178
-2.14643e-176
1.8708e-174
-1.53522e-172
1.18941e-170
-8.72121e-169
6.06563e-167
-4.00964e-165
2.52388e-163
-1.5153e-161
8.69102e-160
-4.76877e-158
2.50657e-156
-1.26365e-154
6.11698e-153
-2.84626e-151
1.27429e-149
-5.49434e-148
2.28347e-146
-9.15504e-145
3.54354e-143
-1.32507e-141
4.79024e-140
-1.67519e-138
5.67052e-137
-1.85898e-135
5.90545e-134
-1.81876e-132
5.43309e-131
-1.57494e-129
4.43213e-128
-1.21134e-126
3.21654e-125
-8.30119e-124
2.0829e-122
-5.08293e-121
1.20673e-119
-2.78793e-118
6.26976e-117
-1.37287e-115
2.92767e-114
-6.08179e-113
1.23098e-111
-2.42814e-110
4.66853e-109
-8.75087e-108
1.59941e-106
-2.85085e-105
4.95635e-104
-8.40582e-103
1.39086e-101
-2.24557e-100
3.53797e-99
-5.44009e-98
8.16438e-97
-1.19602e-95
1.71034e-94
-2.38769e-93
3.25424e-92
-4.33025e-91
5.62576e-90
-7.13614e-89
8.83821e-88
-1.06877e-86
1.26188e-85
-1.45466e-84
1.63717e-83
-1.79889e-82
1.92959e-81
-2.02047e-80
2.06505e-79
-2.05998e-78
2.00541e-77
-1.90503e-76
1.76565e-75
-1.59641e-74
1.40784e-73
-1.21075e-72
1.01522e-71
-8.29801e-71
6.60989e-70
-5.12987e-69
3.87778e-68
-2.85422e-67
2.04487e-66
-1.42546e-65
9.66424e-65
-6.36949e-64
4.07888e-63
-2.53647e-62
1.53072e-61
-8.95841e-61
5.08032e-60
-2.78926e-59
1.48109e-58
-7.59739e-58
3.75973e-57
-1.79216e-56
8.21343e-56
-3.61107e-55
1.51891e-54
-6.09182e-54
2.31944e-53
-8.33519e-53
2.80417e-52
-8.72481e-52
2.4608e-51
-6.05741e-51
1.18685e-50
-1.24144e-50
-3.18302e-50
2.54613e-49
-9.80562e-49
2.66717e-48
-4.84329e-48
1.77137e-48
2.82518e-47
-1.34824e-46
3.62047e-46
-5.18061e-46
-4.99602e-46
5.61788e-45
-1.80502e-44
2.8739e-44
1.84444e-44
-2.60214e-43
7.81208e-43
-9.24158e-43
-2.06966e-42
1.26684e-41
-2.64664e-41
3.29912e-43
1.65686e-40
-4.82142e-40
3.36704e-40
2.02268e-39
-7.42813e-39
7.12499e-39
2.61258e-38
-1.05641e-37
9.84301e-38
3.82037e-37
-1.41211e-36
8.89481e-37
6.03856e-36
-1.71256e-35
3.2532e-37
9.24198e-35
-1.70023e-34
-1.94037e-34
1.22583e-33
-9.81208e-34
-4.8141e-33
1.22739e-32
6.77159e-33
-7.11769e-32
6.03027e-32
2.75746e-31
-6.27463e-31
-6.19001e-31
3.69177e-30
-8.62394e-31
-1.65904e-29
1.93195e-29
6.01907e-29
-1.37674e-28
-1.69667e-28
7.41125e-28
2.74895e-28
-3.4512e-27
6.89611e-28
1.46886e-26
-9.56728e-27
-5.9049e-26
6.12249e-26
2.29934e-25
-3.1327e-25
-8.86351e-25
1.42288e-24
3.44439e-24
-5.95049e-24
-1.3652e-23
2.31815e-23
5.53039e-23
-8.37403e-23
-2.27124e-22
2.73821e-22
9.30804e-22
-7.58703e-22
-3.73098e-21
1.40112e-21
1.42962e-20
1.48782e-21
-5.09323e-20
-3.30044e-20
1.6191e-19
2.17475e-19
-4.22518e-19
-1.05242e-18
6.75015e-19
4.12564e-18
1.09015e-18
-1.29548e-17
-1.52403e-17
2.8735e-17
7.8018e-17
-1.52834e-17
-2.68822e-16
-2.41099e-16
5.89457e-16
1.44311e-15
-1.42096e-16
-4.68257e-15
-5.44587e-15
7.38782e-15
2.64538e-14
1.3549e-14
-6.08978e-14
-1.27543e-13
-5.19966e-15
3.69147e-13
5.79112e-13
-1.73035e-13
-1.95344e-12
-2.67598e-12
1.15369e-12
9.55441e-12
1.31778e-11
-3.73973e-12
-4.34402e-11
-6.84223e-11
-6.42793e-12
1.75534e-10
3.52031e-10
2.05666e-10
-5.44677e-10
-1.63846e-09
-1.86592e-09
5.12573e-10
5.9932e-09
1.13194e-08
8.58769e-09
-1.0794e-08
-4.59734e-08
-7.46265e-08
-5.04697e-08
7.52863e-08
3.02473e-07
5.173e-07
4.62124e-07
-1.92697e-07
-1.62394e-06
-3.4992e-06
-4.63394e-06
-2.93841e-06
4.00462e-06
1.74821e-05
3.53687e-05
4.95852e-05
4.44664e-05
-2.28848e-06
-0.000114235
-0.000304884
-0.00055996
-0.000814171
-0.000925148
-0.000648774
0.000378955
0.00264838
0.00676686
0.0134317
0.023386
0.0373608
0.0560102
0.0798459
0.10918
0.144083
0.184361
0.229557
0.278977
0.331724
0.386767
0.442994
0.499288
0.554584
0.607922
0.658488
0.705639
0.748914
0.788032
0.822878
0.853484
0.880005
0.902685
0.921838
0.937815
0.950986
0.96172
0.970371
0.977269
0.982711
0.986961
0.990248
0.992766
0.994676
0.996113
0.997183
0.997974
0.998554
0.998975
0.999279
0.999496
0.99965
0.999759
0.999835
0.999888
0.999924
0.999949
0.999966
0.999977
0.999985
0.99999
0.999994
0.999996
0.999997
0.999998
0.999999
0.999999
1
1
1
1
1
1
1
1
1
1
1
1
1
1
1
1
1
1
1
1
0.999999
1
1
1
1
1
1
0.999996
0.999983
0.999965
0.99995
0.999956
1
1.00011
1.0003
1.00056
1.00081
1.00093
1.00065
0.999621
0.997352
0.993233
0.986568
0.976614
0.962639
0.94399
0.920154
0.89082
0.855917
0.815639
0.770443
0.721023
0.668276
0.613233
0.557006
0.500712
0.445416
0.392078
0.341512
0.294361
0.251086
0.211968
0.177122
0.146516
0.119995
0.0973149
0.078162
0.0621849
0.0490139
0.03828
0.0296289
0.0227314
0.0172892
0.0130388
0.00975183
0.0072342
0.0053238
0.00388732
0.00281671
0.00202566
0.00144606
0.00102487
0.000721224
0.000504031
0.000349855
0.000241224
0.000165239
0.000112465
7.60659e-05
5.11309e-05
3.41625e-05
2.26901e-05
1.49829e-05
9.83721e-06
6.42264e-06
4.17027e-06
2.6932e-06
1.7301e-06
1.10563e-06
7.02959e-07
4.44701e-07
2.79939e-07
1.75369e-07
1.09339e-07
6.78527e-08
4.19141e-08
2.57745e-08
1.57794e-08
9.61822e-09
5.83758e-09
3.52805e-09
2.12341e-09
1.27279e-09
7.59858e-10
4.51846e-10
2.67644e-10
1.57928e-10
9.28375e-11
5.43719e-11
3.17276e-11
1.84475e-11
1.0688e-11
6.17078e-12
3.5505e-12
2.03595e-12
1.16358e-12
6.62818e-13
3.76345e-13
2.13005e-13
1.20178e-13
6.75947e-14
3.79028e-14
2.11894e-14
1.18106e-14
6.56378e-15
3.63728e-15
2.00984e-15
1.10744e-15
6.08518e-16
3.33454e-16
1.82231e-16
9.9323e-17
5.39924e-17
2.92742e-17
1.58315e-17
8.54004e-18
4.59526e-18
2.46653e-18
1.32069e-18
7.05459e-19
3.7593e-19
1.99858e-19
1.06005e-19
5.60965e-20
2.96183e-20
1.56031e-20
8.20165e-21
4.30171e-21
2.25134e-21
1.17575e-21
6.12731e-22
3.18653e-22
1.65375e-22
8.56516e-23
4.42715e-23
2.28374e-23
1.17574e-23
6.0413e-24
3.0982e-24
1.58584e-24
8.10197e-25
4.13152e-25
2.10294e-25
1.06844e-25
5.41857e-26
2.74311e-26
1.38622e-26
6.99298e-27
3.52158e-27
1.77038e-27
8.88499e-28
4.45161e-28
2.22666e-28
1.11192e-28
5.54354e-29
2.75929e-29
1.37124e-29
6.80361e-30
3.37042e-30
1.66707e-30
8.23298e-31
4.05973e-31
1.99885e-31
9.82689e-32
4.824e-32
2.36462e-32
1.1574e-32
5.65693e-33
2.76095e-33
1.34562e-33
6.54901e-34
3.18293e-34
1.54483e-34
7.48759e-35
3.62424e-35
1.7519e-35
8.45718e-36
4.07728e-36
1.96313e-36
9.43985e-37
4.53341e-37
2.17436e-37
1.04158e-37
4.98322e-38
2.38117e-38
1.13641e-38
5.41694e-39
2.57897e-39
1.22636e-39
5.82472e-40
2.76325e-40
1.30936e-40
6.19714e-41
2.92972e-41
1.38346e-41
6.52549e-42
3.0745e-42
1.44694e-42
6.80219e-43
3.19426e-43
1.49837e-43
7.02102e-44
3.28637e-44
1.53664e-44
7.17742e-45
3.34897e-45
1.561e-45
7.26855e-46
3.38103e-46
1.57112e-46
7.29342e-47
3.38236e-47
1.56703e-47
7.25284e-48
3.35362e-48
1.54917e-48
7.14931e-49
3.29621e-49
1.51828e-49
6.98686e-50
3.21221e-50
1.47545e-50
6.77083e-51
3.10429e-51
1.42196e-51
6.5076e-52
2.97553e-52
1.35932e-52
6.20432e-53
2.82934e-53
1.28913e-53
5.86859e-54
2.66929e-54
1.21307e-54
5.5082e-55
2.499e-55
1.13281e-55
5.13085e-56
2.322e-56
1.04997e-56
4.74393e-57
2.14165e-57
9.66067e-58
4.35431e-58
1.96104e-58
8.82494e-59
3.96822e-59
1.78296e-59
8.00479e-60
3.59108e-60
1.60978e-60
7.21075e-61
3.2275e-61
1.44353e-61
6.45149e-62
2.8812e-62
1.28578e-62
5.73381e-63
2.55507e-63
1.13776e-63
5.06271e-64
2.25116e-64
1.00028e-64
4.44152e-65
1.97077e-65
8.73853e-66
3.87204e-66
1.71451e-66
7.58657e-67
3.3547e-67
1.48241e-67
6.54623e-68
2.88884e-68
1.27399e-68
5.61466e-69
2.47283e-69
1.08838e-69
4.78725e-70
2.10431e-70
9.2439e-71
4.0581e-71
1.78039e-71
7.80607e-72
3.4204e-72
1.49779e-72
6.55473e-73
2.86675e-73
1.25302e-73
5.47348e-74
2.38948e-74
1.04251e-74
4.54566e-75
1.98086e-75
8.62688e-76
3.75488e-76
1.63336e-76
7.10094e-77
3.08529e-77
1.33976e-77
5.8144e-78
2.52194e-78
1.09325e-78
4.73649e-79
2.05092e-79
8.87562e-80
3.83889e-80
1.65948e-80
7.16966e-81
3.0959e-81
1.3361e-81
5.76307e-82
2.48447e-82
1.07049e-82
4.60994e-83
1.98417e-83
8.53556e-84
3.66992e-84
1.57708e-84
6.77367e-85
2.90783e-85
1.24764e-85
5.3504e-86
2.2933e-86
9.82462e-87
4.20678e-87
1.80038e-87
7.70128e-88
3.29264e-88
1.40705e-88
6.00979e-89
2.56565e-89
1.09477e-89
4.66911e-90
1.99038e-90
8.48065e-91
3.61171e-91
1.53741e-91
6.54124e-92
2.78179e-92
1.18246e-92
5.0239e-93
2.13351e-93
9.05622e-94
3.84236e-94
1.62948e-94
6.90718e-95
2.92654e-95
1.2394e-95
5.24653e-96
2.21992e-96
9.38877e-97
3.96904e-97
1.67714e-97
7.08375e-98
2.99064e-98
1.26205e-98
5.32352e-99
2.24457e-99
9.45973e-100
3.98509e-100
1.67808e-100
7.06318e-101
2.9717e-101
1.24976e-101
5.25368e-102
2.2076e-102
9.27245e-103
3.89305e-103
1.63382e-103
6.85395e-104
2.87409e-104
1.20471e-104
5.04762e-105
2.11391e-105
8.87468e-106
3.28225e-106
)
;

boundaryField
{
    sides
    {
        type            zeroGradient;
    }
    empty
    {
        type            empty;
    }
}


// ************************************************************************* //
