/*--------------------------------*- C++ -*----------------------------------*\
| =========                 |                                                 |
| \\      /  F ield         | OpenFOAM: The Open Source CFD Toolbox           |
|  \\    /   O peration     | Version:  2112                                  |
|   \\  /    A nd           | Website:  www.openfoam.com                      |
|    \\/     M anipulation  |                                                 |
\*---------------------------------------------------------------------------*/
FoamFile
{
    version     2.0;
    format      ascii;
    arch        "LSB;label=32;scalar=64";
    class       volVectorField;
    location    "32.5";
    object      U;
}
// * * * * * * * * * * * * * * * * * * * * * * * * * * * * * * * * * * * * * //

dimensions      [0 1 -1 0 0 0 0];

internalField   nonuniform List<vector> 
8800
(
(0.980156 -0.0915211 0)
(1.00234 -0.058722 0)
(0.999611 -0.032123 0)
(0.999998 -0.0165138 0)
(1.00004 -0.00882715 0)
(1.00002 -0.00507529 0)
(0.999991 -0.00298036 0)
(0.999978 -0.00169219 0)
(0.999975 -0.000811867 0)
(1.00006 -0.000123845 0)
(0.999984 0.000575143 0)
(1 0.00133135 0)
(1.00001 0.00236494 0)
(1.00002 0.00397624 0)
(1.00004 0.00672592 0)
(1.00003 0.0120341 0)
(0.999866 0.0230872 0)
(0.999065 0.0431539 0)
(1.00722 0.0790276 0)
(0.775024 0.0478396 0)
(0.358976 -0.014749 0)
(1.04649 -0.0724943 0)
(1.08849 -0.0660309 0)
(1.04946 -0.0509229 0)
(1.02553 -0.0377 0)
(1.01267 -0.0258875 0)
(1.00648 -0.0167003 0)
(1.00355 -0.0102472 0)
(1.00213 -0.00565433 0)
(1.00148 -0.002085 0)
(1.00136 0.00110374 0)
(1.00173 0.00440981 0)
(1.00271 0.00831018 0)
(1.00473 0.0136381 0)
(1.00897 0.0213285 0)
(1.01797 0.03183 0)
(1.03586 0.0446202 0)
(1.06748 0.0580801 0)
(1.09473 0.0699575 0)
(0.845685 0.0554997 0)
(0.217755 -0.00138157 0)
(1.07567 -0.0506675 0)
(1.09942 -0.0489555 0)
(1.06438 -0.0400421 0)
(1.03983 -0.0325831 0)
(1.0237 -0.0253747 0)
(1.01392 -0.018188 0)
(1.00844 -0.0116122 0)
(1.00559 -0.00589256 0)
(1.00444 -0.000637171 0)
(1.00478 0.00444568 0)
(1.00665 0.00973096 0)
(1.01058 0.0157306 0)
(1.01789 0.022518 0)
(1.03051 0.0296406 0)
(1.05053 0.0367412 0)
(1.08013 0.0445351 0)
(1.10576 0.051877 0)
(0.943401 0.0409807 0)
(0.217276 0.00140135 0)
(0.176599 -0.000629177 0)
(1.01936 -0.0354789 0)
(1.1057 -0.0414319 0)
(1.07794 -0.0364178 0)
(1.05236 -0.0303716 0)
(1.0351 -0.0245024 0)
(1.02325 -0.0187588 0)
(1.01545 -0.0128304 0)
(1.01086 -0.00678905 0)
(1.00886 -0.000594224 0)
(1.00942 0.00553441 0)
(1.01253 0.0114334 0)
(1.01849 0.017217 0)
(1.02808 0.0228197 0)
(1.04231 0.0283972 0)
(1.06314 0.0342052 0)
(1.09397 0.0401208 0)
(1.0946 0.0416826 0)
(0.830503 0.0227338 0)
(0.175783 0.000645022 0)
(0.154675 -0.000462972 0)
(0.958087 -0.0257014 0)
(1.10436 -0.0351416 0)
(1.08803 -0.0327064 0)
(1.06113 -0.028211 0)
(1.04305 -0.0232759 0)
(1.03068 -0.0180371 0)
(1.0221 -0.0125586 0)
(1.01658 -0.00670266 0)
(1.01396 -0.00031914 0)
(1.01465 0.00608003 0)
(1.01848 0.0119274 0)
(1.02527 0.0172742 0)
(1.03541 0.0223342 0)
(1.05019 0.0271957 0)
(1.07215 0.031659 0)
(1.10119 0.0355658 0)
(1.07001 0.0338221 0)
(0.743103 0.014389 0)
(0.153457 0.000480902 0)
(0.139983 -0.000334684 0)
(0.901034 -0.0193252 0)
(1.0967 -0.0302305 0)
(1.09608 -0.0293681 0)
(1.06875 -0.0256051 0)
(1.0499 -0.0215571 0)
(1.03697 -0.0169532 0)
(1.028 -0.0118023 0)
(1.02208 -0.00617013 0)
(1.01915 0.000105182 0)
(1.01983 0.00642214 0)
(1.02389 0.0120288 0)
(1.03095 0.0170133 0)
(1.04147 0.0215234 0)
(1.05689 0.0255174 0)
(1.07969 0.0290692 0)
(1.10356 0.0318227 0)
(1.03849 0.0279067 0)
(0.676679 0.0102149 0)
(0.138272 0.00035597 0)
(0.129247 -0.000252862 0)
(0.851157 -0.0149072 0)
(1.08431 -0.0261063 0)
(1.10172 -0.0264658 0)
(1.07551 -0.0231547 0)
(1.05612 -0.0195517 0)
(1.04274 -0.0154878 0)
(1.03341 -0.0107568 0)
(1.02723 -0.00537968 0)
(1.0241 0.000654659 0)
(1.0247 0.00669217 0)
(1.0288 0.0119953 0)
(1.03602 0.0165549 0)
(1.04685 0.0204577 0)
(1.06271 0.0238564 0)
(1.08599 0.0269527 0)
(1.10299 0.028834 0)
(1.00426 0.0232646 0)
(0.625198 0.00777608 0)
(0.126936 0.000278835 0)
(0.121079 -0.000193757 0)
(0.808727 -0.0116857 0)
(1.06893 -0.0224508 0)
(1.10511 -0.0237993 0)
(1.0816 -0.0209987 0)
(1.06177 -0.0176715 0)
(1.04813 -0.0139073 0)
(1.03852 -0.00950734 0)
(1.03206 -0.00445094 0)
(1.0287 0.00130303 0)
(1.02918 0.00704646 0)
(1.0333 0.0119674 0)
(1.04065 0.0160655 0)
(1.05162 0.0195125 0)
(1.06774 0.0225217 0)
(1.0914 0.0252795 0)
(1.09958 0.0262466 0)
(0.969847 0.0195459 0)
(0.584228 0.0061604 0)
(0.118039 0.000225407 0)
(0.114776 -0.000148502 0)
(0.773094 -0.00925199 0)
(1.05208 -0.0191955 0)
(1.1073 -0.0212393 0)
(1.08727 -0.0187862 0)
(1.06702 -0.0156401 0)
(1.05313 -0.0121233 0)
(1.04334 -0.00802851 0)
(1.03667 -0.00330609 0)
(1.0331 0.00210605 0)
(1.03341 0.00746774 0)
(1.03745 0.0119409 0)
(1.04476 0.0155581 0)
(1.0558 0.018579 0)
(1.07218 0.0212415 0)
(1.09562 0.0237219 0)
(1.09357 0.0239722 0)
(0.936747 0.0165917 0)
(0.550846 0.00502185 0)
(0.110849 0.000187238 0)
(0.109891 -0.000113148 0)
(0.74338 -0.00733669 0)
(1.03481 -0.0162614 0)
(1.10856 -0.0188529 0)
(1.09264 -0.0167735 0)
(1.07203 -0.01378 0)
(1.05782 -0.0103856 0)
(1.04787 -0.00644772 0)
(1.04101 -0.00196871 0)
(1.03718 0.00307462 0)
(1.03729 0.00798944 0)
(1.04119 0.0120357 0)
(1.0484 0.0152914 0)
(1.05948 0.0179825 0)
(1.07618 0.0203313 0)
(1.09868 0.0224426 0)
(1.08537 0.0219573 0)
(0.905636 0.0142271 0)
(0.523091 0.00418933 0)
(0.104888 0.00016006 0)
(0.106146 -8.36357e-05 0)
(0.718848 -0.00575813 0)
(1.01801 -0.0135493 0)
(1.10881 -0.0164356 0)
(1.09769 -0.0147209 0)
(1.07685 -0.0118537 0)
(1.06238 -0.00855827 0)
(1.0522 -0.00476528 0)
(1.04512 -0.000503025 0)
(1.04104 0.00423676 0)
(1.04087 0.00876806 0)
(1.04452 0.0123849 0)
(1.05163 0.0152037 0)
(1.06274 0.017532 0)
(1.07962 0.0195965 0)
(1.10035 0.0212805 0)
(1.07537 0.0201298 0)
(0.876807 0.0123253 0)
(0.499606 0.00356586 0)
(0.0998266 0.000141106 0)
(0.103361 -5.77961e-05 0)
(0.698942 -0.00439699 0)
(1.00244 -0.0110066 0)
(1.10841 -0.0139541 0)
(1.10249 -0.0124336 0)
(1.08151 -0.00959933 0)
(1.0667 -0.00643169 0)
(1.05625 -0.00281815 0)
(1.04889 0.00122915 0)
(1.04449 0.00565197 0)
(1.04397 0.00974442 0)
(1.04736 0.0129087 0)
(1.05434 0.0152772 0)
(1.06544 0.0171526 0)
(1.08253 0.0188687 0)
(1.10109 0.0202259 0)
(1.06415 0.0184881 0)
(0.850353 0.0107914 0)
(0.479452 0.00309387 0)
(0.0954371 0.000128077 0)
(0.101422 -3.36437e-05 0)
(0.68329 -0.00316041 0)
(0.988588 -0.00855674 0)
(1.10754 -0.0114134 0)
(1.107 -0.0101111 0)
(1.08604 -0.00738056 0)
(1.07087 -0.00424633 0)
(1.06017 -0.000685602 0)
(1.05251 0.00321913 0)
(1.04768 0.00735482 0)
(1.04673 0.0110389 0)
(1.04978 0.0137413 0)
(1.05652 0.0156837 0)
(1.06764 0.0171952 0)
(1.08497 0.0184714 0)
(1.10091 0.0193605 0)
(1.05197 0.0170444 0)
(0.826138 0.00953322 0)
(0.461921 0.00273245 0)
(0.0915304 0.000120584 0)
(0.100287 -8.84341e-06 0)
(0.671742 -0.00197489 0)
(0.976886 -0.00608256 0)
(1.10631 -0.00864331 0)
(1.11109 -0.00756095 0)
(1.09055 -0.00493449 0)
(1.0751 -0.00174958 0)
(1.06408 0.00181771 0)
(1.05602 0.00558931 0)
(1.05069 0.00944479 0)
(1.04922 0.012704 0)
(1.05188 0.0148932 0)
(1.05837 0.0163604 0)
(1.0694 0.017469 0)
(1.08656 0.0183447 0)
(1.09958 0.0187133 0)
(1.03896 0.0157253 0)
(0.804049 0.00850085 0)
(0.446505 0.0024622 0)
(0.0879707 0.000117603 0)
(0.0999468 9.52306e-06 0)
(0.664151 -0.000813677 0)
(0.967842 -0.00361427 0)
(1.10527 -0.00561266 0)
(1.11497 -0.00447038 0)
(1.09501 -0.00184464 0)
(1.07919 0.00127794 0)
(1.06773 0.0047136 0)
(1.0592 0.00836131 0)
(1.0533 0.0120002 0)
(1.05113 0.0148594 0)
(1.05321 0.0165061 0)
(1.05939 0.0173397 0)
(1.07035 0.0177531 0)
(1.08754 0.0181668 0)
(1.09702 0.0179756 0)
(1.02562 0.0145885 0)
(0.783958 0.00769044 0)
(0.432768 0.00226743 0)
(0.0846502 0.000117461 0)
(0.100426 5.30314e-05 0)
(0.660537 0.000360016 0)
(0.961671 -0.00105359 0)
(1.10486 -0.0024402 0)
(1.11896 -0.00128135 0)
(1.09942 0.00133676 0)
(1.08323 0.00453401 0)
(1.07142 0.00804763 0)
(1.06234 0.0116961 0)
(1.05567 0.015137 0)
(1.05272 0.0175536 0)
(1.05413 0.018667 0)
(1.05975 0.018937 0)
(1.0705 0.0188205 0)
(1.08743 0.0185787 0)
(1.09343 0.0178479 0)
(1.01188 0.0137985 0)
(0.765477 0.00709482 0)
(0.420309 0.00214878 0)
(0.0814556 0.000120608 0)
(0.101874 7.51423e-05 0)
(0.661011 0.00154983 0)
(0.958571 0.00153701 0)
(1.10502 0.000926799 0)
(1.1229 0.00207033 0)
(1.104 0.00473284 0)
(1.08753 0.00817488 0)
(1.07528 0.0119189 0)
(1.06557 0.0156762 0)
(1.05799 0.0189972 0)
(1.054 0.0210133 0)
(1.0545 0.0215529 0)
(1.05951 0.0212291 0)
(1.06984 0.0205336 0)
(1.08633 0.0196375 0)
(1.08826 0.0180763 0)
(0.997524 0.0133321 0)
(0.748236 0.00682117 0)
(0.408636 0.00213105 0)
(0.0783216 0.000122084 0)
(0.104277 0.000118624 0)
(0.665357 0.00275173 0)
(0.958993 0.00416372 0)
(1.10634 0.00458738 0)
(1.12698 0.00605504 0)
(1.1088 0.00900317 0)
(1.09206 0.0127509 0)
(1.07915 0.0167432 0)
(1.06851 0.0205816 0)
(1.05975 0.0237529 0)
(1.05455 0.0253042 0)
(1.05405 0.0251916 0)
(1.05834 0.02413 0)
(1.06813 0.0227479 0)
(1.08395 0.0212701 0)
(1.08151 0.0188076 0)
(0.982777 0.0135789 0)
(0.731552 0.00705641 0)
(0.396936 0.00228018 0)
(0.075096 0.000128902 0)
(0.107745 0.000164534 0)
(0.673634 0.00392572 0)
(0.962829 0.00662696 0)
(1.10964 0.00828785 0)
(1.13192 0.0104512 0)
(1.11423 0.0139447 0)
(1.09708 0.0180873 0)
(1.08343 0.0223952 0)
(1.07175 0.0264733 0)
(1.06162 0.0295995 0)
(1.05483 0.0306932 0)
(1.05305 0.0299008 0)
(1.05633 0.0280788 0)
(1.06552 0.0259367 0)
(1.08029 0.023739 0)
(1.07359 0.0206073 0)
(0.967341 0.0147653 0)
(0.714381 0.00787246 0)
(0.384212 0.00261196 0)
(0.0715332 0.000145391 0)
(0.112348 0.000218381 0)
(0.685729 0.00525437 0)
(0.970318 0.00933822 0)
(1.1152 0.0121675 0)
(1.13813 0.0150371 0)
(1.12042 0.0192348 0)
(1.1026 0.0240283 0)
(1.08801 0.0289838 0)
(1.07499 0.0335621 0)
(1.06305 0.0368069 0)
(1.05444 0.037516 0)
(1.05113 0.0360212 0)
(1.05326 0.0333853 0)
(1.06179 0.0304626 0)
(1.07537 0.027521 0)
(1.06418 0.0235147 0)
(0.950517 0.0167857 0)
(0.695585 0.00915949 0)
(0.369559 0.00307535 0)
(0.0673935 0.000168747 0)
(0.118351 0.000292714 0)
(0.702099 0.00695994 0)
(0.981799 0.0126939 0)
(1.12299 0.0168314 0)
(1.14564 0.0204419 0)
(1.12777 0.0254687 0)
(1.10922 0.0312517 0)
(1.09344 0.0371558 0)
(1.07868 0.0423572 0)
(1.0645 0.0457052 0)
(1.05364 0.0459259 0)
(1.04847 0.043596 0)
(1.04928 0.0400754 0)
(1.05691 0.0363697 0)
(1.06896 0.0325429 0)
(1.05279 0.0273481 0)
(0.931649 0.0195642 0)
(0.67406 0.0108441 0)
(0.352279 0.00364543 0)
(0.0625085 0.000200056 0)
(0.126258 0.000401317 0)
(0.723647 0.00930273 0)
(0.997953 0.0170317 0)
(1.13377 0.0228309 0)
(1.15489 0.0276421 0)
(1.13672 0.0339417 0)
(1.11718 0.0409508 0)
(1.09967 0.0478388 0)
(1.08255 0.0535164 0)
(1.06559 0.056653 0)
(1.05208 0.0559845 0)
(1.04485 0.0525336 0)
(1.04408 0.0479771 0)
(1.0507 0.0432054 0)
(1.06076 0.0384193 0)
(1.03921 0.032009 0)
(0.910207 0.0230327 0)
(0.648831 0.0127596 0)
(0.331964 0.00424939 0)
(0.0567997 0.000229046 0)
(0.136873 0.000568501 0)
(0.751702 0.0126597 0)
(1.01995 0.0228313 0)
(1.14875 0.0307232 0)
(1.16707 0.037509 0)
(1.14773 0.0454584 0)
(1.12655 0.0538502 0)
(1.10655 0.0616091 0)
(1.08638 0.0674996 0)
(1.06603 0.0700182 0)
(1.0494 0.0679843 0)
(1.03994 0.062891 0)
(1.03767 0.0568899 0)
(1.04295 0.0512077 0)
(1.05087 0.0455651 0)
(1.02347 0.0380111 0)
(0.885018 0.0273427 0)
(0.619013 0.0149343 0)
(0.308311 0.00491833 0)
(0.0502466 0.000258494 0)
(0.151429 0.000835175 0)
(0.788204 0.0176257 0)
(1.04917 0.0308126 0)
(1.16906 0.0410598 0)
(1.18319 0.0502343 0)
(1.16128 0.0602151 0)
(1.1373 0.0701034 0)
(1.11385 0.0786246 0)
(1.08988 0.0845476 0)
(1.06555 0.0862807 0)
(1.04536 0.0827934 0)
(1.03334 0.0760115 0)
(1.0295 0.0682658 0)
(1.03391 0.0611207 0)
(1.0396 0.0546425 0)
(1.00458 0.0457184 0)
(0.854335 0.0323023 0)
(0.584037 0.0173729 0)
(0.281026 0.00564649 0)
(0.0428354 0.000284826 0)
(0.172025 0.00129685 0)
(0.836243 0.0253872 0)
(1.08754 0.0426162 0)
(1.19513 0.0556002 0)
(1.20352 0.0672118 0)
(1.17744 0.0791755 0)
(1.14924 0.0902976 0)
(1.1214 0.0993642 0)
(1.09295 0.105097 0)
(1.06414 0.105904 0)
(1.04008 0.101025 0)
(1.02522 0.0927861 0)
(1.01946 0.0835806 0)
(1.0229 0.0748935 0)
(1.0258 0.0665384 0)
(0.97995 0.0547396 0)
(0.817066 0.037793 0)
(0.543701 0.0201629 0)
(0.249913 0.00642586 0)
(0.0346219 0.000305322 0)
(0.201957 0.00233255 0)
(0.901435 0.0387494 0)
(1.13781 0.0620806 0)
(1.22658 0.0778743 0)
(1.22725 0.0916718 0)
(1.19528 0.104699 0)
(1.16186 0.116217 0)
(1.12886 0.125066 0)
(1.09534 0.129897 0)
(1.06169 0.129183 0)
(1.03365 0.122521 0)
(1.0158 0.112686 0)
(1.00776 0.101996 0)
(1.00906 0.0914266 0)
(1.00657 0.0799931 0)
(0.947415 0.064182 0)
(0.773427 0.0438826 0)
(0.498 0.0234169 0)
(0.215446 0.00728059 0)
(0.0259297 0.000315741 0)
(0.242805 0.00861088 1.34443e-19)
(0.987947 0.0657975 1.1575e-19)
(1.19791 0.0953892 -3.94641e-20)
(1.26079 0.112027 0)
(1.25121 0.127767 -9.01506e-34)
(1.21282 0.140005 1.29074e-20)
(1.17391 0.150395 -2.16604e-20)
(1.13535 0.157733 0)
(1.09638 0.16063 4.10025e-34)
(1.05752 0.157574 -2.355e-20)
(1.02509 0.148504 0)
(1.00374 0.136575 -2.65108e-20)
(0.992479 0.123919 -7.72345e-20)
(0.989223 0.110858 -3.61637e-20)
(0.978141 0.0961434 -1.07311e-20)
(0.905606 0.0773395 -6.33147e-21)
(0.719844 0.0534357 0)
(0.443113 0.0285614 4.4213e-21)
(0.17821 0.00938643 5.22385e-21)
(0.017927 0.000692713 9.42569e-20)
(0.270431 0.0242246 1.20376e-19)
(1.05846 0.108366 5.12248e-22)
(1.2459 0.14342 1.15229e-20)
(1.29105 0.160332 0)
(1.27169 0.174916 -4.89331e-20)
(1.22803 0.185179 -5.35745e-20)
(1.18397 0.193716 -2.26395e-20)
(1.13982 0.199064 -7.54998e-20)
(1.09508 0.199681 0)
(1.05027 0.193861 1.00846e-19)
(1.01221 0.181681 9.72873e-20)
(0.985685 0.166682 2.83342e-20)
(0.968736 0.150988 1.00585e-19)
(0.957051 0.134668 1.38752e-19)
(0.934188 0.117105 0)
(0.851782 0.0962369 1.93208e-19)
(0.659573 0.0679112 2.76873e-19)
(0.388625 0.0373235 3.07478e-19)
(0.146607 0.0131795 -3.51272e-19)
(0.0117384 0.00104551 -6.61717e-21)
(0.269973 0.0395087 0)
(1.1016 0.163907 2.61988e-20)
(1.27751 0.202936 0)
(1.31351 0.219747 -7.8006e-20)
(1.28722 0.23085 0)
(1.2395 0.237713 -1.11147e-19)
(1.19076 0.242912 4.7577e-20)
(1.14129 0.244988 -1.57431e-19)
(1.09099 0.242125 -1.5722e-21)
(1.04032 0.232417 5.31817e-20)
(0.99659 0.216296 2.1161e-19)
(0.964774 0.197843 -3.12035e-22)
(0.942258 0.179398 -7.26069e-20)
(0.924106 0.161338 -1.29641e-19)
(0.895472 0.143009 1.52641e-19)
(0.813108 0.120577 -2.69574e-19)
(0.627365 0.0870838 -3.54197e-20)
(0.371269 0.0499718 0)
(0.145098 0.0191956 1.92502e-23)
(0.012487 0.00176094 0)
(0.262959 0.0529726 4.73335e-19)
(1.12386 0.222738 -2.11224e-19)
(1.29662 0.267338 -1.36542e-19)
(1.32733 0.28416 4.0293e-20)
(1.29648 0.291695 -6.58943e-20)
(1.24602 0.294702 2.36233e-19)
(1.19351 0.295909 1.0091e-19)
(1.13947 0.293936 0)
(1.08409 0.286895 -2.79548e-19)
(1.02794 0.272734 0)
(0.978901 0.252461 -1.12301e-19)
(0.942323 0.230856 -1.33408e-19)
(0.915313 0.210277 -7.86164e-20)
(0.893068 0.191037 -9.35762e-20)
(0.862287 0.171967 0)
(0.784849 0.147866 0)
(0.611762 0.110546 -2.30712e-19)
(0.374461 0.0673103 4.54218e-20)
(0.156399 0.0281958 -2.67856e-20)
(0.0164774 0.00317384 -3.1314e-20)
(0.255477 0.0650125 -2.8479e-19)
(1.133 0.281397 0)
(1.30679 0.33269 3.27943e-19)
(1.33386 0.349924 1.24967e-19)
(1.29985 0.354189 1.4432e-19)
(1.24745 0.353416 0)
(1.19199 0.350566 1.04286e-19)
(1.13419 0.344354 1.77938e-19)
(1.07444 0.332899 1.46699e-19)
(1.01344 0.314185 2.47624e-19)
(0.959708 0.289872 0)
(0.91918 0.265396 -2.87068e-19)
(0.888779 0.243084 -1.69347e-19)
(0.8638 0.223011 -9.92212e-20)
(0.832197 0.203406 5.9641e-19)
(0.760295 0.178182 7.07884e-20)
(0.602839 0.137093 3.32734e-19)
(0.382905 0.0875035 -1.57048e-18)
(0.170737 0.0394811 9.32949e-19)
(0.0214203 0.00523014 -1.12446e-18)
(0.248762 0.0759662 -2.56025e-19)
(1.13397 0.338004 5.52616e-20)
(1.31038 0.397087 -4.7459e-20)
(1.33478 0.414999 -1.65202e-19)
(1.29839 0.416327 -1.44504e-19)
(1.24446 0.412037 1.74274e-21)
(1.18664 0.405311 -1.12153e-19)
(1.12573 0.394967 1.87753e-19)
(1.06227 0.3792 -3.14895e-19)
(0.997094 0.356035 0)
(0.93937 0.327872 -1.32298e-19)
(0.895655 0.300694 -1.59942e-21)
(0.862772 0.276737 -1.8347e-19)
(0.836063 0.255806 0)
(0.804546 0.235588 -1.28503e-19)
(0.737626 0.209028 -3.04482e-19)
(0.594531 0.16494 8.11945e-19)
(0.390086 0.108821 -7.98399e-19)
(0.182566 0.0516302 1.13526e-18)
(0.025602 0.00753779 -1.17962e-18)
(0.243387 0.0861973 -4.05201e-22)
(1.12996 0.391947 -5.48881e-20)
(1.30942 0.45987 -1.9297e-19)
(1.33146 0.478258 8.40184e-20)
(1.29317 0.476985 -7.60823e-20)
(1.23796 0.469471 0)
(1.17816 0.459156 -1.13889e-19)
(1.11463 0.444936 -1.99036e-19)
(1.048 0.425079 -1.66256e-19)
(0.979232 0.397676 0)
(0.918151 0.365773 -1.39258e-19)
(0.871852 0.335953 -1.6583e-19)
(0.837154 0.310286 1.97715e-19)
(0.809307 0.288298 -1.17699e-19)
(0.778094 0.267326 -5.55734e-19)
(0.715641 0.239399 3.30033e-19)
(0.584559 0.192583 9.84421e-20)
(0.392516 0.129878 0)
(0.189532 0.0633806 -1.08931e-18)
(0.0284558 0.0097626 -3.98733e-20)
(0.239314 0.0960067 -3.3506e-20)
(1.12299 0.443098 5.60256e-20)
(1.30508 0.520391 1.01897e-19)
(1.32502 0.539089 2.74165e-19)
(1.28511 0.535523 -3.14169e-19)
(1.22877 0.525112 2.78395e-19)
(1.1673 0.511521 2.44121e-19)
(1.10152 0.49373 -3.18721e-19)
(1.03213 0.470069 9.5119e-20)
(0.960206 0.438643 -6.07648e-19)
(0.896212 0.403091 -1.53396e-19)
(0.847826 0.37055 0)
(0.811768 0.343031 2.12955e-19)
(0.783246 0.319812 2.51404e-19)
(0.752544 0.297904 2.97896e-19)
(0.693706 0.268406 -3.55616e-19)
(0.571886 0.218894 -1.05049e-19)
(0.389189 0.149332 1.23776e-19)
(0.190428 0.073501 0)
(0.0295801 0.0115452 -8.58268e-20)
(0.23637 0.105532 3.35816e-19)
(1.11449 0.491575 -2.28378e-19)
(1.29823 0.578062 -1.07211e-19)
(1.31625 0.597181 1.90157e-19)
(1.27494 0.591599 -1.61969e-19)
(1.2176 0.578589 -4.0166e-21)
(1.15468 0.56206 -2.62983e-19)
(1.08693 0.541033 -1.14299e-19)
(1.0151 0.513865 -2.86811e-19)
(0.940331 0.478647 2.37561e-22)
(0.873727 0.439503 -4.85418e-19)
(0.82357 0.404122 3.90037e-19)
(0.786508 0.374522 -2.30897e-19)
(0.757607 0.349811 2.73169e-19)
(0.727479 0.326541 0)
(0.671601 0.295282 -1.91262e-19)
(0.55642 0.242371 -8.24133e-22)
(0.380648 0.165489 -5.33977e-19)
(0.186808 0.0811158 -7.86642e-20)
(0.0292621 0.0126968 0)
(0.234394 0.114869 0)
(1.10526 0.537564 -2.40726e-19)
(1.28964 0.632837 -2.18023e-19)
(1.30583 0.652446 -1.98571e-19)
(1.26326 0.645045 -1.79414e-19)
(1.20503 0.629723 0)
(1.14083 0.610573 -1.32794e-19)
(1.07135 0.586647 -1.17229e-21)
(0.997291 0.556292 6.13556e-19)
(0.919891 0.517524 -8.50749e-20)
(0.850859 0.474837 -3.48302e-19)
(0.799076 0.436486 2.05375e-19)
(0.761187 0.404544 -2.03401e-21)
(0.732074 0.378047 2.90975e-19)
(0.702471 0.35314 1.7555e-19)
(0.648712 0.319558 -4.11403e-19)
(0.538176 0.262452 4.86988e-19)
(0.367414 0.17842 1.4376e-19)
(0.179002 0.0860988 5.92741e-19)
(0.0275985 0.0131394 -1.58757e-18)
(0.2333 0.124145 6.90176e-20)
(1.09584 0.581254 -1.20721e-19)
(1.28002 0.684756 1.04414e-19)
(1.29423 0.704884 2.04139e-19)
(1.25055 0.695809 0)
(1.19152 0.678426 -1.57229e-19)
(1.12619 0.656961 4.32187e-19)
(1.05514 0.630461 2.56367e-19)
(0.979042 0.597241 0)
(0.899133 0.555181 -1.20256e-18)
(0.827723 0.509032 9.35783e-19)
(0.77437 0.467586 0)
(0.73568 0.433072 2.66779e-19)
(0.706401 0.404455 -2.01798e-21)
(0.677221 0.377554 -5.61004e-19)
(0.624899 0.34114 2.19623e-19)
(0.517429 0.279055 0)
(0.350527 0.18767 7.72827e-19)
(0.16793 0.0886053 0)
(0.025073 0.013006 -7.47289e-19)
(0.232906 0.133412 -7.0412e-20)
(1.08666 0.622753 -1.21242e-19)
(1.2695 0.733872 1.13299e-19)
(1.28186 0.754483 0)
(1.2372 0.743903 -1.9252e-19)
(1.17745 0.724694 0)
(1.11112 0.701183 -4.49718e-19)
(1.03865 0.672421 -1.29541e-19)
(0.960635 0.636662 1.12749e-19)
(0.878283 0.591593 -5.93913e-19)
(0.804448 0.542098 9.81756e-20)
(0.749415 0.497462 0)
(0.709876 0.460122 -5.69838e-19)
(0.680407 0.429099 2.06314e-21)
(0.65148 0.399852 0)
(0.599897 0.360076 2.24413e-21)
(0.494146 0.292252 7.02902e-19)
(0.330309 0.19324 -6.65285e-19)
(0.154411 0.0886635 1.96126e-19)
(0.0219769 0.0123266 0)
(0.23288 0.142535 0)
(1.07787 0.662203 -1.23479e-19)
(1.25847 0.780335 -1.11771e-19)
(1.26905 0.801294 -2.29583e-21)
(1.2235 0.789364 -9.59447e-20)
(1.16313 0.76854 -3.56881e-19)
(1.0959 0.74324 1.62742e-19)
(1.02214 0.712509 -1.4382e-19)
(0.942311 0.674528 4.9105e-19)
(0.85753 0.626769 -9.49431e-19)
(0.781139 0.574094 -3.40979e-21)
(0.724248 0.526204 -2.56189e-19)
(0.683713 0.485822 9.19441e-19)
(0.653969 0.452104 -2.42619e-21)
(0.625127 0.420135 -4.31781e-19)
(0.57367 0.37639 -7.6789e-19)
(0.468593 0.302065 0)
(0.307325 0.195302 0)
(0.138966 0.0863199 2.11267e-19)
(0.0185395 0.0111381 -1.23618e-19)
(0.233363 0.151627 -7.23309e-20)
(1.0695 0.699403 2.56885e-19)
(1.24722 0.824203 1.19004e-19)
(1.25605 0.845411 0)
(1.2097 0.832258 -1.5576e-21)
(1.14878 0.810008 -3.6777e-19)
(1.08077 0.783153 4.20516e-19)
(1.00582 0.750729 5.94866e-19)
(0.924275 0.710848 6.4745e-19)
(0.837061 0.660736 -7.81795e-19)
(0.757956 0.605117 -8.00381e-19)
(0.698949 0.553968 6.84709e-19)
(0.657182 0.510328 0)
(0.627002 0.473588 -1.9666e-19)
(0.598066 0.438469 -4.65173e-19)
(0.546153 0.390058 -5.49873e-19)
(0.440654 0.308308 -6.51645e-19)
(0.282084 0.19383 1.92591e-19)
(0.122018 0.0816008 -1.13411e-19)
(0.0147978 0.00948348 3.22296e-22)
(0.233915 0.160591 0)
(1.06171 0.73491 0)
(1.23592 0.865573 2.60068e-21)
(1.24303 0.886932 0)
(1.19598 0.872676 3.13452e-19)
(1.13459 0.849165 2.84663e-19)
(1.06591 0.820962 0)
(0.989887 0.787103 7.5954e-20)
(0.906707 0.745631 1.09399e-18)
(0.817068 0.693531 -1.79296e-18)
(0.735076 0.635272 0)
(0.6736 0.580931 -4.39462e-19)
(0.630244 0.533827 -2.95331e-21)
(0.599409 0.493685 -2.41071e-21)
(0.570199 0.45488 4.97014e-19)
(0.517346 0.400981 -4.00421e-22)
(0.410595 0.310951 -1.39962e-18)
(0.254695 0.188759 4.13645e-19)
(0.104346 0.0748949 1.22202e-19)
(0.011071 0.00754441 0)
(0.234456 0.169367 2.21579e-19)
(1.05422 0.768707 1.33802e-19)
(1.22465 0.904503 2.46318e-19)
(1.23014 0.925956 -4.67957e-19)
(1.18248 0.910689 5.42035e-19)
(1.12071 0.886078 0)
(1.05145 0.856718 2.7666e-19)
(0.974465 0.821661 -1.6466e-19)
(0.889752 0.7789 3.85547e-21)
(0.797719 0.725191 1.29759e-19)
(0.712645 0.664651 1.03845e-18)
(0.648301 0.607278 -1.55134e-19)
(0.602913 0.556566 -5.63944e-19)
(0.57106 0.512547 -2.27379e-19)
(0.54137 0.469293 2.68788e-19)
(0.487242 0.408868 -2.43053e-22)
(0.378988 0.309745 3.76459e-19)
(0.226185 0.180282 -8.88214e-19)
(0.0866222 0.0665987 1.04989e-18)
(0.00749705 0.00543735 1.53126e-19)
(0.234831 0.177831 -7.47517e-20)
(1.04706 0.800887 6.88565e-20)
(1.21353 0.941114 6.11071e-21)
(1.21749 0.9626 -2.37795e-19)
(1.16932 0.946403 -1.09061e-19)
(1.10724 0.920819 -5.32022e-19)
(1.0375 0.890473 9.31639e-20)
(0.959666 0.85443 -6.96835e-19)
(0.873533 0.81066 -1.22784e-18)
(0.779142 0.755721 -1.07847e-18)
(0.690825 0.693329 0)
(0.623209 0.633195 -6.72142e-19)
(0.575225 0.578822 8.08125e-19)
(0.541782 0.530393 0)
(0.511272 0.481596 -5.74943e-19)
(0.455756 0.413218 3.42046e-19)
(0.346265 0.304233 -4.03788e-19)
(0.197703 0.168597 -4.77313e-19)
(0.0697884 0.0572512 -8.4463e-19)
(0.00429315 0.00333817 -6.58444e-19)
(0.235495 0.186118 7.51182e-20)
(1.04008 0.83142 -7.34643e-20)
(1.20263 0.975482 -1.88326e-19)
(1.20516 0.996947 -3.08399e-19)
(1.15657 0.979906 2.36244e-19)
(1.09426 0.953475 -3.30364e-19)
(1.02414 0.922283 3.01399e-19)
(0.945566 0.885456 -7.33306e-19)
(0.858122 0.840936 -7.32413e-19)
(0.761451 0.785137 1.13868e-18)
(0.669781 0.721362 2.28397e-18)
(0.5985 0.658845 0)
(0.547259 0.600895 0)
(0.511361 0.547583 -2.60955e-19)
(0.479351 0.491727 0)
(0.422477 0.413198 7.34925e-19)
(0.31304 0.293407 8.67759e-19)
(0.170933 0.1536 0)
(0.0551964 0.0474465 0)
(0.00166151 0.00146208 7.06784e-19)
(0.235771 0.193923 -7.5114e-20)
(1.03332 0.860299 -6.3904e-20)
(1.192 1.00772 -1.32018e-19)
(1.19319 1.02912 2.51479e-19)
(1.14428 1.0113 2.44877e-19)
(1.08182 0.984121 3.99311e-19)
(1.01141 0.95221 -4.24607e-19)
(0.932217 0.914769 1.64612e-22)
(0.843589 0.869734 -4.98453e-21)
(0.744742 0.813434 -5.63705e-21)
(0.649681 0.748779 1.17725e-18)
(0.574373 0.684342 0)
(0.519189 0.623102 8.11742e-19)
(0.47964 0.564613 5.56313e-19)
(0.444762 0.499932 1.33164e-18)
(0.386296 0.407835 3.94374e-19)
(0.279657 0.275066 -4.67093e-19)
(0.149072 0.133425 -2.74626e-19)
(0.0472904 0.0368617 0)
(0.001004 0.000423015 7.58544e-19)
(0.236322 0.201703 1.48372e-19)
(1.02675 0.887623 0)
(1.18164 1.0379 -1.31272e-19)
(1.18161 1.05921 1.96026e-19)
(1.1325 1.04067 -2.49851e-19)
(1.06994 1.01284 -5.30514e-19)
(0.999358 0.980313 8.84315e-19)
(0.919648 0.942408 -5.53636e-20)
(0.829968 0.897068 0)
(0.729087 0.840585 -1.2757e-18)
(0.630666 0.775567 -2.57378e-18)
(0.551054 0.709767 1.00217e-19)
(0.491304 0.645705 1.11449e-18)
(0.446638 0.582111 0)
(0.406537 0.507021 8.9407e-19)
(0.344891 0.396903 0)
(0.243613 0.245655 0)
(0.134765 0.0976936 -2.96557e-19)
(0.0646085 0.0142818 0)
(0.0260974 0.0104871 2.03175e-19)
(0.236475 0.208853 1.48261e-19)
(1.02034 0.913739 0)
(1.17155 1.0662 -1.98294e-19)
(1.1704 1.08742 0)
(1.12118 1.06827 1.24955e-19)
(1.05857 1.03991 0)
(0.987906 1.0069 5.33803e-20)
(0.90776 0.968713 1.03809e-19)
(0.817144 0.923303 9.23467e-20)
(0.714334 0.86698 -1.4122e-18)
(0.612598 0.80216 7.93064e-20)
(0.528398 0.735695 7.95826e-19)
(0.463392 0.669339 1.08532e-18)
(0.411831 0.601065 1.43629e-19)
(0.363024 0.514771 6.96494e-19)
(0.294013 0.38243 0)
(0.193442 0.204922 9.79493e-19)
(0.0988075 0.0367564 -5.74089e-19)
(0.0450214 0.0449413 6.68259e-19)
(-0.0686311 0.42305 -7.90803e-19)
(0.236591 0.215767 -1.12729e-19)
(1.01386 0.938434 -2.02413e-19)
(1.16165 1.09296 0)
(1.15942 1.1142 5.17723e-21)
(1.11015 1.09468 -3.17489e-19)
(1.04746 1.06601 9.12307e-19)
(0.976758 1.03277 3.41056e-19)
(0.896166 0.994618 0)
(0.80461 0.949524 6.42147e-19)
(0.699844 0.893913 -7.70806e-20)
(0.594608 0.830014 0)
(0.505306 0.763888 0)
(0.434086 0.695785 9.70092e-19)
(0.373768 0.62321 -4.39378e-19)
(0.311471 0.5263 -7.01362e-19)
(0.229091 0.370115 0)
(0.111286 0.188995 4.91178e-19)
(0.00887793 0.431608 -5.70569e-19)
(0.0379578 1.85976 -3.21617e-19)
(0.0684731 2.79509 -4.05467e-19)
(0.236542 0.221823 7.22105e-20)
(1.00751 0.961879 2.3673e-19)
(1.15194 1.11816 -1.04434e-19)
(1.14866 1.13939 -1.34559e-19)
(1.09946 1.11965 0)
(1.03666 1.09085 6.22769e-19)
(0.966097 1.0576 5.15828e-19)
(0.885038 1.01969 -5.35149e-20)
(0.792616 0.975215 9.46974e-20)
(0.685981 0.920769 1.3674e-18)
(0.577281 0.858439 1.31937e-18)
(0.48275 0.793887 8.9741e-19)
(0.404478 0.724702 9.73586e-19)
(0.334535 0.64712 -1.02617e-18)
(0.257889 0.544469 -1.0541e-18)
(0.152183 0.396257 0)
(0.0549278 0.820188 0)
(0.111481 2.52971 2.77519e-19)
(0.112991 3.18815 0)
(0.11594 3.38295 6.84869e-19)
(0.239009 0.227355 0)
(1.00188 0.984237 0)
(1.14222 1.14165 0)
(1.13789 1.16277 -3.22264e-20)
(1.08878 1.14297 -2.73912e-19)
(1.02593 1.11429 4.40137e-19)
(0.955814 1.08128 3.50981e-19)
(0.87433 1.04383 -5.41634e-20)
(0.781127 1.00024 8.39851e-19)
(0.672775 0.947407 -9.9994e-21)
(0.560766 0.88732 2.63439e-18)
(0.461101 0.825504 -1.0198e-19)
(0.375057 0.756901 1.19472e-19)
(0.296413 0.66987 1.47129e-19)
(0.197447 0.570009 -8.21921e-22)
(0.116707 0.952623 1.75814e-21)
(0.15404 2.68045 -1.42693e-18)
(0.166239 3.28379 -5.47246e-19)
(0.15275 3.42526 2.96449e-19)
(0.137517 3.44888 -3.37051e-19)
(0.156545 0.183759 -3.27888e-20)
(0.990783 1.00833 0)
(1.13224 1.16367 1.72351e-19)
(1.12772 1.18484 3.11017e-19)
(1.0789 1.1654 -5.07516e-19)
(1.01619 1.13698 -4.54286e-19)
(0.945806 1.10394 -3.87628e-19)
(0.864139 1.06717 6.90625e-19)
(0.770317 1.02474 -7.08387e-19)
(0.660535 0.973933 0)
(0.545502 0.91678 1.31551e-18)
(0.440945 0.858537 -7.4032e-19)
(0.346415 0.795185 0)
(0.2602 0.695132 1.38542e-19)
(0.169014 0.814488 3.28144e-19)
(0.169675 2.43183 -3.92567e-19)
(0.234991 3.31879 4.45805e-19)
(0.211926 3.44189 2.49912e-19)
(0.175902 3.46449 2.86732e-19)
(0.152034 3.47523 4.80334e-19)
(0.281961 0.265661 6.91355e-20)
(0.975582 1.01788 0)
(1.11415 1.18841 -1.56636e-19)
(1.11327 1.21722 -2.88304e-19)
(1.06294 1.19839 4.77654e-19)
(0.999718 1.17045 4.25287e-19)
(0.928511 1.13883 5.02606e-19)
(0.846249 1.1032 5.28002e-20)
(0.751195 1.06285 7.19408e-19)
(0.638895 1.01572 1.25762e-18)
(0.519224 0.964641 7.78175e-20)
(0.407093 0.913831 6.73033e-19)
(0.296535 0.860017 1.14875e-19)
(0.226233 0.97575 -1.38815e-19)
(0.243843 2.27665 -3.19196e-19)
(0.310152 3.32276 3.29683e-19)
(0.294828 3.4757 -3.78288e-19)
(0.256892 3.49831 -2.21496e-19)
(0.217672 3.5263 -2.16154e-19)
(0.163543 3.51926 -2.46233e-20)
(0.269646 0.262295 0)
(0.973122 1.04017 -2.56696e-20)
(1.1063 1.21151 2.61653e-20)
(1.1036 1.24029 2.73385e-20)
(1.05298 1.22134 2.9256e-19)
(0.989825 1.19363 -4.0253e-19)
(0.918287 1.16217 -3.14954e-19)
(0.835926 1.12732 5.00962e-20)
(0.740553 1.0884 -7.74611e-19)
(0.627355 1.044 -1.43829e-20)
(0.505664 0.997536 -2.46854e-18)
(0.390326 0.952765 9.53497e-20)
(0.284021 0.926096 -1.10649e-19)
(0.266694 1.4523 -1.32568e-19)
(0.346938 3.06771 1.78716e-20)
(0.372976 3.4723 8.97365e-22)
(0.33047 3.53491 6.42642e-19)
(0.291458 3.55939 3.47253e-19)
(0.240453 3.58354 -1.49319e-19)
(0.178224 3.57904 -1.4569e-19)
(0.253004 0.260395 -4.79663e-20)
(0.969021 1.06504 -1.56869e-19)
(1.09796 1.23666 7.29298e-20)
(1.09336 1.26476 1.04393e-19)
(1.04253 1.24561 0)
(0.979515 1.21793 -5.18481e-19)
(0.907942 1.1867 -4.40569e-19)
(0.825762 1.1526 4.72755e-20)
(0.730393 1.11518 -8.46046e-20)
(0.616807 1.07368 -1.21701e-18)
(0.493865 1.03208 -1.17662e-18)
(0.377131 0.994229 -8.14054e-19)
(0.287074 1.04909 -8.50293e-19)
(0.336434 2.11789 8.69582e-19)
(0.4362 3.37155 7.78134e-19)
(0.419472 3.53575 0)
(0.370669 3.58138 0)
(0.332506 3.6243 -1.26689e-19)
(0.275788 3.6875 0)
(0.190548 3.66055 -2.14405e-19)
(0.241822 0.26184 5.31739e-20)
(0.962929 1.09093 1.0969e-19)
(1.0882 1.26295 0)
(1.08183 1.29005 6.14976e-21)
(1.0309 1.27048 2.41854e-19)
(0.968123 1.24268 -7.19884e-19)
(0.89685 1.21169 -2.73828e-19)
(0.815057 1.17824 4.11681e-20)
(0.719932 1.14222 -6.16211e-19)
(0.606346 1.10355 6.63405e-20)
(0.482943 1.06694 0)
(0.36726 1.03857 0)