# Field minima and maxima
# Time         	field          	min            	location(min)  	max            	location(max)  
1              	p              	-5.18653113e+00	(1.03340804e+00 4.06193460e-02 -2.57200967e-17)	7.10714085e+00	(-1.03340804e+00 4.06193460e-02 0.00000000e+00)
1              	U              	(7.21436310e-01 -8.32626286e-02 4.78989402e-18)	(7.02007805e-01 7.59452234e-01 0.00000000e+00)	(9.95588947e-01 3.17230319e-01 6.23530981e-18)	(7.76278584e-01 -9.84821267e-01 0.00000000e+00)
2              	p              	-3.36543475e+00	(9.02460191e-01 -5.05390026e-01 -2.60097559e-17)	5.01693461e+00	(-1.03340804e+00 4.06193460e-02 0.00000000e+00)
2              	U              	(-1.94496913e-02 -4.11717517e-01 -7.54723410e-18)	(1.10565837e+00 4.07913059e-01 1.04508224e-17)	(1.53000941e+00 -1.82277848e-02 4.57772912e-18)	(1.38518882e-01 1.16988515e+00 -4.34292794e-17)
3              	p              	-2.56399822e+00	(4.06193460e-02 -1.03340804e+00 0.00000000e+00)	1.29095602e+00	(1.16988515e+00 1.38518882e-01 -3.37112276e-17)
3              	U              	(3.32724103e-01 -3.20855453e-01 -4.98712079e-18)	(7.02007805e-01 7.59452234e-01 0.00000000e+00)	(1.65495241e+00 8.98592370e-02 1.99544109e-18)	(4.33950669e-02 1.10382177e+00 0.00000000e+00)
4              	p              	-3.75308050e+00	(-5.74617736e-01 -8.60004273e-01 1.36050775e-17)	2.86850955e+00	(1.02709283e+00 1.21582604e-01 0.00000000e+00)
4              	U              	(-1.92333068e-01 3.38072735e-04 -8.99068116e-18)	(7.02007805e-01 7.59452234e-01 0.00000000e+00)	(1.18104117e+00 7.14062833e-01 2.03096497e-18)	(-5.75773652e-01 1.02819339e+00 2.16922001e-17)
5              	p              	-2.26289161e+00	(-6.40292572e-01 -8.12236333e-01 -1.36210266e-17)	1.47775773e+00	(1.02709283e+00 1.21582604e-01 0.00000000e+00)
5              	U              	(-3.15093301e-01 1.65612872e-01 -2.64465686e-18)	(7.02007805e-01 7.59452234e-01 0.00000000e+00)	(1.00237396e+00 4.95193534e-01 1.94037430e-18)	(-7.99439823e-01 8.64881065e-01 -2.17817953e-17)
6              	p              	-7.26735463e-01	(1.24528550e+00 1.47461948e-01 1.02498209e-17)	9.49630855e-01	(-1.02709283e+00 1.21582604e-01 0.00000000e+00)
6              	U              	(-1.47545114e-01 4.44106630e-02 -1.07282464e-18)	(5.74617736e-01 8.60004273e-01 1.32081388e-17)	(2.61609727e-01 1.52381858e-01 2.74266491e-18)	(1.10565837e+00 4.07913059e-01 1.04508224e-17)
7              	p              	-1.57558409e+00	(1.02709283e+00 1.21582604e-01 0.00000000e+00)	2.20979249e+00	(-1.02709283e+00 1.21582604e-01 0.00000000e+00)
7              	U              	(8.58374885e-02 -5.86439667e-02 2.81993053e-18)	(7.02007805e-01 7.59452234e-01 0.00000000e+00)	(3.77702999e-01 2.15257710e-01 6.09751951e-18)	(1.48871873e+00 -1.76335018e-01 0.00000000e+00)
8              	p              	-1.18936796e+00	(7.59452234e-01 -7.02007805e-01 4.01223280e-17)	1.51814671e+00	(-1.03340804e+00 4.06193460e-02 0.00000000e+00)
8              	U              	(-5.83069447e-02 -1.28899225e-01 -2.36297043e-18)	(1.23018880e+00 2.44772705e-01 -9.47767350e-18)	(1.39672293e+00 9.45051380e-02 1.29374312e-18)	(1.47461948e-01 1.24528550e+00 1.97398130e-17)
9              	p              	-1.91419241e+00	(4.06193460e-02 -1.03340804e+00 0.00000000e+00)	3.79082968e-01	(1.76031046e+00 2.08547904e-01 0.00000000e+00)
9              	U              	(-1.73247869e-01 -9.65472040e-02 -4.21558098e-18)	(1.10565837e+00 4.07913059e-01 1.04508224e-17)	(1.43010566e+00 8.00155406e-02 2.04001949e-18)	(1.47461948e-01 1.24528550e+00 1.97398130e-17)
10             	p              	-2.00918719e+00	(-2.01798769e-01 -1.01443079e+00 0.00000000e+00)	7.53768250e-01	(1.02709283e+00 1.21582604e-01 0.00000000e+00)
10             	U              	(-1.45472055e-01 1.14521306e-01 -3.37338485e-18)	(7.02007805e-01 7.59452234e-01 0.00000000e+00)	(1.17864752e+00 5.76806680e-01 1.07370639e-18)	(-4.93380495e-01 1.07025663e+00 0.00000000e+00)
11             	p              	-1.23958661e+00	(-3.58010293e-01 -9.70418669e-01 2.63958979e-17)	4.17260691e-01	(1.03340804e+00 4.06193460e-02 -2.57200967e-17)
11             	U              	(-2.20806578e-01 1.79538810e-01 -1.40094064e-18)	(7.02007805e-01 7.59452234e-01 0.00000000e+00)	(1.33964339e+00 2.20138113e-01 1.20857837e-18)	(-2.76149616e-01 1.38772196e+00 0.00000000e+00)
12             	p              	-4.33253951e-01	(-2.80771032e-01 -9.95500333e-01 0.00000000e+00)	6.79600542e-01	(-1.02709283e+00 1.21582604e-01 0.00000000e+00)
12             	U              	(-1.71574921e-01 -1.48499447e-01 -1.53411023e-19)	(7.02007805e-01 -7.59452234e-01 0.00000000e+00)	(-3.91212430e-02 2.09900839e-01 1.19323428e-18)	(1.10565837e+00 4.07913059e-01 1.04508224e-17)
13             	p              	-5.84984531e-01	(9.95500333e-01 2.80771032e-01 1.31974955e-17)	9.69170783e-01	(-1.02709283e+00 1.21582604e-01 0.00000000e+00)
13             	U              	(-1.17254588e-01 -8.92661586e-02 -3.02065188e-18)	(1.48871873e+00 1.76335018e-01 0.00000000e+00)	(-2.53506047e-02 2.71555228e-02 1.27878228e-18)	(7.02007805e-01 7.59452234e-01 0.00000000e+00)
14             	p              	-8.17463842e-01	(4.06193460e-02 -1.03340804e+00 0.00000000e+00)	7.83341233e-01	(-1.02709283e+00 1.21582604e-01 0.00000000e+00)
14             	U              	(-2.65981729e-01 -7.12624736e-02 -7.03508971e-19)	(1.49714178e+00 5.88998071e-02 2.21287469e-17)	(1.33331562e+00 3.12609633e-01 9.62438656e-19)	(-1.47461948e-01 1.24528550e+00 0.00000000e+00)
15             	p              	-1.19255338e+00	(-4.06193460e-02 -1.03340804e+00 -1.51960920e-17)	4.60218815e-01	(-1.02709283e+00 1.21582604e-01 0.00000000e+00)
15             	U              	(-1.20146220e-01 -2.20033791e-01 -1.66464368e-18)	(1.02819339e+00 -5.75773652e-01 -2.16706732e-17)	(1.34953003e+00 3.15936918e-01 1.31192822e-18)	(-1.47461948e-01 1.24528550e+00 0.00000000e+00)
16             	p              	-1.18505807e+00	(-2.01798769e-01 -1.01443079e+00 0.00000000e+00)	3.25033843e-01	(-1.09718650e+00 1.29896258e-01 0.00000000e+00)
16             	U              	(-7.98487216e-02 7.79517728e-02 -1.41500365e-18)	(7.02007805e-01 7.59452234e-01 0.00000000e+00)	(1.36450310e+00 2.87210556e-01 1.19704105e-18)	(-1.47461948e-01 1.24528550e+00 0.00000000e+00)
17             	p              	-9.04321959e-01	(-2.80771032e-01 -9.95500333e-01 0.00000000e+00)	4.21711233e-01	(-1.02709283e+00 1.21582604e-01 0.00000000e+00)
17             	U              	(-2.46183153e-01 -4.26452576e-02 -7.23187003e-19)	(1.25259701e+00 4.92598115e-02 1.93857522e-17)	(1.10114879e+00 5.67530186e-01 6.13405750e-19)	(-5.75773652e-01 1.02819339e+00 2.16922001e-17)
18             	p              	-6.40424682e-01	(-2.80771032e-01 -9.95500333e-01 0.00000000e+00)	5.84413282e-01	(-1.02709283e+00 1.21582604e-01 0.00000000e+00)
18             	U              	(-3.20145375e-01 -7.58358841e-02 -7.21161872e-19)	(1.66645754e+00 -1.97416220e-01 0.00000000e+00)	(1.09445805e+00 5.62992505e-01 4.93544753e-19)	(-5.75773652e-01 1.02819339e+00 2.16922001e-17)
19             	p              	-5.84707707e-01	(-2.80771032e-01 -9.95500333e-01 0.00000000e+00)	6.55571921e-01	(-1.02709283e+00 1.21582604e-01 0.00000000e+00)
19             	U              	(-3.69648009e-01 -1.06257404e-01 -4.87400761e-19)	(1.76997362e+00 6.96548838e-02 0.00000000e+00)	(1.07575441e+00 5.70706066e-01 4.85177360e-19)	(-5.75773652e-01 1.02819339e+00 2.16922001e-17)
20             	p              	-6.96894158e-01	(-2.01798769e-01 -1.01443079e+00 0.00000000e+00)	6.13447356e-01	(-1.02709283e+00 1.21582604e-01 0.00000000e+00)
20             	U              	(-4.12306274e-01 -1.07916039e-01 -4.45106006e-19)	(1.76997362e+00 6.96548838e-02 0.00000000e+00)	(1.34106684e+00 3.95222852e-02 4.38072682e-19)	(4.31212409e-01 1.52855036e+00 -1.44535346e-17)
21             	p              	-7.96437212e-01	(-2.01798769e-01 -1.01443079e+00 0.00000000e+00)	5.36631623e-01	(-1.02709283e+00 1.21582604e-01 0.00000000e+00)
21             	U              	(-1.58440791e-01 -1.35849919e-01 -2.11064052e-18)	(2.41396006e+00 9.50409361e-02 0.00000000e+00)	(1.34320489e+00 7.39879941e-02 5.63165756e-19)	(3.09901797e-01 1.55718056e+00 0.00000000e+00)
22             	p              	-7.81219523e-01	(-2.80771032e-01 -9.95500333e-01 0.00000000e+00)	5.00998873e-01	(-1.02709283e+00 1.21582604e-01 0.00000000e+00)
22             	U              	(-4.62646460e-01 -1.37878728e-01 -7.94966832e-19)	(1.48871873e+00 -1.76335018e-01 0.00000000e+00)	(1.28496749e+00 3.05411146e-01 1.35081209e-18)	(-2.76149616e-01 1.38772196e+00 0.00000000e+00)
23             	p              	-6.89811699e-01	(-2.80771032e-01 -9.95500333e-01 0.00000000e+00)	5.19201794e-01	(-1.02709283e+00 1.21582604e-01 0.00000000e+00)
23             	U              	(-4.70271247e-01 -1.32477722e-01 -9.33754229e-19)	(1.48871873e+00 -1.76335018e-01 0.00000000e+00)	(1.28450706e+00 3.00548332e-01 1.17705309e-18)	(-2.76149616e-01 1.38772196e+00 0.00000000e+00)
24             	p              	-6.02200507e-01	(-2.80771032e-01 -9.95500333e-01 0.00000000e+00)	5.55416797e-01	(-1.02709283e+00 1.21582604e-01 0.00000000e+00)
24             	U              	(-4.84298470e-01 -8.61851134e-02 -1.59829299e-19)	(1.76997362e+00 6.96548838e-02 0.00000000e+00)	(1.35498248e+00 1.73623621e-01 2.69270677e-19)	(5.55685452e-02 1.41263523e+00 0.00000000e+00)
25             	p              	-5.72101715e-01	(-4.06193460e-02 1.03340804e+00 1.51960920e-17)	5.73716903e-01	(-1.02709283e+00 1.21582604e-01 0.00000000e+00)
25             	U              	(-5.11211903e-01 -8.33007694e-02 -3.87457325e-19)	(1.83572112e+00 -3.65380545e-01 0.00000000e+00)	(1.34329863e+00 2.37141477e-01 3.36524754e-19)	(-5.23566379e-02 1.33115645e+00 0.00000000e+00)
26             	p              	-6.12463080e-01	(-4.06193460e-02 1.03340804e+00 1.51960920e-17)	5.66787864e-01	(-1.02709283e+00 1.21582604e-01 0.00000000e+00)
26             	U              	(-5.51466944e-01 -9.70235661e-02 -3.66950234e-19)	(1.83572112e+00 -3.65380545e-01 0.00000000e+00)	(1.33827108e+00 2.41095992e-01 3.68535506e-19)	(-5.23566379e-02 1.33115645e+00 0.00000000e+00)
27             	p              	-6.47235193e-01	(-4.06193460e-02 1.03340804e+00 1.51960920e-17)	5.49928871e-01	(-1.02709283e+00 1.21582604e-01 0.00000000e+00)
27             	U              	(-3.03169988e-01 -1.95957770e-01 -2.46436579e-18)	(2.41396006e+00 9.50409361e-02 0.00000000e+00)	(1.33688805e+00 2.40985132e-01 3.82570446e-19)	(-5.23566379e-02 1.33115645e+00 0.00000000e+00)
28             	p              	-6.52425374e-01	(-4.06193460e-02 1.03340804e+00 1.51960920e-17)	5.41046165e-01	(-1.03340804e+00 4.06193460e-02 0.00000000e+00)
28             	U              	(-5.07809025e-01 -6.87356953e-02 -1.19638988e-18)	(1.48871873e+00 -1.76335018e-01 0.00000000e+00)	(1.33622208e+00 2.39686984e-01 3.69550394e-19)	(-5.23566379e-02 1.33115645e+00 0.00000000e+00)
29             	p              	-6.37916570e-01	(-1.21582604e-01 1.02709283e+00 0.00000000e+00)	5.43443132e-01	(-1.03340804e+00 4.06193460e-02 0.00000000e+00)
29             	U              	(-3.43043387e-01 -2.06483080e-01 -2.45763835e-18)	(2.41396006e+00 9.50409361e-02 0.00000000e+00)	(1.33387237e+00 2.40340635e-01 3.46671482e-19)	(-5.23566379e-02 1.33115645e+00 0.00000000e+00)
30             	p              	-6.26487321e-01	(-1.21582604e-01 1.02709283e+00 0.00000000e+00)	5.51008973e-01	(-1.03340804e+00 4.06193460e-02 0.00000000e+00)
30             	U              	(-4.75852167e-01 -2.04428673e-01 -1.58719959e-19)	(1.52855036e+00 -4.31212409e-01 -2.81452840e-17)	(1.32981027e+00 2.43559558e-01 3.33923325e-19)	(-5.23566379e-02 1.33115645e+00 0.00000000e+00)
31             	p              	-6.48535575e-01	(1.90015960e+00 5.36090757e-01 0.00000000e+00)	5.56469092e-01	(-1.03340804e+00 4.06193460e-02 0.00000000e+00)
31             	U              	(-4.34365372e-01 -1.91542237e-01 -1.48952675e-19)	(2.29660710e+00 9.04148630e-02 1.46230325e-17)	(1.32566114e+00 2.47792236e-01 3.35996291e-19)	(-5.23566379e-02 1.33115645e+00 0.00000000e+00)
32             	p              	-6.60648963e-01	(1.90015960e+00 5.36090757e-01 0.00000000e+00)	5.57239948e-01	(-1.03340804e+00 4.06193460e-02 0.00000000e+00)
32             	U              	(-4.46796653e-01 -1.84949317e-01 -1.78322575e-19)	(2.29660710e+00 9.04148630e-02 1.46230325e-17)	(1.32284547e+00 2.51424372e-01 3.43222930e-19)	(-5.23566379e-02 1.33115645e+00 0.00000000e+00)
33             	p              	-6.61103690e-01	(1.90015960e+00 5.36090757e-01 0.00000000e+00)	5.55181022e-01	(-1.03340804e+00 4.06193460e-02 0.00000000e+00)
33             	U              	(-4.55947058e-01 -1.73602421e-01 -2.05547905e-19)	(2.29660710e+00 9.04148630e-02 1.46230325e-17)	(1.32148130e+00 2.54207947e-01 3.44430517e-19)	(-5.23566379e-02 1.33115645e+00 0.00000000e+00)
34             	p              	-6.64644424e-01	(2.03909204e+00 4.05887266e-01 3.44653399e-17)	5.53044449e-01	(-1.03340804e+00 4.06193460e-02 0.00000000e+00)
34             	U              	(-4.61453211e-01 -1.58365168e-01 -2.28612690e-19)	(2.29660710e+00 9.04148630e-02 1.46230325e-17)	(1.31461572e+00 1.18531568e-01 3.40722414e-19)	(3.09901797e-01 1.55718056e+00 0.00000000e+00)
35             	p              	-6.74242690e-01	(2.03909204e+00 4.05887266e-01 3.44653399e-17)	5.52131570e-01	(-1.03340804e+00 4.06193460e-02 0.00000000e+00)
35             	U              	(-5.74493819e-01 -1.42321801e-01 -8.12977196e-19)	(1.70757903e+00 -4.81739223e-01 0.00000000e+00)	(1.31963171e+00 2.60715666e-01 3.25454260e-19)	(-5.23566379e-02 1.33115645e+00 0.00000000e+00)
36             	p              	-6.84796378e-01	(2.03909204e+00 4.05887266e-01 3.44653399e-17)	5.52198376e-01	(-1.03340804e+00 4.06193460e-02 0.00000000e+00)
36             	U              	(-5.76307553e-01 -1.23804433e-01 -8.34483139e-19)	(1.70757903e+00 -4.81739223e-01 0.00000000e+00)	(1.31807974e+00 2.65398052e-01 3.16669294e-19)	(-5.23566379e-02 1.33115645e+00 0.00000000e+00)
37             	p              	-6.95232862e-01	(2.14647948e+00 4.27276326e-01 0.00000000e+00)	5.52495329e-01	(-1.03340804e+00 4.06193460e-02 0.00000000e+00)
37             	U              	(-5.76235800e-01 -1.03065703e-01 -8.52759857e-19)	(1.70757903e+00 -4.81739223e-01 0.00000000e+00)	(1.31636354e+00 2.70568477e-01 3.12301611e-19)	(-5.23566379e-02 1.33115645e+00 0.00000000e+00)
38             	p              	-7.02045625e-01	(2.14647948e+00 4.27276326e-01 0.00000000e+00)	5.52767619e-01	(-1.03340804e+00 -4.06193460e-02 0.00000000e+00)
38             	U              	(-5.74453797e-01 -8.05092450e-02 -8.69956379e-19)	(1.70757903e+00 -4.81739223e-01 0.00000000e+00)	(1.31480178e+00 2.75697164e-01 3.09902129e-19)	(-5.23566379e-02 1.33115645e+00 0.00000000e+00)
39             	p              	-7.03963481e-01	(2.14647948e+00 4.27276326e-01 0.00000000e+00)	5.53798254e-01	(-1.03340804e+00 -4.06193460e-02 0.00000000e+00)
39             	U              	(-5.76020681e-01 -1.32740618e-01 -9.21918513e-19)	(2.66190925e+00 -1.04815135e-01 -1.14863902e-17)	(1.31338590e+00 2.80586876e-01 3.05871839e-19)	(-5.23566379e-02 1.33115645e+00 0.00000000e+00)
40             	p              	-7.07721984e-01	(2.25785711e+00 4.49460138e-01 -1.53527813e-17)	5.54320998e-01	(-1.03340804e+00 -4.06193460e-02 0.00000000e+00)
40             	U              	(-5.65466525e-01 -3.08956910e-02 -8.95905826e-19)	(1.70757903e+00 -4.81739223e-01 0.00000000e+00)	(1.31245668e+00 1.58788550e-01 2.93874635e-19)	(3.09901797e-01 1.55718056e+00 0.00000000e+00)
41             	p              	-7.11223950e-01	(2.25785711e+00 4.49460138e-01 -1.53527813e-17)	5.54389449e-01	(-1.03340804e+00 -4.06193460e-02 0.00000000e+00)
41             	U              	(-5.58410390e-01 -4.39871508e-03 -8.99101101e-19)	(1.70757903e+00 -4.81739223e-01 0.00000000e+00)	(1.31215341e+00 1.66308004e-01 2.81674660e-19)	(3.09901797e-01 1.55718056e+00 0.00000000e+00)
42             	p              	-7.15716393e-01	(2.37337316e+00 4.72468227e-01 0.00000000e+00)	5.54107673e-01	(-1.03340804e+00 -4.06193460e-02 0.00000000e+00)
42             	U              	(-4.77540478e-01 -7.80511594e-02 -7.04954694e-19)	(1.75704651e+00 -6.48271988e-01 2.04167066e-17)	(1.31138830e+00 1.74326924e-01 2.70065488e-19)	(3.09901797e-01 1.55718056e+00 0.00000000e+00)
43             	p              	-7.21792584e-01	(2.40136978e+00 2.84582513e-01 2.61626225e-17)	5.53681466e-01	(-1.03340804e+00 -4.06193460e-02 0.00000000e+00)
43             	U              	(-4.73870109e-01 -5.18276930e-02 -7.03477277e-19)	(1.75704651e+00 -6.48271988e-01 2.04167066e-17)	(1.31013372e+00 1.82617334e-01 2.60167519e-19)	(3.09901797e-01 1.55718056e+00 0.00000000e+00)
44             	p              	-7.25847084e-01	(2.40136978e+00 2.84582513e-01 2.61626225e-17)	5.53375355e-01	(-1.03340804e+00 -4.06193460e-02 0.00000000e+00)
44             	U              	(-4.58487419e-01 -1.61167315e-01 -3.31992328e-18)	(3.09346251e+00 -1.17981676e-01 3.97282477e-17)	(1.31209115e+00 2.64286279e-01 2.54768216e-19)	(5.55685452e-02 1.41263523e+00 0.00000000e+00)
45             	p              	-7.27540099e-01	(2.52252994e+00 2.98953048e-01 -1.16567447e-17)	5.53302733e-01	(-1.03340804e+00 -4.06193460e-02 0.00000000e+00)
45             	U              	(-4.70536769e-01 -1.44525424e-01 -3.08111353e-18)	(3.09346251e+00 -1.17981676e-01 3.97282477e-17)	(1.30883930e+00 2.70717733e-01 2.52061107e-19)	(5.55685452e-02 1.41263523e+00 0.00000000e+00)
46             	p              	-7.28694251e-01	(2.52252994e+00 2.98953048e-01 -1.16567447e-17)	5.53289805e-01	(-1.03340804e+00 -4.06193460e-02 0.00000000e+00)
46             	U              	(-4.82934862e-01 -1.23792812e-01 -2.80270448e-18)	(3.09346251e+00 -1.17981676e-01 3.97282477e-17)	(1.30505745e+00 2.76979052e-01 2.48706550e-19)	(5.55685452e-02 1.41263523e+00 0.00000000e+00)
47             	p              	-7.27206779e-01	(2.52252994e+00 2.98953048e-01 -1.16567447e-17)	5.53061559e-01	(-1.03340804e+00 -4.06193460e-02 0.00000000e+00)
47             	U              	(-4.96065670e-01 -9.91851329e-02 -2.48463122e-18)	(3.09346251e+00 -1.17981676e-01 3.97282477e-17)	(1.30111129e+00 2.16001894e-01 2.19035518e-19)	(3.09901797e-01 1.55718056e+00 0.00000000e+00)
48             	p              	-7.27650459e-01	(2.64819197e+00 3.13857539e-01 0.00000000e+00)	5.52379906e-01	(-1.03340804e+00 -4.06193460e-02 0.00000000e+00)
48             	U              	(-5.10357680e-01 -7.08769681e-02 -2.12808257e-18)	(3.09346251e+00 -1.17981676e-01 3.97282477e-17)	(1.26798809e+00 4.12310903e-01 9.38766798e-19)	(-2.76149616e-01 1.38772196e+00 0.00000000e+00)
49             	p              	-7.25673455e-01	(2.64819197e+00 3.13857539e-01 0.00000000e+00)	5.51295526e-01	(-1.03340804e+00 -4.06193460e-02 0.00000000e+00)
49             	U              	(-5.26279121e-01 -3.90908852e-02 -1.73879951e-18)	(3.09346251e+00 -1.17981676e-01 3.97282477e-17)	(1.20712085e+00 5.36005864e-01 3.38740845e-19)	(-4.34263818e-01 1.17707062e+00 1.02472922e-17)
50             	p              	-7.24459211e-01	(2.77852312e+00 3.29315826e-01 1.06004526e-17)	5.50095765e-01	(-1.03340804e+00 -4.06193460e-02 0.00000000e+00)
50             	U              	(-5.53225573e-01 -8.64035025e-02 -2.32106927e-18)	(3.68914684e+00 -3.52530539e-01 2.45155921e-17)	(1.20276875e+00 5.37825839e-01 3.32930146e-19)	(-4.34263818e-01 1.17707062e+00 1.02472922e-17)
51             	p              	-7.19166852e-01	(2.77852312e+00 3.29315826e-01 1.06004526e-17)	5.49061438e-01	(-1.03340804e+00 -4.06193460e-02 0.00000000e+00)
51             	U              	(-1.76897160e-01 -1.72747616e-01 -1.53362054e-18)	(3.49299522e+00 1.17804796e-01 -2.48544724e-17)	(1.19780593e+00 5.39320661e-01 3.27024312e-19)	(-4.34263818e-01 1.17707062e+00 1.02472922e-17)
52             	p              	-7.12809145e-01	(2.91369687e+00 3.45348481e-01 2.86609245e-17)	5.48380522e-01	(-1.03340804e+00 -4.06193460e-02 0.00000000e+00)
52             	U              	(-4.06524666e-01 -1.20154930e-01 -7.87982329e-19)	(3.70398946e+00 -1.17711385e-01 0.00000000e+00)	(1.19225218e+00 5.40474368e-01 3.20985524e-19)	(-4.34263818e-01 1.17707062e+00 1.02472922e-17)
53             	p              	-7.05212443e-01	(3.07827514e+00 3.53327276e-01 2.63523416e-17)	5.48058439e-01	(-1.03340804e+00 -4.06193460e-02 0.00000000e+00)
53             	U              	(-4.52125859e-01 -8.11435131e-02 -6.57445578e-19)	(3.70398946e+00 -1.17711385e-01 0.00000000e+00)	(1.18612516e+00 5.41284428e-01 3.14826029e-19)	(-4.34263818e-01 1.17707062e+00 1.02472922e-17)
54             	p              	-6.98079743e-01	(3.07827514e+00 3.53327276e-01 2.63523416e-17)	5.47982566e-01	(-1.03340804e+00 -4.06193460e-02 0.00000000e+00)
54             	U              	(-3.25677537e-01 -3.94793240e-02 -2.12368811e-19)	(3.49299522e+00 1.17804796e-01 -2.48544724e-17)	(1.12831616e+00 5.28074984e-01 6.58259535e-19)	(-5.92566600e-01 1.28544556e+00 0.00000000e+00)
55             	p              	-6.87124992e-01	(3.24039640e+00 5.86229996e-01 1.40180275e-17)	5.47962038e-01	(-1.03340804e+00 -4.06193460e-02 0.00000000e+00)
55             	U              	(-3.55006673e-01 -7.62663638e-02 -2.77521575e-18)	(4.61520875e+00 -3.51322712e-01 -1.07277558e-17)	(1.07447784e+00 5.74826164e-01 4.43822933e-19)	(-4.93380495e-01 1.07025663e+00 0.00000000e+00)
56             	p              	-6.77670802e-01	(3.24039640e+00 5.86229996e-01 1.40180275e-17)	5.47850144e-01	(-1.03340804e+00 -4.06193460e-02 0.00000000e+00)
56             	U              	(-6.57752146e-02 -2.12885427e-01 -2.18409318e-18)	(4.38530218e+00 1.17409755e-01 0.00000000e+00)	(1.06678578e+00 5.50949714e-01 3.48073187e-19)	(-6.91464900e-01 1.23486407e+00 0.00000000e+00)
57             	p              	-6.70217679e-01	(3.44418941e+00 5.85804498e-01 0.00000000e+00)	5.47635926e-01	(-1.03340804e+00 -4.06193460e-02 0.00000000e+00)
57             	U              	(-1.48548835e-01 -1.60750627e-01 -2.16288832e-18)	(4.38530218e+00 1.17409755e-01 0.00000000e+00)	(1.06109008e+00 5.50354452e-01 3.43483171e-19)	(-6.91464900e-01 1.23486407e+00 0.00000000e+00)
58             	p              	-6.56267272e-01	(3.44418941e+00 5.85804498e-01 0.00000000e+00)	5.47559059e-01	(-1.03340804e+00 -4.06193460e-02 0.00000000e+00)
58             	U              	(-2.43673154e-01 -9.92811356e-02 -1.88577098e-18)	(4.38530218e+00 1.17409755e-01 0.00000000e+00)	(1.05506901e+00 5.49350732e-01 3.38781283e-19)	(-6.91464900e-01 1.23486407e+00 0.00000000e+00)
59             	p              	-6.45461281e-01	(3.65557232e+00 5.85363153e-01 0.00000000e+00)	5.48011455e-01	(-1.03340804e+00 -4.06193460e-02 0.00000000e+00)
59             	U              	(-3.51492563e-01 -2.69588884e-02 -1.55381408e-18)	(4.38530218e+00 1.17409755e-01 0.00000000e+00)	(1.04879894e+00 5.47962263e-01 3.34038177e-19)	(-6.91464900e-01 1.23486407e+00 0.00000000e+00)
60             	p              	-6.25024236e-01	(3.87482780e+00 5.84905371e-01 0.00000000e+00)	5.48948593e-01	(-1.03340804e+00 -4.06193460e-02 0.00000000e+00)
60             	U              	(-3.32644996e-01 -2.09091028e-02 -6.83736918e-19)	(4.62952869e+00 1.17301631e-01 -5.03277170e-17)	(1.04237037e+00 5.46218650e-01 3.29422684e-19)	(-6.91464900e-01 1.23486407e+00 0.00000000e+00)
61             	p              	-6.24943424e-01	(2.69643629e+00 -7.60821938e-01 3.09756320e-17)	5.49939113e-01	(-1.03340804e+00 -4.06193460e-02 0.00000000e+00)
61             	U              	(-9.98177809e-02 -2.49883791e-01 -2.72950719e-19)	(1.17707062e+00 -4.34263818e-01 2.04521781e-17)	(1.08403224e+00 5.25342113e-01 5.85873648e-19)	(-5.92566600e-01 1.28544556e+00 0.00000000e+00)
62             	p              	-6.44789058e-01	(2.69643629e+00 -7.60821938e-01 3.09756320e-17)	5.50633922e-01	(-1.03340804e+00 -4.06193460e-02 0.00000000e+00)
62             	U              	(-1.48258350e-01 -1.85313466e-01 -3.65283917e-19)	(1.23018880e+00 -2.44772705e-01 9.47767350e-18)	(1.17552779e+00 4.46606159e-01 6.96930236e-19)	(-2.76149616e-01 1.38772196e+00 0.00000000e+00)
63             	p              	-6.60387597e-01	(2.69643629e+00 -7.60821938e-01 3.09756320e-17)	5.51262839e-01	(-1.03340804e+00 -4.06193460e-02 0.00000000e+00)
63             	U              	(-9.10969908e-02 -3.03430072e-01 -2.38817534e-19)	(1.17707062e+00 -4.34263818e-01 2.04521781e-17)	(1.16815168e+00 4.46097232e-01 6.93595274e-19)	(-2.76149616e-01 1.38772196e+00 0.00000000e+00)
64             	p              	-6.77070836e-01	(2.74631812e+00 -5.46750120e-01 0.00000000e+00)	5.51461646e-01	(-1.03340804e+00 -4.06193460e-02 0.00000000e+00)
64             	U              	(-9.21333951e-02 -2.93935859e-01 -9.24507983e-20)	(1.13417589e+00 -3.19909089e-01 3.28857625e-17)	(1.16147308e+00 4.45087993e-01 6.94423456e-19)	(-2.76149616e-01 1.38772196e+00 0.00000000e+00)
65             	p              	-6.93467399e-01	(2.74631812e+00 -5.46750120e-01 0.00000000e+00)	5.51050312e-01	(-1.03340804e+00 -4.06193460e-02 0.00000000e+00)
65             	U              	(-2.50177953e-01 -2.26252120e-01 -1.40416007e-18)	(1.48871873e+00 -1.76335018e-01 0.00000000e+00)	(1.17676444e+00 3.83398670e-01 1.62493680e-19)	(-5.88998071e-02 1.49714178e+00 0.00000000e+00)
66             	p              	-7.01572741e-01	(2.74631812e+00 -5.46750120e-01 0.00000000e+00)	5.50537566e-01	(-1.03340804e+00 -4.06193460e-02 0.00000000e+00)
66             	U              	(-5.05079381e-01 -1.55929905e-01 -4.76763125e-19)	(2.18345837e+00 8.59545214e-02 0.00000000e+00)	(1.17222140e+00 3.81748852e-01 1.62887436e-19)	(-5.88998071e-02 1.49714178e+00 0.00000000e+00)
67             	p              	-7.03065753e-01	(2.87998357e+00 -5.73373143e-01 0.00000000e+00)	5.49893607e-01	(-1.03340804e+00 4.06193460e-02 0.00000000e+00)
67             	U              	(-4.07740346e-01 -2.50755669e-01 -4.11389614e-19)	(1.96917662e+00 7.75074990e-02 0.00000000e+00)	(1.15987799e+00 3.13337309e-01 1.64585954e-19)	(3.09901797e-01 1.55718056e+00 0.00000000e+00)
68             	p              	-7.09717526e-01	(2.91369687e+00 -3.45348481e-01 -2.86609245e-17)	5.49267092e-01	(-1.03340804e+00 4.06193460e-02 0.00000000e+00)
68             	U              	(-3.69918902e-01 -3.12295390e-01 -3.73309950e-19)	(1.96917662e+00 7.75074990e-02 0.00000000e+00)	(1.15793318e+00 3.09259532e-01 1.79453994e-19)	(3.09901797e-01 1.55718056e+00 0.00000000e+00)
69             	p              	-7.09547577e-01	(3.07827514e+00 -3.53327276e-01 -2.63523416e-17)	5.48364922e-01	(-1.03340804e+00 4.06193460e-02 0.00000000e+00)
69             	U              	(-3.84001782e-01 -3.66435978e-01 -6.09713635e-19)	(2.18345837e+00 8.59545214e-02 0.00000000e+00)	(1.21866719e+00 2.60045281e-01 2.29605143e-19)	(3.67300489e+00 -1.66599805e+00 2.58935726e-17)
70             	p              	-7.02643136e-01	(3.07827514e+00 -3.53327276e-01 -2.63523416e-17)	5.47205533e-01	(-1.03340804e+00 4.06193460e-02 0.00000000e+00)
70             	U              	(-3.41556310e-01 -4.20873448e-01 -6.11573614e-19)	(2.18345837e+00 8.59545214e-02 0.00000000e+00)	(1.24214692e+00 2.52821185e-01 2.35537816e-19)	(3.67300489e+00 -1.66599805e+00 2.58935726e-17)
71             	p              	-6.91011831e-01	(3.27450028e+00 -3.53071347e-01 -1.23400670e-17)	5.45682451e-01	(-1.03340804e+00 4.06193460e-02 0.00000000e+00)
71             	U              	(-3.02597365e-01 -4.63085158e-01 -5.82227000e-19)	(2.18345837e+00 8.59545214e-02 0.00000000e+00)	(1.19192060e+00 2.17195149e-01 2.45691150e-19)	(1.65062352e+00 2.09448512e+00 0.00000000e+00)
72             	p              	-6.82290476e-01	(3.28957691e+00 -1.17894853e-01 -5.14360370e-17)	5.43751744e-01	(-1.03340804e+00 4.06193460e-02 0.00000000e+00)
72             	U              	(-2.69952652e-01 -4.91930786e-01 -5.28434433e-19)	(2.18345837e+00 8.59545214e-02 0.00000000e+00)	(1.18909461e+00 2.00742093e-01 2.96820056e-19)	(1.65062352e+00 2.09448512e+00 0.00000000e+00)
73             	p              	-6.67884474e-01	(3.49299522e+00 -1.17804796e-01 2.60108591e-17)	5.42412630e-01	(-1.03340804e+00 4.06193460e-02 0.00000000e+00)
73             	U              	(-2.45557442e-01 -5.07399251e-01 -4.57324933e-19)	(2.18345837e+00 8.59545214e-02 0.00000000e+00)	(1.18885203e+00 1.82635915e-01 3.36728770e-19)	(1.65062352e+00 2.09448512e+00 0.00000000e+00)
74             	p              	-6.50265609e-01	(3.70398946e+00 -1.17711385e-01 0.00000000e+00)	5.41541352e-01	(-1.03340804e+00 4.06193460e-02 0.00000000e+00)
74             	U              	(-2.47981607e-01 -5.42530587e-01 -5.90770626e-19)	(2.66190925e+00 1.04815135e-01 1.11009894e-17)	(1.19952473e+00 2.53840577e-01 4.56915647e-19)	(4.03106114e+00 -1.46441203e+00 1.23526421e-17)
75             	p              	-6.30788763e-01	(3.90812275e+00 -3.52244937e-01 0.00000000e+00)	5.41330021e-01	(-1.03340804e+00 4.06193460e-02 0.00000000e+00)
75             	U              	(-2.35181503e-01 -5.65242467e-01 -4.90831068e-19)	(2.66190925e+00 1.04815135e-01 1.11009894e-17)	(1.21416861e+00 3.56011097e-01 6.22333928e-19)	(5.12607224e+00 -1.85318748e+00 0.00000000e+00)
76             	p              	-6.09988570e-01	(4.13525400e+00 -3.51948699e-01 0.00000000e+00)	5.42013148e-01	(-1.03340804e+00 -4.06193460e-02 0.00000000e+00)
76             	U              	(-2.33644572e-01 -5.74873170e-01 -3.59353033e-19)	(2.66190925e+00 1.04815135e-01 1.11009894e-17)	(1.24817403e+00 3.46468897e-01 5.77044597e-19)	(5.12607224e+00 -1.85318748e+00 0.00000000e+00)
77             	p              	-5.88100539e-01	(4.37084432e+00 -3.51641427e-01 3.24975836e-17)	5.42861695e-01	(-1.03340804e+00 -4.06193460e-02 0.00000000e+00)
77             	U              	(-2.14004237e-01 -5.72644129e-01 -1.33947907e-18)	(3.09346251e+00 1.17981676e-01 -3.89573231e-17)	(1.34322556e+00 2.42951405e-01 3.86590197e-19)	(4.69495892e+00 -2.03414663e+00 -1.39106612e-17)
78             	p              	-5.65740205e-01	(4.61520875e+00 -3.51322712e-01 -1.07277558e-17)	5.43563637e-01	(-1.03340804e+00 -4.06193460e-02 0.00000000e+00)