/*--------------------------------*- C++ -*----------------------------------*\
| =========                 |                                                 |
| \\      /  F ield         | OpenFOAM: The Open Source CFD Toolbox           |
|  \\    /   O peration     | Version:  2112                                  |
|   \\  /    A nd           | Website:  www.openfoam.com                      |
|    \\/     M anipulation  |                                                 |
\*---------------------------------------------------------------------------*/
FoamFile
{
    version     2.0;
    format      ascii;
    arch        "LSB;label=32;scalar=64";
    class       volScalarField;
    location    "3";
    object      T;
}
// * * * * * * * * * * * * * * * * * * * * * * * * * * * * * * * * * * * * * //

dimensions      [0 0 0 1 0 0 0];

internalField   nonuniform List<scalar> 
1000
(
0
0
0
0
0
0
0
0
0
0
0
0
0
0
0
0
0
0
0
0
0
0
0
0
0
0
0
0
0
0
0
0
0
0
0
0
0
0
0
0
0
0
0
0
0
0
0
0
0
0
0
0
0
0
0
0
0
0
0
0
0
0
0
0
0
0
0
0
0
0
0
0
0
0
0
0
0
0
0
0
0
0
0
0
0
0
0
0
0
0
0
0
0
0
0
0
0
0
0
0
0
0
0
0
0
0
0
0
0
0
0
0
0
0
0
0
0
0
0
0
0
0
0
0
0
0
0
0
0
0
0
9.88131e-324
1.3735e-320
1.4612e-317
1.46071e-314
1.36443e-311
1.18333e-308
9.45408e-306
6.88977e-303
4.52102e-300
2.62396e-297
1.31168e-294
5.40193e-292
1.67297e-289
2.89715e-287
-3.55573e-285
-3.84594e-282
-7.31889e-280
1.96629e-277
9.46605e-275
-1.05407e-272
-8.69069e-270
1.44658e-267
6.0646e-265
-2.47262e-262
9.713e-261
1.90915e-257
-8.49223e-255
2.26443e-252
-4.58019e-250
7.61997e-248
-1.08656e-245
1.36187e-243
-1.52637e-241
1.54914e-239
-1.43753e-237
1.22906e-235
-9.74297e-234
7.19853e-232
-4.97926e-230
3.23684e-228
-1.9841e-226
1.15019e-224
-6.32227e-223
3.30284e-221
-1.64333e-219
7.80207e-218
-3.54073e-216
1.53837e-214
-6.40823e-213
2.56275e-211
-9.85141e-210
3.64425e-208
-1.29866e-206
4.46256e-205
-1.48005e-203
4.7418e-202
-1.4687e-200
4.40122e-199
-1.27694e-197
3.58933e-196
-9.78084e-195
2.58532e-193
-6.63239e-192
1.65224e-190
-3.9989e-189
9.40758e-188
-2.15218e-186
4.78991e-185
-1.03753e-183
2.18807e-182
-4.49437e-181
8.99443e-180
-1.75435e-178
3.33605e-177
-6.18656e-176
1.11915e-174
-1.97546e-173
3.40327e-172
-5.72368e-171
9.39952e-170
-1.50758e-168
2.36204e-167
-3.61584e-166
5.40913e-165
-7.90887e-164
1.13042e-162
-1.57968e-161
2.15857e-160
-2.8846e-159
3.77035e-158
-4.82061e-157
6.02967e-156
-7.379e-155
8.8359e-154
-1.03535e-152
1.18723e-151
-1.33237e-150
1.46344e-149
-1.57327e-148
1.65549e-147
-1.70511e-146
1.71905e-145
-1.69643e-144
1.63868e-143
-1.54937e-142
1.43386e-141
-1.29877e-140
1.15136e-139
-9.98896e-139
8.48055e-138
-7.04508e-137
5.72614e-136
-4.55305e-135
3.54118e-134
-2.69362e-133
2.00352e-132
-1.45692e-131
1.03555e-130
-7.19285e-130
4.88099e-129
-3.23492e-128
2.09329e-127
-1.32203e-126
8.14569e-126
-4.89425e-125
2.86611e-124
-1.63492e-123
9.07842e-123
-4.90351e-122
2.57401e-121
-1.31186e-120
6.48381e-120
-3.10341e-119
1.43613e-118
-6.41238e-118
2.75566e-117
-1.13613e-116
4.47509e-116
-1.67437e-115
5.90163e-115
-1.93455e-114
5.7684e-114
-1.49595e-113
2.98698e-113
-2.13588e-113
-1.88941e-112
1.34145e-111
-5.85135e-111
1.97915e-110
-5.23685e-110
9.23191e-110
1.62282e-110
-1.00392e-108
5.21257e-108
-1.77261e-107
4.19241e-107
-4.55999e-107
-1.66409e-106
1.25738e-105
-4.63283e-105
1.08654e-104
-9.61159e-105
-5.30447e-104
3.32556e-103
-1.05122e-102
1.81553e-102
1.1006e-102
-2.05482e-101
7.94502e-101
-1.64026e-100
1.94836e-101
1.29111e-99
-5.43792e-99
1.12916e-98
-5.07228e-100
-8.93061e-98
3.48717e-97
-6.16492e-97
-4.38028e-97
6.4401e-96
-2.00634e-95
2.24943e-95
7.34916e-95
-4.2656e-94
9.14336e-94
7.99226e-95
-7.02199e-93
2.25092e-92
-2.18872e-92
-9.24931e-92
4.47637e-91
-7.30603e-91
-9.23225e-91
7.88488e-90
-1.69576e-89
-4.78902e-90
1.29605e-88
-3.34438e-88
6.04864e-89
2.06676e-87
-5.98772e-87
2.34581e-87
3.29333e-86
-1.00152e-85
4.25633e-86
5.32796e-85
-1.58027e-84
4.75216e-85
8.73227e-84
-2.34123e-83
2.73819e-85
1.42352e-82
-3.19307e-82
-1.5602e-82
2.24479e-81
-3.83848e-81
-5.21341e-81
3.31442e-80
-3.65561e-80
-1.18667e-79
4.40403e-79
-1.68059e-79
-2.17037e-78
4.94993e-78
3.10575e-78
-3.28972e-77
4.04696e-77
1.09912e-76
-4.04314e-76
7.72834e-77
2.03427e-75
-3.64663e-75
-5.02854e-75
2.67787e-74
-1.40277e-74
-1.17644e-73
2.41422e-73
2.58618e-73
-1.57921e-72
8.37351e-73
6.77667e-72
-1.29408e-71
-1.69794e-71
8.44232e-71
-1.98397e-71
-3.84407e-70
5.40679e-70
1.22143e-69
-3.91202e-69
-1.53041e-69
1.99105e-68
-1.33258e-68
-7.86127e-68
1.37807e-67
2.2755e-67
-8.34734e-67
-2.73496e-67
3.9735e-66
-2.16255e-66
-1.57674e-65
2.21331e-65
5.15769e-65
-1.34835e-64
-1.23783e-64
6.64836e-64
7.24651e-65
-2.85976e-63
1.51783e-63
1.1015e-62
-1.28223e-62
-3.81594e-62
7.34793e-62
1.1701e-61
-3.56667e-61
-2.99708e-61
1.56598e-60
5.06787e-61
-6.4074e-60
5.41851e-61
2.48494e-59
-1.08962e-59
-9.23885e-59
7.07161e-59
3.32166e-58
-3.5869e-58
-1.16354e-57
1.61519e-57
3.99936e-57
-6.75772e-57
-1.35868e-56
2.68511e-56
4.5961e-56
-1.02568e-55
-1.55951e-55
3.7941e-55
5.34241e-55
-1.36483e-54
-1.85621e-54
4.78402e-54
6.55264e-54
-1.63422e-53
-2.34661e-53
5.431e-53
8.48785e-53
-1.74908e-52
-3.08144e-52
5.42169e-52
1.11484e-51
-1.599e-51
-3.9906e-51
4.39541e-51
1.40348e-50
-1.07953e-50
-4.81673e-50
2.11262e-50
1.60173e-49
-1.67426e-50
-5.11895e-49
-1.2533e-49
1.55583e-48
9.81906e-49
-4.42789e-48
-4.85236e-48
1.14896e-47
1.99059e-47
-2.56866e-47
-7.23234e-47
4.155e-47
2.37226e-46
6.06069e-49
-7.01572e-46
-3.90621e-46
1.83298e-45
2.2108e-45
-3.99173e-45
-8.83864e-45
5.90107e-45
2.90832e-44
2.39734e-45
-8.07681e-44
-6.24477e-44
1.82684e-43
3.05738e-43
-2.83726e-43
-1.05831e-42
-2.49706e-44
2.88295e-42
2.34798e-42
-5.94525e-42
-1.1223e-41
6.66361e-42
3.57452e-41
1.29915e-41
-8.36643e-41
-1.08767e-40
1.22338e-40
3.97605e-40
5.00932e-41
-9.87579e-40
-1.0753e-39
1.50524e-39
4.24592e-39
3.82274e-40
-1.04407e-38
-1.16657e-38
1.43094e-38
4.44327e-38
1.13525e-38
-9.88785e-38
-1.36057e-37
9.53074e-38
4.42732e-37
2.64998e-37
-7.83997e-37
-1.55305e-36
9.75315e-38
3.88557e-36
4.39755e-36
-4.06814e-36
-1.55189e-35
-9.34968e-36
2.54159e-35
5.41348e-35
8.35753e-36
-1.17222e-34
-1.71133e-34
5.20353e-35
4.69053e-34
5.01739e-34
-4.18499e-34
-1.72979e-33
-1.39292e-33
2.07077e-33
6.07793e-33
3.76483e-33
-8.57781e-33
-2.07994e-32
-1.03628e-32
3.21635e-32
7.03733e-32
3.09596e-32
-1.12447e-31
-2.37492e-31
-1.05801e-31
3.69938e-31
8.0119e-31
4.11336e-31
-1.13892e-30
-2.68982e-30
-1.71833e-30
3.20288e-30
8.8902e-30
7.26197e-30
-7.71266e-30
-2.84357e-29
-2.98271e-29
1.2638e-29
8.58102e-29
1.16174e-28
9.89612e-30
-2.34263e-28
-4.20917e-28
-2.17967e-28
5.28515e-28
1.38627e-27
1.29092e-27
-6.95887e-28
-3.98954e-27
-5.61605e-27
-1.55443e-27
9.14962e-27
1.98728e-26
1.67801e-26
-1.13808e-26
-5.64781e-26
-8.05383e-26
-3.0717e-26
1.12359e-25
2.76209e-25
2.86213e-25
-3.62328e-26
-6.70408e-25
-1.21259e-24
-9.37392e-25
7.19309e-25
3.36523e-24
5.09641e-24
3.01521e-24
-4.66554e-24
-1.55743e-23
-2.1422e-23
-1.06083e-23
2.31674e-23
6.90528e-23
9.25519e-23
4.60149e-23
-9.75195e-23
-2.96913e-22
-4.13815e-22
-2.4699e-22
3.40305e-22
1.22689e-21
1.88606e-21
1.46084e-21
-7.89916e-22
-4.70927e-21
-8.47971e-21
-8.5545e-21
-1.00719e-21
1.54732e-20
3.58504e-20
4.66272e-20
2.86135e-20
-3.29823e-20
-1.32138e-19
-2.26103e-19
-2.32767e-19
-5.59858e-20
3.537e-19
9.14612e-19
1.34554e-18
1.17845e-18
-7.98176e-20
-2.61082e-18
-5.84344e-18
-8.11607e-18
-6.77126e-18
9.72108e-19
1.62179e-17
3.59751e-17
5.11192e-17
4.64027e-17
4.44136e-18
-8.50781e-17
-2.11758e-16
-3.30586e-16
-3.55927e-16
-1.74401e-16
3.13122e-16
1.11746e-15
2.06723e-15
2.72955e-15
2.40339e-15
2.57118e-16
-4.32857e-15
-1.12035e-14
-1.87694e-14
-2.34187e-14
-1.94894e-14
-2.40387e-16
3.96803e-14
1.00091e-13
1.69888e-13
2.21824e-13
2.10054e-13
7.41639e-14
-2.46068e-13
-7.81811e-13
-1.49176e-12
-2.20943e-12
-2.59508e-12
-2.1167e-12
-9.50867e-14
4.14564e-12
1.09842e-11
2.00472e-11
2.9619e-11
3.60148e-11
3.31172e-11
1.23972e-11
-3.61396e-11
-1.21555e-10
-2.47621e-10
-4.06161e-10
-5.68195e-10
-6.73735e-10
-6.2227e-10
-2.67544e-10
5.77816e-10
2.12014e-09
4.53543e-09
7.88225e-09
1.19666e-08
1.61516e-08
1.91132e-08
1.85558e-08
1.09235e-08
-8.82454e-09
-4.72626e-08
-1.12201e-07
-2.11795e-07
-3.52728e-07
-5.37019e-07
-7.5689e-07
-9.86988e-07
-1.17312e-06
-1.21649e-06
-9.52354e-07
-1.21769e-07
1.66483e-06
4.97368e-06
1.06047e-05
1.96609e-05
3.36311e-05
5.44874e-05
8.47972e-05
0.000127851
0.000187805
0.000269836
0.000380313
0.000526973
0.000719105
0.000967742
0.00128584
0.00168847
0.00219297
0.00281908
0.00358908
0.00452788
0.00566303
0.00702473
0.0086458
0.0105615
0.0128094
0.0154293
0.0184623
0.0219515
0.0259404
0.0304732
0.035594
0.0413461
0.0477717
0.0549109
0.062801
0.0714764
0.0809672
0.0912992
0.102493
0.114563
0.127519
0.141363
0.15609
0.171689
0.188141
0.205421
0.223496
0.242327
0.261868
0.282068
0.302867
0.324206
0.346015
0.368225
0.390763
0.413553
0.436518
0.459581
0.482663
0.505689
0.528584
0.551275
0.573692
0.595771
0.617448
0.638667
0.659374
0.679523
0.69907
0.717979
0.736219
0.753764
0.770593
0.786691
0.802049
0.81666
0.830524
0.843646
0.856032
0.867695
0.878648
0.888908
0.898497
0.907435
0.915748
0.923459
0.930597
0.937187
0.943258
0.948838
0.953955
0.958637
0.962911
0.966804
0.970343
0.973553
0.976457
0.97908
0.981444
0.983569
0.985475
0.987181
0.988702
0.990056
0.991255
0.992312
0.993237
0.99404
0.994728
0.995305
0.995774
0.996137
0.996392
0.996534
0.996557
0.996452
0.996207
0.995806
0.995232
0.994462
0.993473
0.992238
0.990726
0.988903
0.986736
0.984185
0.981211
0.977772
0.973826
0.96933
0.96424
0.958514
0.952111
0.944991
0.937117
0.928455
0.918975
0.908653
0.897467
0.885403
0.872453
0.858614
0.843891
0.828296
0.811846
0.794568
0.776495
0.757665
0.738126
0.717927
0.697129
0.675791
0.653982
0.631772
0.609235
0.586445
0.56348
0.540418
0.517336
0.49431
0.471416
0.448725
0.426307
0.404229
0.382552
0.361333
0.340626
0.320477
0.30093
0.282021
0.263781
0.246236
0.229407
0.213309
0.197951
0.18334
0.169476
0.156354
0.143968
0.132305
0.121352
0.111092
0.101503
0.0925646
0.0842522
0.0765406
0.0694033
0.062813
0.0567419
0.051162
0.0460452
0.0413635
0.0370895
0.0331963
0.0296578
0.0264485
0.023544
0.020921
0.0185571
0.0164312
0.0145233
0.0128144
0.011287
0.00992446
0.00871141
0.00763357
0.00667774
0.00583174
0.00508438
0.00442541
0.00384547
0.00333603
0.00288935
0.00249841
0.00215688
0.00185905
0.00159979
0.0013745
0.00117908
0.00100986
0.000863584
0.000737354
0.000628608
0.000535083
0.000454783
0.000385951
0.000327046
0.00027672
0.000233792
0.000197233
0.000166149
0.00013976
0.000117394
9.84652e-05
8.24714e-05
6.89777e-05
5.76108e-05
4.80499e-05
4.00201e-05
3.32862e-05
2.76475e-05
2.29327e-05
1.89962e-05
1.57142e-05
1.29819e-05
1.07105e-05
8.82476e-06
7.26153e-06
5.96741e-06
4.89758e-06
4.01436e-06
3.28621e-06
2.68671e-06
2.1938e-06
1.78907e-06
1.45718e-06
1.18539e-06
9.631e-07
7.81535e-07
6.33425e-07
5.12761e-07
4.14582e-07
3.348e-07
2.70049e-07
2.17563e-07
1.75071e-07
1.40714e-07
1.12967e-07
9.05869e-08
7.25568e-08
5.80489e-08
4.63891e-08
3.70294e-08
2.95249e-08
2.35149e-08
1.87075e-08
1.48665e-08
1.18011e-08
9.35757e-09
7.41192e-09
5.86447e-09
4.6351e-09
3.65954e-09
2.88623e-09
2.27392e-09
1.78963e-09
1.40702e-09
1.10505e-09
8.66991e-10
6.79518e-10
5.32038e-10
4.16143e-10
3.25164e-10
2.5382e-10
1.97931e-10
1.54195e-10
1.20004e-10
9.3302e-11
7.24707e-11
5.62354e-11
4.3595e-11
3.37632e-11
2.61237e-11
2.01934e-11
1.55946e-11
1.20315e-11
9.27506e-12
7.13492e-12
5.54274e-12
3.89027e-12
)
;

boundaryField
{
    sides
    {
        type            zeroGradient;
    }
    empty
    {
        type            empty;
    }
}


// ************************************************************************* //
