/*--------------------------------*- C++ -*----------------------------------*\
| =========                 |                                                 |
| \\      /  F ield         | OpenFOAM: The Open Source CFD Toolbox           |
|  \\    /   O peration     | Version:  2112                                  |
|   \\  /    A nd           | Website:  www.openfoam.com                      |
|    \\/     M anipulation  |                                                 |
\*---------------------------------------------------------------------------*/
FoamFile
{
    version     2.0;
    format      ascii;
    arch        "LSB;label=32;scalar=64";
    class       volScalarField;
    location    "11.5";
    object      p;
}
// * * * * * * * * * * * * * * * * * * * * * * * * * * * * * * * * * * * * * //

dimensions      [0 2 -2 0 0 0 0];

internalField   nonuniform List<scalar> 
8800
(
0.436462
0.388728
0.350137
0.321237
0.300493
0.285804
0.275372
0.268046
0.26332
0.261225
0.262228
0.266054
0.272316
0.281278
0.293771
0.311281
0.335891
0.369707
0.41211
0.470804
0.267493
0.27518
0.282898
0.286311
0.284948
0.280066
0.2738
0.267905
0.263296
0.260451
0.260005
0.2622
0.266316
0.271883
0.278285
0.284232
0.287625
0.286747
0.281068
0.272227
0.245793
0.252024
0.25628
0.259454
0.261726
0.262547
0.261652
0.259745
0.25783
0.256837
0.257535
0.259521
0.261874
0.263632
0.263867
0.262329
0.259676
0.256014
0.25135
0.247547
0.239568
0.242305
0.245428
0.24822
0.250201
0.25164
0.25262
0.252932
0.252733
0.252625
0.253057
0.253776
0.254142
0.253731
0.252678
0.251134
0.248842
0.245792
0.243072
0.241581
0.234147
0.235645
0.237934
0.240576
0.242904
0.244667
0.245902
0.246806
0.24745
0.247895
0.248204
0.248245
0.24789
0.247144
0.24588
0.243976
0.24155
0.238999
0.237296
0.236512
0.229511
0.23035
0.232341
0.23476
0.237093
0.239264
0.241068
0.242382
0.243289
0.243922
0.244268
0.244198
0.243613
0.242417
0.24065
0.238564
0.236288
0.234017
0.232707
0.232358
0.227371
0.227798
0.229072
0.230724
0.232355
0.233848
0.235291
0.236688
0.237895
0.238786
0.239153
0.238943
0.238264
0.237298
0.236158
0.234799
0.233263
0.231799
0.231017
0.23087
0.226037
0.226262
0.226959
0.227944
0.229114
0.230549
0.231937
0.23325
0.234425
0.235393
0.235904
0.235858
0.235389
0.234572
0.233518
0.232477
0.231622
0.230851
0.230453
0.230377
0.224057
0.224184
0.224566
0.225177
0.225889
0.226726
0.227789
0.228989
0.230213
0.231308
0.231982
0.23212
0.231871
0.231453
0.230998
0.230544
0.230092
0.229713
0.22952
0.229471
0.221231
0.2213
0.221585
0.222096
0.222727
0.223389
0.224352
0.225443
0.22663
0.227833
0.228735
0.229175
0.229254
0.229083
0.228988
0.228707
0.228398
0.228141
0.228035
0.228011
0.21802
0.218057
0.218271
0.218694
0.219235
0.219971
0.220823
0.221892
0.223158
0.224544
0.225729
0.226469
0.22685
0.227033
0.226895
0.226852
0.226704
0.226572
0.226532
0.226521
0.214537
0.214564
0.214732
0.215083
0.21558
0.216244
0.217112
0.218234
0.219632
0.221271
0.222805
0.223901
0.224595
0.225001
0.225202
0.225268
0.225249
0.225218
0.225218
0.225209
0.210679
0.210706
0.210855
0.211166
0.211643
0.212322
0.213262
0.214523
0.216154
0.218152
0.220117
0.221604
0.222615
0.223274
0.223673
0.2239
0.224014
0.224073
0.224102
0.224094
0.206349
0.206373
0.206531
0.206844
0.207346
0.20809
0.209157
0.210633
0.212595
0.215063
0.217562
0.219518
0.220893
0.22183
0.222442
0.222824
0.223053
0.223183
0.223236
0.223226
0.201462
0.201486
0.201664
0.202023
0.202599
0.203469
0.20474
0.206527
0.208937
0.212014
0.215175
0.21769
0.219509
0.220751
0.221583
0.22212
0.222456
0.222647
0.222722
0.222711
0.195915
0.195945
0.196161
0.19659
0.197287
0.198348
0.199908
0.202119
0.205122
0.208981
0.212979
0.216186
0.218497
0.220104
0.221186
0.221894
0.222339
0.222594
0.222692
0.222679
0.18955
0.189587
0.189858
0.190394
0.191265
0.192594
0.194548
0.197321
0.201095
0.205952
0.210988
0.21503
0.217955
0.219994
0.22137
0.222273
0.222843
0.223169
0.223294
0.223278
0.182158
0.182207
0.182557
0.18324
0.18435
0.186042
0.18852
0.19203
0.196799
0.20292
0.20925
0.214322
0.217992
0.220551
0.22228
0.223414
0.22413
0.224539
0.224696
0.224676
0.173441
0.173504
0.173953
0.174843
0.176293
0.178474
0.181646
0.18612
0.192171
0.19989
0.207828
0.214165
0.218742
0.221932
0.22409
0.225504
0.226394
0.2269
0.227095
0.227071
0.162997
0.16308
0.163671
0.164841
0.166735
0.169563
0.173675
0.179438
0.18714
0.196875
0.206801
0.214684
0.220366
0.224325
0.227006
0.228764
0.229867
0.230491
0.23073
0.230699
0.150276
0.150391
0.151177
0.152738
0.155252
0.158991
0.164363
0.171796
0.181632
0.193901
0.206269
0.216028
0.223048
0.227944
0.231266
0.233451
0.234825
0.235602
0.235895
0.235848
0.134497
0.134662
0.135727
0.137858
0.141259
0.146247
0.153336
0.163027
0.175617
0.191038
0.206363
0.21837
0.226998
0.233029
0.237139
0.239858
0.241571
0.242523
0.242885
0.242828
0.114478
0.114717
0.116223
0.119237
0.123956
0.130776
0.14031
0.153026
0.169132
0.188411
0.207249
0.221902
0.232438
0.23984
0.244923
0.248322
0.25049
0.251702
0.25214
0.252063
0.0883204
0.0886875
0.0909695
0.0954863
0.102319
0.11195
0.124973
0.141742
0.162292
0.186201
0.209113
0.226804
0.239562
0.248612
0.25491
0.259186
0.261961
0.263533
0.264103
0.264
0.0528298
0.0535033
0.0573679
0.0646905
0.0751182
0.0891369
0.107152
0.129285
0.155319
0.184626
0.212117
0.233193
0.248473
0.259475
0.267304
0.272766
0.276413
0.278514
0.27927
0.279128
0.00178225
0.00380212
0.0117265
0.0247732
0.0415278
0.0622967
0.0872109
0.116124
0.148619
0.183956
0.216385
0.241082
0.259115
0.272348
0.282059
0.289134
0.294116
0.297177
0.298311
0.298109
-0.0751261
-0.0646949
-0.0465088
-0.0231683
0.00313075
0.0329002
0.06622
0.102911
0.142564
0.184488
0.22232
0.251081
0.272349
0.28836
0.300596
0.310083
0.317383
0.322411
0.324691
0.324938
-0.157042
-0.133907
-0.10505
-0.0714289
-0.035404
0.00342701
0.0451777
0.0897896
0.136974
0.186192
0.230439
0.264318
0.289802
0.309495
0.325102
0.337749
0.348025
0.356908
0.361555
0.361952
-0.220254
-0.195019
-0.157797
-0.116025
-0.0715443
-0.0244299
0.0252857
0.0774768
0.131857
0.187921
0.237977
0.276246
0.30509
0.327476
0.34527
0.359682
0.371336
0.380791
0.385073
0.385729
-0.271248
-0.2439
-0.202173
-0.154523
-0.103595
-0.0497406
0.00681375
0.0657559
0.126673
0.188969
0.244123
0.285904
0.317085
0.340985
0.3597
0.374644
0.386655
0.395967
0.400491
0.401138
-0.312406
-0.284507
-0.239352
-0.18739
-0.131565
-0.0723615
-0.0101345
0.0546436
0.121364
0.189202
0.248785
0.293468
0.326406
0.35132
0.370569
0.385707
0.3977
0.40679
0.411481
0.412141
-0.347203
-0.319039
-0.271602
-0.216206
-0.15638
-0.0927125
-0.0256721
0.0441707
0.116071
0.18901
0.252701
0.299977
0.334394
0.360075
0.379626
0.39478
0.406654
0.41552
0.420211
0.420883
-0.377668
-0.349476
-0.300235
-0.242102
-0.178961
-0.111496
-0.0402465
0.0341394
0.110786
0.188439
0.255934
0.305628
0.341426
0.367816
0.38767
0.40288
0.414678
0.423354
0.427999
0.428692
-0.405287
-0.377053
-0.326368
-0.265966
-0.200027
-0.129288
-0.0543233
0.0241348
0.105115
0.187239
0.258518
0.310703
0.34796
0.37514
0.39536
0.410684
0.422446
0.431
0.435543
0.436254
-0.430852
-0.402506
-0.350696
-0.288349
-0.220015
-0.14645
-0.0682363
0.0139019
0.0989757
0.185476
0.260594
0.31541
0.354277
0.382373
0.40306
0.41857
0.430346
0.438813
0.443224
0.444002
-0.455072
-0.426546
-0.373726
-0.309701
-0.239302
-0.163261
-0.0821264
0.00338856
0.0923018
0.183055
0.262111
0.31979
0.360503
0.389709
0.411004
0.426797
0.43865
0.447066
0.451338
0.452137
-0.478179
-0.449447
-0.395719
-0.330328
-0.258093
-0.179863
-0.0961382
-0.00756885
0.0849292
0.179869
0.263003
0.323823
0.366686
0.397245
0.419329
0.435527
0.447528
0.455919
0.460051
0.460817
-0.500526
-0.471472
-0.416966
-0.350387
-0.276562
-0.196429
-0.110406
-0.0190602
0.0767981
0.17581
0.263155
0.327419
0.372786
0.405011
0.42811
0.444869
0.457125
0.465549
0.469529
0.470215
-0.522139
-0.492792
-0.43772
-0.369967
-0.294772
-0.212985
-0.124933
-0.0310965
0.0678568
0.170782
0.262419
0.330433
0.378698
0.412962
0.437366
0.454881
0.46751
0.476018
0.479882
0.480405
-0.543101
-0.513429
-0.457841
-0.389094
-0.312728
-0.229511
-0.139706
-0.0436757
0.0580888
0.164725
0.260652
0.332675
0.384236
0.42097
0.447026
0.465548
0.478698
0.487363
0.491143
0.49146
-0.563477
-0.533472
-0.477362
-0.407782
-0.330432
-0.245996
-0.15469
-0.0567539
0.047519
0.157594
0.257721
0.333924
0.389139
0.4288
0.456948
0.476792
0.490668
0.499551
0.50324
0.503344
-0.583311
-0.552944
-0.496307
-0.426009
-0.347822
-0.262378
-0.169813
-0.0702639
0.0361901
0.149366
0.253503
0.333926
0.393101
0.436191
0.466988
0.488535
0.503319
0.512448
0.515953
0.515872
-0.602434
-0.571741
-0.514611
-0.443733
-0.364844
-0.278573
-0.184997
-0.0841148
0.0241817
0.140088
0.247901
0.332455
0.395804
0.442827
0.476916
0.500726
0.516632
0.525942
0.529132
0.528822
-0.620841
-0.589828
-0.532276
-0.460889
-0.381437
-0.294515
-0.20014
-0.0982081
0.0115967
0.129814
0.240901
0.329325
0.396844
0.448163
0.486308
0.51329
0.530721
0.539882
0.542381
0.541814
-0.638557
-0.607164
-0.549271
-0.477445
-0.397537
-0.310121
-0.21515
-0.112427
-0.00144653
0.118642
0.232509
0.324417
0.395829
0.451508
0.49446
0.52601
0.546174
0.55479
0.5553
0.554315
-0.655449
-0.623783
-0.565537
-0.49334
-0.41309
-0.325315
-0.229931
-0.126656
-0.014813
0.106712
0.222789
0.317665
0.392509
0.452107
0.500224
0.538024
0.563655
0.573208
0.569169
0.566229
-0.671605
-0.639628
-0.581098
-0.508595
-0.428128
-0.340145
-0.244542
-0.140955
-0.0285722
0.0939661
0.211665
0.308829
0.386625
0.449247
0.501835
0.547002
0.581941
0.600016
0.59479
0.570995
-0.68699
-0.654744
-0.596058
-0.523378
-0.442914
-0.354914
-0.259372
-0.15579
-0.04326
0.0797404
0.198428
0.297103
0.377328
0.441743
0.496086
0.547008
0.589542
0.609555
0.59696
0.568861
-0.70149
-0.66931
-0.610257
-0.537443
-0.457176
-0.369292
-0.274193
-0.170832
-0.058541
0.0643773
0.183323
0.282429
0.364206
0.429532
0.47926
0.52824
0.563842
0.570823
0.504628
0.459211
-0.714495
-0.683932
-0.623258
-0.550226
-0.470296
-0.382861
-0.288736
-0.185874
-0.0741962
0.0480628
0.166393
0.264862
0.346799
0.413518
0.45355
0.480427
0.501199
0.461584
0.384511
0.333415
-0.766763
-0.695296
-0.634962
-0.563188
-0.483625
-0.396904
-0.303096
-0.201162
-0.0905299
0.0304455
0.147279
0.244098
0.32351
0.394437
0.409538
0.410415
0.382391
0.314435
0.224931
0.175311
-0.723029
-0.709297
-0.651185
-0.581664
-0.502465
-0.416658
-0.324457
-0.224042
-0.115377
0.0029564
0.116035
0.2085
0.280672
0.337449
0.34359
0.216243
0.093618
0.00898048
-0.0794149
-0.0305141
-0.749793
-0.722868
-0.665641
-0.595665
-0.517251
-0.43216
-0.340333
-0.241191
-0.134225
-0.0183119
0.091143
0.178786
0.243847
0.27342
0.214735
0.0366899
-0.127656
-0.243522
-0.369216
-0.290548
-0.769466
-0.73884
-0.681769
-0.611291
-0.533345
-0.448847
-0.357754
-0.260116
-0.155188
-0.0422447
0.0629686
0.144589
0.199958
0.202738
0.0729975
-0.167326
-0.373219
-0.531351
-0.712467
-0.640366
-0.787809
-0.755758
-0.697851
-0.626972
-0.549265
-0.465375
-0.375397
-0.279389
-0.17667
-0.0670705
0.0332721
0.10854
0.152256
0.11544
-0.095312
-0.378422
-0.647008
-0.885406
-1.1524
-1.12606
-0.804606
-0.772624
-0.714154
-0.643026
-0.56557
-0.482378
-0.393657
-0.299372
-0.19907
-0.0931051
0.00192108
0.0704498
0.0976713
0.0129152
-0.259724
-0.577208
-0.905318
-1.20439
-1.56132
-1.93585
-0.820916
-0.789372
-0.730837
-0.659706
-0.582535
-0.500061
-0.412588
-0.320088
-0.222357
-0.120129
-0.0307716
0.0302775
0.0413579
-0.0947254
-0.408433
-0.738077
-1.07579
-1.36404
-1.49488
-1.70119
-0.837362
-0.806252
-0.748031
-0.677142
-0.600404
-0.518799
-0.432713
-0.342271
-0.24743
-0.14951
-0.0664322
-0.0141228
-0.0224428
-0.223024
-0.540166
-0.860408
-1.14851
-1.32927
-1.36426
-1.40044
-0.854178
-0.823503
-0.765652
-0.695229
-0.619102
-0.538574
-0.454188
-0.366178
-0.274668
-0.181634
-0.105592
-0.062929
-0.100933
-0.351521
-0.655911
-0.959196
-1.20871
-1.30166
-1.32316
-1.32904
-0.871485
-0.841128
-0.783621
-0.713748
-0.638393
-0.559181
-0.476804
-0.391649
-0.304033
-0.21646
-0.147961
-0.11661
-0.188365
-0.473687
-0.760148
-1.04666
-1.29745
-1.34154
-1.31718
-1.30815
-0.889027
-0.858942
-0.801775
-0.732469
-0.658017
-0.58036
-0.500328
-0.418505
-0.335282
-0.253627
-0.193676
-0.17608
-0.282176
-0.594739
-0.855067
-1.08267
-1.31156
-1.3105
-1.28294
-1.27157
-0.906464
-0.876589
-0.819769
-0.751025
-0.677658
-0.601782
-0.524495
-0.446612
-0.368382
-0.292993
-0.242463
-0.239211
-0.388694
-0.72117
-0.939161
-1.01394
-1.07874
-1.18756
-1.22951
-1.23669
-0.923052
-0.893578
-0.837218
-0.768925
-0.696719
-0.622884
-0.548794
-0.475289
-0.40271
-0.333667
-0.29314
-0.303301
-0.518141
-0.882515
-1.09138
-1.00969
-1.04199
-1.2172
-1.30489
-1.32683
-0.93818
-0.90888
-0.853038
-0.785439
-0.714461
-0.642886
-0.572416
-0.504202
-0.437899
-0.375438
-0.343175
-0.369174
-0.666967
-1.14244
-1.54331
-1.58905
-1.52387
-1.56032
-1.60323
-1.62263
-0.951016
-0.92199
-0.866506
-0.799484
-0.729904
-0.660889
-0.594667
-0.532516
-0.473505
-0.418173
-0.391059
-0.434975
-0.806878
-1.46724
-2.16186
-2.5442
-2.31492
-2.12809
-2.05944
-2.05504
-0.960171
-0.931529
-0.87641
-0.809999
-0.741953
-0.675795
-0.614397
-0.559867
-0.511051
-0.462558
-0.434189
-0.503793
-0.902235
-1.60131
-2.36943
-2.90418
-2.8671
-2.68424
-2.52137
-2.4798
-0.964229
-0.93606
-0.881366
-0.815671
-0.749271
-0.68622
-0.630334
-0.585345
-0.551279
-0.51516
-0.483952
-0.564945
-0.916412
-1.53091
-2.23125
-2.84225
-3.06546
-2.99891
-2.77809
-2.64281
-0.96177
-0.934036
-0.879886
-0.815044
-0.750426
-0.690702
-0.641301
-0.608981
-0.598831
-0.594076
-0.570258
-0.609461
-0.865511
-1.27967
-1.72484
-2.16296
-2.39222
-2.38146
-2.20475
-2.091
-0.951459
-0.924116
-0.870305
-0.806712
-0.743974
-0.687713
-0.645708
-0.630046
-0.658461
-0.735775
-0.774565
-0.740915
-0.733575
-0.789929
-0.81775
-0.858836
-0.82694
-0.715405
-0.554785
-0.460717
-0.931168
-0.904635
-0.851044
-0.789452
-0.7286
-0.675639
-0.641211
-0.646491
-0.737476
-0.993463
-1.21466
-0.975763
-0.634066
-0.232851
0.24918
0.66822
0.975647
1.17632
1.29477
1.34471
-0.900147
-0.873913
-0.823042
-0.762448
-0.703229
-0.652687
-0.624578
-0.651506
-0.827054
-1.37182
-1.90939
-1.33722
-0.603047
0.188252
0.931558
1.52169
1.94824
2.14998
2.23277
2.25675
-0.857917
-0.832401
-0.783356
-0.724786
-0.666855
-0.617206
-0.591376
-0.627951
-0.86177
-1.63469
-2.47648
-1.61453
-0.591569
0.357701
1.12143
1.64366
1.97185
2.11878
2.17847
2.19277
-0.803556
-0.779062
-0.732623
-0.676204
-0.619149
-0.568149
-0.537079
-0.560705
-0.756078
-1.39144
-1.97122
-1.19338
-0.313401
0.49409
1.06247
1.41681
1.62099
1.72716
1.78216
1.78902
-0.736125
-0.713783
-0.670721
-0.617198
-0.561169
-0.507547
-0.465478
-0.457024
-0.541172
-0.814551
-0.920136
-0.422455
0.155985
0.644084
0.966993
1.17133
1.29788
1.37724
1.41468
1.41949
-0.658052
-0.637575
-0.599254
-0.549578
-0.495514
-0.440151
-0.387794
-0.346961
-0.3329
-0.341043
-0.246721
0.0805312
0.418958
0.667024
0.841863
0.962817
1.04676
1.10309
1.1346
1.14452
-0.570616
-0.556394
-0.520818
-0.475662
-0.425245
-0.370707
-0.313005
-0.253268
-0.189726
-0.103466
0.0444971
0.250484
0.443201
0.582952
0.685419
0.761274
0.818127
0.857964
0.879968
0.886158
-0.462237
-0.454965
-0.429766
-0.393387
-0.350823
-0.302437
-0.247742
-0.185745
-0.112273
-0.0136949
0.119087
0.266359
0.395945
0.492939
0.563947
0.614991
0.651487
0.677888
0.693663
0.696431
-0.357235
-0.353882
-0.336554
-0.309434
-0.276402
-0.23706
-0.190164
-0.133917
-0.0642578
0.0277284
0.139651
0.24995
0.342428
0.411965
0.461879
0.496642
0.520068
0.534568
0.541539
0.543134
-0.258421
-0.256705
-0.246473
-0.228108
-0.204414
-0.174684
-0.137351
-0.0902363
-0.029791
0.0497326
0.141205
0.225207
0.292749
0.342753
0.377808
0.4012
0.415913
0.424417
0.428301
0.428623
-0.168061
-0.167793
-0.16264
-0.152281
-0.137407
-0.117023
-0.0893683
-0.052248
-0.00289223
0.0623225
0.135532
0.200098
0.250345
0.286653
0.311408
0.327268
0.336609
0.341482
0.343353
0.343275
-0.0919979
-0.0925694
-0.0917534
-0.0881028
-0.0804738
-0.0677154
-0.0483862
-0.0205368
0.0181717
0.0701111
0.127707
0.177133
0.214562
0.241035
0.258506
0.269191
0.275134
0.277915
0.278813
0.278616
-0.0361131
-0.0370053
-0.0384745
-0.038768
-0.0360821
-0.0289908
-0.0160438
0.00429733
0.033798
0.0740836
0.118593
0.156239
0.184189
0.203437
0.215861
0.223281
0.22713
0.228709
0.229126
0.228905
0.000798824
-4.28093e-05
-0.00207055
-0.00376876
-0.00348829
3.24678e-05
0.008246
0.0226844
0.0447771
0.0756163
0.109678
0.138094
0.158878
0.173062
0.181999
0.187044
0.189471
0.190299
0.190423
0.190215
0.0234136
0.0227776
0.0210147
0.0192538
0.018863
0.0208137
0.0261533
0.0362152
0.0524051
0.075624
0.10147
0.12296
0.138462
0.14872
0.154959
0.158378
0.159871
0.160203
0.160148
0.159969
0.0367222
0.0362955
0.0350466
0.033675
0.0331674
0.0343306
0.0380819
0.0454001
0.0573275
0.0746653
0.094054
0.110018
0.121352
0.128803
0.133284
0.135598
0.136466
0.136515
0.136383
0.136239
0.0444813
0.0442026
0.0433848
0.0424484
0.0420679
0.0427983
0.0453467
0.0505963
0.0594074
0.0723263
0.086788
0.0987032
0.107136
0.112581
0.115734
0.117289
0.117794
0.117724
0.117582
0.117469
0.0488665
0.0486781
0.0481293
0.0474901
0.0472431
0.0478018
0.0496694
0.0534712
0.0599113
0.0694934
0.0802784
0.0890989
0.0952514
0.0991594
0.101386
0.102436
0.102717
0.102598
0.102465
0.102374
0.0508991
0.0507658
0.0503632
0.049884
0.0496856
0.0500682
0.0514187
0.0542194
0.0589764
0.0660494
0.0740056
0.0804987
0.0850119
0.0878517
0.0894311
0.0901396
0.0902891
0.0901597
0.0900429
0.0899709
0.0511201
0.0510247
0.0507243
0.0503589
0.0502005
0.0504679
0.0514386
0.0534696
0.0569584
0.0621822
0.0680667
0.0728475
0.0761389
0.0781783
0.0792878
0.0797591
0.0798248
0.0796965
0.0795964
0.0795393
0.0499624
0.0498929
0.0496705
0.0493939
0.0492681
0.0494558
0.0501628
0.0516518
0.0542115
0.0580492
0.0623699
0.0658682
0.0682588
0.0697226
0.0705
0.0708091
0.0708231
0.0707034
0.0706189
0.0705737
0.0477877
0.0477355
0.047572
0.0473661
0.047269
0.0473999
0.04791
0.0489934
0.0508679
0.0536842
0.0568529
0.0594077
0.0611401
0.0621865
0.0627273
0.0629256
0.0629108
0.0628049
0.0627348
0.0626989
0.0448808
0.0448407
0.0447201
0.0445682
0.0444949
0.0445875
0.0449564
0.0457459
0.0471143
0.0491742
0.0514887
0.0533462
0.054595
0.0553389
0.0557124
0.0558365
0.055807
0.0557153
0.0556572
0.0556287
0.0414468
0.0414156
0.0413249
0.0412112
0.0411544
0.041218
0.0414832
0.0420552
0.0430512
0.0445528
0.0462375
0.0475823
0.0484784
0.0490039
0.0492591
0.0493334
0.0492978
0.0492203
0.0491724
0.0491497
0.0376288
0.0376042
0.0375346
0.0374475
0.0374014
0.0374429
0.0376314
0.038044
0.0387655
0.0398547
0.041075
0.0420436
0.0426831
0.0430516
0.0432233
0.0432644
0.0432268
0.0431613
0.043122
0.043104
0.0335276
0.033508
0.0334536
0.0333856
0.0333469
0.0333719
0.0335036
0.0337976
0.0343158
0.035101
0.0359799
0.0366742
0.0371272
0.0373825
0.0374949
0.0375135
0.0374764
0.0374214
0.0373892
0.0373751
0.0292174
0.0292019
0.0291588
0.0291045
0.0290708
0.029083
0.0291721
0.0293787
0.029748
0.0303097
0.0309372
0.0314297
0.0317474
0.0319218
0.0319932
0.0319974
0.0319626
0.0319165
0.0318903
0.0318792
0.0247528
0.0247405
0.0247062
0.0246621
0.0246323
0.0246351
0.024693
0.0248354
0.0250946
0.0254914
0.0259341
0.026279
0.026498
0.0266143
0.0266575
0.026653
0.0266213
0.026583
0.0265617
0.0265531
0.0201741
0.0201643
0.0201369
0.0201012
0.0200751
0.0200718
0.0201076
0.0202032
0.0203811
0.0206556
0.0209623
0.0211994
0.021347
0.0214218
0.021445
0.0214349
0.0214064
0.0213749
0.0213577
0.021351
0.0155117
0.0155041
0.0154826
0.0154537
0.015431
0.0154239
0.0154437
0.0155047
0.015622
0.0158057
0.0160109
0.0161684
0.0162644
0.0163103
0.0163205
0.016308
0.0162831
0.0162573
0.0162436
0.0162385
0.0107878
0.0107823
0.0107654
0.0107424
0.0107236
0.0107154
0.0107247
0.0107607
0.010833
0.0109477
0.0110761
0.0111732
0.0112306
0.0112557
0.011258
0.0112458
0.0112255
0.011205
0.0111946
0.0111911
0.00601668
0.0060128
0.00600097
0.00598551
0.00597316
0.00596695
0.00597022
0.00598805
0.00602561
0.00608515
0.0061517
0.00620128
0.00622978
0.00624129
0.0062405
0.00623154
0.00621746
0.00620297
0.00619545
0.00619307
0.00121134
0.0012111
0.00121014
0.00120552
0.00120073
0.00119753
0.0011965
0.00119801
0.00120258
0.00121106
0.00122286
0.00123387
0.001241
0.00124463
0.00124525
0.00124326
0.00123929
0.00123419
0.00123102
0.00123078
-0.822939
-0.570808
-0.288514
-0.0615318
0.122328
0.271249
0.398038
0.505407
0.555873
0.533167
-0.371992
-0.202297
-0.0268177
0.12338
0.250872
0.358201
0.446047
0.509289
0.542457
0.55326
-0.0689864
0.042284
0.15856
0.26191
0.351144
0.426168
0.485927
0.529613
0.559912
0.576634
0.139698
0.215434
0.296732
0.369778
0.433443
0.48734
0.531252
0.565636
0.592368
0.609865
0.295423
0.34978
0.406902
0.46098
0.508621
0.549851
0.584631
0.612986
0.635793
0.653149
0.418556
0.458246
0.502883
0.545241
0.583562
0.617487
0.646743
0.67092
0.690357
0.707473
0.52217
0.554788
0.593485
0.629708
0.663243
0.693381
0.719482
0.740907
0.757479
0.774489
0.617723
0.649381
0.686318
0.720916
0.752742
0.781203
0.805564
0.82515
0.839264
0.856321
0.717383
0.752096
0.790523
0.825688
0.857102
0.884455
0.907363
0.925343
0.937741
0.955198
0.835019
0.873813
0.913492
0.948689
0.978891
1.00436
1.02533
1.04169
1.05352
1.07167
0.981549
1.02064
1.05742
1.08867
1.11488
1.13745
1.15689
1.17274
1.18541
1.20347
1.15764
1.18958
1.21614
1.23895
1.25924
1.27824
1.29618
1.31283
1.32833
1.34646
1.34686
1.36422
1.37947
1.39594
1.41203
1.42669
1.44003
1.45409
1.47173
1.49193
1.52886
1.53852
1.55018
1.56106
1.57043
1.58016
1.59109
1.60252
1.61394
1.62933
1.7364
1.74008
1.72517
1.7104
1.70425
1.71
1.72852
1.75889
1.79109
1.81776
2.04271
1.90785
1.83134
1.78913
1.77169
1.77568
1.80312
1.85953
1.96218
2.18656
0.327046
0.324974
0.32048
0.311948
0.299865
0.287908
0.277859
0.270128
0.264628
0.261387
0.260875
0.263277
0.267996
0.274843
0.283894
0.295141
0.307548
0.318401
0.324465
0.327445
0.251287
0.257164
0.26361
0.268272
0.27092
0.270777
0.268241
0.264643
0.261289
0.259044
0.258712
0.260569
0.263806
0.26766
0.27108
0.272648
0.271445
0.26771
0.262342
0.255649
0.242507
0.244815
0.248418
0.251715
0.254098
0.255888
0.25692
0.256823
0.25591
0.255001
0.254972
0.256052
0.257457
0.258315
0.258036
0.256705
0.25474
0.252012
0.248425
0.245366
0.236831
0.237891
0.239996
0.24282
0.245263
0.247019
0.248273
0.249203
0.249772
0.250069
0.250362
0.25067
0.250722
0.250299
0.249443
0.248132
0.246145
0.243507
0.240953
0.23943
0.231579
0.232129
0.233681
0.236215
0.238781
0.241123
0.242967
0.244229
0.245092
0.245687
0.246113
0.24633
0.246141
0.245486
0.244217
0.242278
0.239929
0.237425
0.235308
0.234384
0.228175
0.228389
0.229467
0.231443
0.23349
0.235366
0.23713
0.238747
0.240065
0.241041
0.241625
0.241682
0.241205
0.240208
0.23885
0.23728
0.235462
0.233499
0.231905
0.231402
0.226734
0.226838
0.227447
0.228634
0.23
0.231404
0.232832
0.234183
0.235424
0.236482
0.237183
0.237341
0.236998
0.236293
0.235336
0.23417
0.232979
0.231812
0.230927
0.230662
0.22517
0.225226
0.225547
0.226205
0.227031
0.228057
0.229259
0.23057
0.231851
0.233005
0.233847
0.234138
0.233916
0.233351
0.232578
0.231879
0.231221
0.230601
0.230173
0.230038
0.222717
0.222747
0.222941
0.223381
0.223985
0.224649
0.225483
0.226524
0.227684
0.228862
0.22986
0.230399
0.230497
0.230328
0.230063
0.229773
0.229426
0.229082
0.228856
0.22879
0.219658
0.219663
0.219796
0.220157
0.220652
0.221327
0.222225
0.223174
0.224326
0.225599
0.226801
0.227618
0.228001
0.228097
0.227984
0.227843
0.227658
0.22742
0.227286
0.227259
0.216319
0.216319
0.216417
0.216709
0.217169
0.217758
0.21851
0.219477
0.220682
0.222105
0.223579
0.224731
0.225442
0.225841
0.226035
0.226052
0.225999
0.225902
0.225854
0.225849
0.212664
0.212665
0.212741
0.212986
0.213392
0.213961
0.214737
0.215773
0.217114
0.218776
0.220608
0.222151
0.223205
0.223876
0.22428
0.224493
0.224584
0.22461
0.224628
0.224633
0.208581
0.208576
0.208662
0.208888
0.20928
0.209866
0.210706
0.211873
0.213438
0.215444
0.217733
0.219747
0.221185
0.222159
0.222793
0.223188
0.22342
0.22355
0.223619
0.223634
0.203982
0.203975
0.204069
0.204321
0.204745
0.205401
0.206367
0.207743
0.209628
0.212093
0.214966
0.21755
0.219421
0.220752
0.22164
0.222217
0.222579
0.222796
0.222906
0.22293
0.198784
0.198774
0.198886
0.199177
0.199679
0.200459
0.201623
0.203299
0.205621
0.208689
0.212303
0.215587
0.218025
0.219728
0.220893
0.221665
0.222159
0.22246
0.222611
0.222643
0.19285
0.192837
0.192977
0.193336
0.193954
0.194917
0.196357
0.198443
0.201345
0.205193
0.209743
0.213895
0.216975
0.219155
0.220649
0.221643
0.222284
0.222676
0.222872
0.222913
0.185999
0.185981
0.186161
0.186614
0.187396
0.188609
0.190425
0.193057
0.196719
0.201569
0.207299
0.212524
0.216398
0.219145
0.22103
0.222287
0.223102
0.223602
0.22385
0.223901
0.177984
0.177962
0.178198
0.17879
0.179787
0.181327
0.183644
0.187001
0.191651
0.197784
0.204995
0.211547
0.216394
0.21983
0.222188
0.223764
0.224789
0.22542
0.225731
0.225794
0.168461
0.168435
0.168747
0.169515
0.170811
0.172811
0.175819
0.180127
0.18605
0.193811
0.202874
0.211059
0.217096
0.22137
0.224304
0.226267
0.22755
0.228343
0.228734
0.228811
0.156963
0.156932
0.157356
0.158379
0.160083
0.162709
0.166615
0.172182
0.179789
0.189636
0.201001
0.211184
0.218666
0.223959
0.227592
0.230027
0.231622
0.232617
0.233109
0.233204
0.142809
0.142772
0.143365
0.144758
0.147045
0.150544
0.155714
0.163002
0.172791
0.185271
0.19947
0.212069
0.221291
0.227815
0.232301
0.235309
0.237283
0.238517
0.239122
0.239244
0.125012
0.124974
0.125841
0.12779
0.13094
0.135726
0.142685
0.152292
0.164945
0.18075
0.198395
0.213874
0.225166
0.233171
0.238701
0.242427
0.244879
0.246423
0.247202
0.247351
0.102094
0.102083
0.103404
0.106225
0.110712
0.117433
0.126967
0.139796
0.156219
0.176161
0.197921
0.216763
0.230475
0.240245
0.24706
0.251701
0.254783
0.256735
0.257723
0.257916
0.0716307
0.0717134
0.073866
0.0782228
0.0849838
0.0947986
0.108188
0.125481
0.146755
0.171715
0.198245
0.220903
0.237372
0.249208
0.257592
0.263416
0.267362
0.269903
0.271184
0.27143
0.0291112
0.0294834
0.0335587
0.041151
0.0521634
0.0671512
0.0862861
0.1096
0.136919
0.167748
0.199608
0.226431
0.245931
0.260112
0.270379
0.277731
0.282888
0.286344
0.288112
0.288424
-0.0336301
-0.0316108
-0.022045
-0.00754605
0.0114035
0.0346199
0.0617912
0.0927678
0.127237
0.164619
0.20217
0.233347
0.256032
0.272753
0.285175
0.29443
0.301264
0.306063
0.308718
0.309057
-0.108559
-0.105219
-0.0875746
-0.0618124
-0.0322874
0.000416831
0.0363506
0.0755057
0.117642
0.16228
0.206505
0.243203
0.270263
0.290711
0.30646
0.31876
0.328506
0.335682
0.338573
0.339923
-0.185533
-0.175645
-0.149438
-0.113552
-0.0745105
-0.0326676
0.0118564
0.059049
0.108772
0.160642
0.21156
0.253752
0.285051
0.309018
0.327857
0.342951
0.355147
0.364604
0.369878
0.372055
-0.243398
-0.232343
-0.201139
-0.158838
-0.112457
-0.063106
-0.011078
0.0434708
0.100263
0.158859
0.215872
0.262812
0.297456
0.323844
0.344422
0.360723
0.373731
0.383788
0.389829
0.392184
-0.289942
-0.278464
-0.243861
-0.196921
-0.145186
-0.0900248
-0.0318636
0.0289412
0.0919625
0.156611
0.219018
0.269895
0.307035
0.334963
0.356456
0.373279
0.386547
0.396727
0.402823
0.405159
-0.328087
-0.316687
-0.280085
-0.2296
-0.173702
-0.113924
-0.0507138
0.0154445
0.083937
0.153984
0.22126
0.275662
0.314916
0.344052
0.366168
0.383232
0.396504
0.406617
0.412698
0.414956
-0.360957
-0.349689
-0.311667
-0.258474
-0.199154
-0.135476
-0.0679675
0.00282662
0.0762094
0.151234
0.223045
0.28066
0.321789
0.351938
0.374523
0.39174
0.404995
0.41504
0.421134
0.423265
-0.390192
-0.379064
-0.34
-0.284602
-0.222487
-0.155527
-0.0842646
-0.00932056
0.0685079
0.148101
0.224169
0.284914
0.327916
0.359105
0.382206
0.399628
0.412922
0.422905
0.429024
0.431056
-0.416944
-0.405903
-0.366034
-0.308787
-0.244306
-0.174523
-0.0999986
-0.0213925
0.0604644
0.144404
0.224708
0.288673
0.333663
0.365998
0.389703
0.407393
0.420771
0.430729
0.436882
0.438812
-0.44197
-0.430971
-0.390361
-0.331539
-0.265056
-0.192852
-0.115481
-0.0335636
0.0520503
0.140153
0.224672
0.291993
0.339168
0.372832
0.397279
0.415339
0.428863
0.43882
0.445006
0.446819
-0.465717
-0.454724
-0.413484
-0.353322
-0.285089
-0.210743
-0.130831
-0.0459371
0.0431324
0.135192
0.223949
0.294849
0.344483
0.379729
0.405111
0.423671
0.437426
0.447465
0.453588
0.455347
-0.488542
-0.477498
-0.435654
-0.374355
-0.304594
-0.228376
-0.146228
-0.0586725
0.033579
0.129432
0.222434
0.297162
0.349588
0.386721
0.41328
0.432508
0.446592
0.456737
0.462831
0.464554
-0.510637
-0.499451
-0.457013
-0.394819
-0.323691
-0.245869
-0.161759
-0.071812
0.0233542
0.122805
0.220027
0.298804
0.35438
0.393755
0.421789
0.441903
0.456466
0.466808
0.472869
0.474575
-0.532022
-0.520677
-0.477772
-0.414735
-0.34243
-0.263215
-0.1774
-0.0853548
0.012437
0.115238
0.21662
0.299617
0.358689
0.400707
0.430575
0.451849
0.467082
0.477728
0.483787
0.48545
-0.552832
-0.541274
-0.497971
-0.434105
-0.360823
-0.280417
-0.193143
-0.0992774
0.000840798
0.10672
0.212093
0.299404
0.362296
0.407421
0.439559
0.462315
0.478418
0.489487
0.495586
0.497126
-0.572989
-0.561243
-0.517562
-0.452965
-0.378851
-0.297439
-0.208929
-0.11352
-0.0113812
0.0972536
0.206374
0.297976
0.364942
0.413659
0.448562
0.473205
0.49042
0.502016
0.50817
0.509537
-0.592546
-0.580574
-0.53649
-0.471282
-0.396466
-0.314216
-0.224689
-0.127995
-0.0241492
0.0868865
0.199434
0.295184
0.366325
0.418995
0.457242
0.484328
0.503006
0.515204
0.521336
0.522475
-0.611324
-0.599238
-0.554718
-0.489008
-0.4136
-0.33067
-0.240343
-0.142615
-0.0373702
0.0757018
0.191257
0.29089
0.366137
0.422953
0.465196
0.495525
0.516195
0.529009
0.534845
0.535628
-0.629452
-0.617168
-0.572261
-0.506112
-0.430218
-0.346752
-0.255798
-0.157285
-0.0509374
0.0638033
0.181902
0.284982
0.364132
0.425121
0.471852
0.506464
0.530156
0.543721
0.548528
0.548533
-0.646786
-0.634297
-0.589085
-0.522546
-0.446245
-0.36238
-0.270968
-0.171883
-0.064725
0.0512918
0.17147
0.277459
0.36011
0.425022
0.476394
0.516383
0.545008
0.560587
0.563038
0.560522
-0.663378
-0.650734
-0.605145
-0.538263
-0.461641
-0.377492
-0.285774
-0.186324
-0.0786076
0.0383339
0.160087
0.268363
0.353992
0.422205
0.477647
0.523593
0.559696
0.581442
0.583502
0.571999
-0.679165
-0.666389
-0.620529
-0.553389
-0.476594
-0.392351
-0.300536
-0.201005