/*--------------------------------*- C++ -*----------------------------------*\
| =========                 |                                                 |
| \\      /  F ield         | OpenFOAM: The Open Source CFD Toolbox           |
|  \\    /   O peration     | Version:  2112                                  |
|   \\  /    A nd           | Website:  www.openfoam.com                      |
|    \\/     M anipulation  |                                                 |
\*---------------------------------------------------------------------------*/
FoamFile
{
    version     2.0;
    format      ascii;
    arch        "LSB;label=32;scalar=64";
    class       surfaceScalarField;
    location    "11.5";
    object      phi;
}
// * * * * * * * * * * * * * * * * * * * * * * * * * * * * * * * * * * * * * //

dimensions      [0 3 -1 0 0 0 0];

oriented        oriented;

internalField   nonuniform List<scalar> 
17370
(
-0.0915955
0.0960501
0.284556
-0.0776599
0.059494
0.364941
-0.0430748
0.0315751
0.427668
-0.0221872
0.0160726
0.505366
-0.0114476
0.00857713
0.602273
-0.00639737
0.00495859
0.720496
-0.00377568
0.00293779
0.863744
-0.00220458
0.00165745
1.036
-0.00115353
0.000750978
1.24291
-0.00034706
-5.28159e-05
1.49159
0.000444781
-0.000842921
1.49159
0.00124151
-0.0017404
1.24319
0.00228367
-0.00301312
1.03637
0.00384733
-0.00502529
0.864084
0.00645846
-0.0086293
0.721228
0.0114881
-0.0161018
0.603828
0.022207
-0.0315857
0.508818
0.0430764
-0.05949
0.432582
0.0776568
-0.0960475
0.365166
0.0916028
0.197408
-0.12718
0.0881499
0.0390302
-0.364464
0.35412
-0.0713706
0.0817151
-0.446591
0.454294
-0.0792306
0.0715282
-0.521031
0.529103
-0.0636726
0.0556012
-0.613029
0.620811
-0.0482538
0.0404717
-0.727156
0.733808
-0.0337722
0.0271202
-0.867531
0.872434
-0.0218185
0.016915
-1.0385
1.04181
-0.0132031
0.00989161
-1.24465
1.24696
-0.00738674
0.00507265
-1.49278
1.49461
-0.003222
0.00138664
-1.49261
1.49424
0.00024902
-0.0018784
-1.24405
1.24587
0.00370041
-0.00552258
-1.03756
1.04003
0.00780148
-0.0102738
-0.866142
0.86983
0.0135543
-0.0172425
-0.724585
0.72987
0.0221243
-0.0274094
-0.60911
0.615778
0.0340425
-0.0407109
-0.515173
0.522489
0.0484573
-0.0557737
-0.43985
0.447668
0.0638056
-0.0716233
-0.374793
0.377285
0.079275
-0.0817678
-0.257043
0.224677
0.0714108
-0.0390446
-0.0690658
0.0595953
0.00947047
-0.051355
0.0579118
-0.374968
0.368411
-0.05679
0.0526862
-0.453912
0.458016
-0.0470001
0.0423493
-0.527579
0.53223
-0.0377912
0.033946
-0.620818
0.624663
-0.029922
0.0261494
-0.734712
0.738485
-0.0220184
0.018336
-0.873875
0.877557
-0.0145474
0.0113434
-1.04316
1.04636
-0.00811292
0.00533361
-1.24833
1.25111
-0.00235284
-0.000469231
-1.49652
1.49934
0.00327727
-0.00621775
-1.49701
1.49995
0.00896618
-0.0121551
-1.24982
1.25301
0.0153129
-0.0190398
-1.04555
1.04928
0.0226612
-0.026723
-0.877207
0.881268
0.0304424
-0.034421
-0.739119
0.743098
0.0382218
-0.0427261
-0.626055
0.63056
0.0473384
-0.0529889
-0.535012
0.540662
0.057053
-0.0581281
-0.458258
0.459334
0.051511
-0.0315388
-0.337244
0.317272
0.00949866
-0.0689964
0.0594977
-0.0539457
0.0500702
0.00387554
-0.0315883
0.0414988
-0.359263
0.349352
-0.0450134
0.0444583
-0.460004
0.460559
-0.0416122
0.0384371
-0.536366
0.539541
-0.0347873
0.0315225
-0.628319
0.631584
-0.0280092
0.0249338
-0.741662
0.744737
-0.0216787
0.0187296
-0.880752
0.883701
-0.0154535
0.012405
-1.04952
1.05257
-0.00902746
0.0059295
-1.2541
1.2572
-0.00251832
-0.000679183
-1.50245
1.50565
0.00386747
-0.00723669
-1.50318
1.50655
0.0102678
-0.0135588
-1.2563
1.2596
0.0165264
-0.0197137
-1.0527
1.05589
0.0225835
-0.0257608
-0.884608
0.887786
0.0287701
-0.0322034
-0.746712
0.750145
0.0354
-0.0389789
-0.634828
0.638407
0.0420954
-0.0448775
-0.545102
0.547884
0.0453719
-0.0417813
-0.457716
0.454126
0.0317827
-0.0154132
-0.298501
0.282131
0.0039046
-0.0538215
0.0499169
-0.0472215
0.0450108
0.00221076
-0.020367
0.0296008
-0.339578
0.330344
-0.0346578
0.0355058
-0.460202
0.459354
-0.0344958
0.0326596
-0.54181
0.543647
-0.030532
0.0283321
-0.634346
0.636546
-0.0256169
0.0229817
-0.747643
0.750278
-0.0200093
0.0172887
-0.886591
0.889312
-0.0142945
0.0115502
-1.05549
1.05823
-0.00848358
0.00559176
-1.26025
1.26314
-0.00228033
-0.000924367
-1.50888
1.51209
0.00411448
-0.00737568
-1.50993
1.51319
0.0101908
-0.0131488
-1.26276
1.26572
0.0157785
-0.0186373
-1.05894
1.0618
0.0212386
-0.0240887
-0.890879
0.89373
0.0266157
-0.0292321
-0.753219
0.755835
0.0313194
-0.0333448
-0.641152
0.643177
0.0351108
-0.0360444
-0.54946
0.550394
0.0351179
-0.0299494
-0.449467
0.444299
0.0205964
-0.00892824
-0.268218
0.25655
0.00224604
-0.0470335
0.0447875
-0.0433084
0.0421249
0.00118358
-0.0115941
0.0185944
-0.322042
0.315042
-0.0237626
0.0255202
-0.458076
0.456318
-0.0253295
0.0241197
-0.545233
0.546443
-0.0224764
0.0209253
-0.638296
0.639847
-0.0193473
0.0178552
-0.752354
0.753846
-0.0160612
0.014241
-0.891707
0.893528
-0.0120488
0.0098587
-1.06075
1.06294
-0.00728969
0.00476371
-1.26586
1.26838
-0.00175568
-0.00127275
-1.51523
1.51826
0.00425951
-0.00716489
-1.51628
1.51919
0.00957177
-0.0119963
-1.26844
1.27086
0.0140436
-0.0160706
-1.06437
1.0664
0.0177334
-0.0193351
-0.896054
0.897655
0.0206544
-0.0221309
-0.757756
0.759232
0.0235663
-0.0251012
-0.644877
0.646412
0.0261949
-0.0262489
-0.550906
0.55096
0.0243558
-0.0190238
-0.438901
0.433569
0.0118737
-0.00479735
-0.247157
0.240081
0.00122892
-0.0430464
0.0418175
-0.0414179
0.0410454
0.000372518
-0.00513663
0.00949885
-0.309462
0.305099
-0.0138167
0.0160754
-0.454254
0.451995
-0.0167947
0.0166764
-0.547103
0.547221
-0.0162771
0.0158283
-0.64094
0.641389
-0.0150576
0.0141668
-0.755
0.755891
-0.0129609
0.0116702
-0.894921
0.896212
-0.0100188
0.00829024
-1.0648
1.06653
-0.00612278
0.00389909
-1.27071
1.27294
-0.00117764
-0.0015443
-1.52111
1.52383
0.00422972
-0.00685079
-1.52191
1.52453
0.00895098
-0.0109493
-1.27299
1.27499
0.012502
-0.0139554
-1.06796
1.06942
0.0150667
-0.0160865
-0.898834
0.899854
0.0168242
-0.0173529
-0.760325
0.760854
0.0176099
-0.017838
-0.647369
0.647597
0.0178154
-0.0169294
-0.550553
0.549667
0.0145038
-0.00999319
-0.428615
0.424104
0.00546089
-0.00192189
-0.235045
0.231506
0.000424949
-0.0410627
0.0406378
-0.0408672
0.0408027
6.44664e-05
-0.00228106
0.00510315
-0.301635
0.298813
-0.00884414
0.011677
-0.449478
0.446645
-0.0136059
0.0145604
-0.546833
0.545878
-0.014902
0.0149455
-0.641463
0.64142
-0.0146643
0.0140786
-0.7566
0.757186
-0.01315
0.0119989
-0.897428
0.898579
-0.0103759
0.00856528
-1.06827
1.07008
-0.00622751
0.0037987
-1.27521
1.27764
-0.00087565
-0.00199873
-1.52657
1.52944
0.00483578
-0.00762912
-1.52719
1.52998
0.00986578
-0.0119537
-1.277
1.27909
0.0135327
-0.014893
-1.07083
1.07219
0.0158133
-0.0164862
-0.9007
0.901372
0.0168026
-0.016814
-0.760998
0.761009
0.0165733
-0.016028
-0.647358
0.646813
0.0148754
-0.0127343
-0.548174
0.546033
0.00969492
-0.00571958
-0.419916
0.415941
0.00268892
-0.000791923
-0.22896
0.227063
0.000129867
-0.0404005
0.0402706
-0.0407931
0.0407918
1.29055e-06
-0.0012352
0.003239
-0.296451
0.294448
-0.00659553
0.00992002
-0.443521
0.440197
-0.0130012
0.0150656
-0.544374
0.54231
-0.0162261
0.0166308
-0.641224
0.64082
-0.0165462
0.0159797
-0.757686
0.758253
-0.0148961
0.0134906
-0.899814
0.901219
-0.0115357
0.00940315
-1.07203
1.07416
-0.00670577
0.00394234
-1.28024
1.28301
-0.000609217
-0.00267563
-1.53251
1.5358
0.00590253
-0.00904979
-1.53295
1.5361
0.0115603
-0.013925
-1.2813
1.28367
0.015728
-0.0173166
-1.07362
1.07521
0.0183818
-0.0191251
-0.902019
0.902763
0.0193683
-0.0190755
-0.760852
0.760559
0.0184388
-0.0169788
-0.645897
0.644437
0.0146427
-0.0112693
-0.543265
0.539891
0.00767255
-0.00401568
-0.412116
0.408459
0.00174675
-0.000502661
-0.225569
0.224325
8.34703e-05
-0.0401869
0.0401035
-0.0407908
0.0408018
-1.09536e-05
-0.000630281
0.00193397
-0.292785
0.291482
-0.00451771
0.00758664
-0.436873
0.433804
-0.0110208
0.0136623
-0.539845
0.537203
-0.0156876
0.0165329
-0.640323
0.639478
-0.0166111
0.0161867
-0.758716
0.75914
-0.0150629
0.0135844
-0.902707
0.904185
-0.0115156
0.00926678
-1.07642
1.07866
-0.00644061
0.00355284
-1.28588
1.28877
-3.13654e-05
-0.00348125
-1.53925
1.54277
0.00690664
-0.0101999
-1.53938
1.54267
0.0128123
-0.0152454
-1.28613
1.28856
0.0170582
-0.0186209
-1.07685
1.07841
0.019609
-0.0201267
-0.903433
0.903951
0.020136
-0.019764
-0.760295
0.759923
0.0184801
-0.0160611
-0.642429
0.64001
0.0130647
-0.00924631
-0.536129
0.53231
0.0058333
-0.0028812
-0.405085
0.402133
0.00125671
-0.00040341
-0.22328
0.222427
8.95304e-05
-0.0400116
0.0399221
-0.0408326
0.0408828
-5.01858e-05
-5.90509e-05
0.000683393
-0.29054
0.289916
-0.00218197
0.00422527
-0.4312
0.429157
-0.00679918
0.00896116
-0.534695
0.532533
-0.0108177
0.0119239
-0.638306
0.6372
-0.0124281
0.0122777
-0.759532
0.759683
-0.0115818
0.0104857
-0.905525
0.906621
-0.00882317
0.0069257
-1.08078
1.08268
-0.00446203
0.00188961
-1.29155
1.29412
0.00127839
-0.00443242
-1.54617
1.54932
0.00747334
-0.0103352
-1.54582
1.54868
0.0125317
-0.0145113
-1.29083
1.29281
0.0158952
-0.0169421
-1.07978
1.08083
0.0174773
-0.0176136
-0.904411
0.904547
0.0172151
-0.0160456
-0.759052
0.757883
0.0144181
-0.0119986
-0.637438
0.635018
0.00936008
-0.00629558
-0.528757
0.525692
0.00382518
-0.00187234
-0.399681
0.397728
0.000848947
-0.000299994
-0.221744
0.221195
7.57231e-05
-0.0398402
0.0397645
-0.0409521
0.0410381
-8.59567e-05
0.000306149
-0.000170212
-0.289553
0.289417
-0.000464935
0.00149228
-0.427659
0.426632
-0.00292975
0.00424794
-0.530786
0.529468
-0.00547557
0.00627859
-0.63622
0.635417
-0.00675926
0.00682575
-0.759677
0.75961
-0.00648044
0.00579413
-0.90749
0.908176
-0.00464245
0.00324587
-1.08432
1.08572
-0.00135805
-0.000661475
-1.29643
1.29845
0.0031384
-0.00557148
-1.55214
1.55457
0.0078773
-0.00997067
-1.55118
1.55327
0.0114942
-0.0127067
-1.29441
1.29562
0.0134056
-0.0137704
-1.08153
1.08189
0.0137219
-0.0132705
-0.904339
0.903887
0.0124989
-0.0112686
-0.756648
0.755418
0.00982858
-0.00794576
-0.632851
0.630969
0.00606671
-0.00404951
-0.523174
0.521157
0.002512
-0.00132365
-0.396206
0.395018
0.000671325
-0.000270934
-0.220739
0.220338
7.59051e-05
-0.0396908
0.0396149
-0.041138
0.0412505
-0.000112597
0.000590515
-0.000708858
-0.28943
0.289548
0.000628351
-0.000288013
-0.425988
0.425648
-0.000298402
0.000882543
-0.528545
0.527961
-0.00145214
0.00183421
-0.63482
0.634438
-0.00204892
0.00203465
-0.75956
0.759574
-0.00176202
0.00126463
-0.908739
0.909236
-0.00043235
-0.000590734
-1.0869
1.08793
0.0019816
-0.0034635
-1.30018
1.30166
0.00524803
-0.00694955
-1.55662
1.55832
0.00849176
-0.00977909
-1.55494
1.55623
0.0105653
-0.0110805
-1.29649
1.297
0.0112703
-0.0111287
-1.08197
1.08183
0.0107219
-0.0100152
-0.903277
0.902571
0.00915988
-0.00803584
-0.754229
0.753105
0.00687486
-0.00550676
-0.629362
0.627994
0.00424233
-0.00295098
-0.519553
0.518261
0.00197448
-0.00117911
-0.394067
0.393271
0.000677728
-0.000304716
-0.219963
0.21959
9.16786e-05
-0.0395328
0.0394411
-0.041377
0.041516
-0.000138989
0.00079894
-0.0011277
-0.28978
0.290109
0.0013529
-0.00142562
-0.425542
0.425615
0.00138325
-0.0013086
-0.527657
0.527582
0.00125142
-0.00126472
-0.634262
0.634275
0.00138194
-0.00160402
-0.759684
0.759906
0.0019946
-0.0025023
-0.909722
0.91023
0.0032377
-0.00407201
-1.08883
1.08966
0.00515472
-0.00626196
-1.30293
1.30404
0.0075351
-0.00867845
-1.55972
1.56087
0.00962051
-0.0103017
-1.5572
1.55788
0.0106096
-0.0105946
-1.2972
1.29718
0.010341
-0.0098418
-1.0815
1.081
0.0092216
-0.00839309
-0.901797
0.900969
0.0075382
-0.0065306
-0.752047
0.751039
0.00557555
-0.00452586
-0.626812
0.625763
0.0036011
-0.00267059
-0.517189
0.516259
0.00193908
-0.00127929
-0.392568
0.391908
0.000794491
-0.000378108
-0.219202
0.218786
0.000118098
-0.0393373
0.0392192
-0.0416732
0.0418476
-0.000174419
0.00104027
-0.00152182
-0.290513
0.290994
0.00198733
-0.00233306
-0.425827
0.426173
0.00264193
-0.00291122
-0.527692
0.527961
0.00322803
-0.00356166
-0.634457
0.63479
0.00399085
-0.00445339
-0.760248
0.760711
0.00504894
-0.00568139
-0.91079
0.911423
0.00647483
-0.00728399
-1.09047
1.09128
0.00824434
-0.00915029
-1.30503
1.30593
0.0101046
-0.0108593
-1.5618
1.56255
0.0113593
-0.0115446
-1.55829
1.55848
0.0114224
-0.0110783
-1.29701
1.29667
0.0105524
-0.00982275
-1.08038
1.07965
0.00904778
-0.00812657
-0.900093
0.899172
0.00724949
-0.00627789
-0.750062
0.74909
0.00540217
-0.0044754
-0.624796
0.62387
0.00367489
-0.00286178
-0.515411
0.514598
0.00218712
-0.00152049
-0.391258
0.390591
0.000978587
-0.000477343
-0.218331
0.21783
0.000151594
-0.0390854
0.0389338
-0.042047
0.0422672
-0.000220242
0.00133473
-0.00198282
-0.291556
0.292204
0.00265974
-0.00322789
-0.426622
0.427191
0.0038118
-0.00434895
-0.528364
0.528902
0.00496846
-0.00557733
-0.635269
0.635878
0.00629872
-0.00701312
-0.761303
0.762017
0.00785788
-0.00868357
-0.912145
0.912971
0.00963721
-0.0105341
-1.09212
1.09301
0.0115123
-0.0123538
-1.30679
1.30763
0.0131427
-0.0136499
-1.56317
1.56367
0.0138391
-0.0136772
-1.55848
1.55832
0.0132581
-0.0125716
-1.29614
1.29545
0.0117997
-0.0108416
-1.0788
1.07784
0.00990643
-0.00885325
-0.898191
0.897138
0.00789122
-0.00685924
-0.7481
0.747068
0.00595127
-0.00500551
-0.622951
0.622005
0.00419167
-0.00335267
-0.513789
0.51295
0.00262788
-0.00187098
-0.389889
0.389132
0.00122295
-0.000602814
-0.217274
0.216654
0.000192849
-0.0387635
0.0385706
-0.0425203
0.0428019
-0.000281587
0.00171338
-0.0025607
-0.292943
0.29379
0.00347156
-0.00426532
-0.427852
0.428646
0.00510626
-0.00588827
-0.529561
0.530343
0.00678699
-0.00765931
-0.636636
0.637508
0.00867604
-0.00966276
-0.762877
0.763863
0.0107996
-0.0118757
-0.91391
0.914986
0.0130701
-0.0141412
-1.09398
1.09505
0.0152427
-0.016121
-1.30847
1.30935
0.0168528
-0.0172056
-1.56409
1.56444
0.0171579
-0.0166975
-1.558
1.55754
0.0159947
-0.0150063
-1.29461
1.29362
0.0139755
-0.0127619
-1.07676
1.07555
0.0116211
-0.0103704
-0.895988
0.894738
0.00925155
-0.00806896
-0.745969
0.744787
0.00703862
-0.00597052
-0.621017
0.619948
0.0050497
-0.00408986
-0.512071
0.511112
0.00324213
-0.00233238
-0.38831
0.3874
0.00153488
-0.000760086
-0.215964
0.215189
0.000244128
-0.0383561
0.038112
-0.0431247
0.0434903
-0.000365549
0.00221449
-0.00331328
-0.294746
0.295845
0.00450418
-0.00554927
-0.42954
0.430585
0.00665675
-0.00768537
-0.531279
0.532307
0.00886988
-0.0100246
-0.63857
0.639725
0.0113736
-0.0126803
-0.765021
0.766328
0.014174
-0.0155681
-0.916187
0.917582
0.0170853
-0.0184104
-1.0962
1.09752
0.0197233
-0.0207159
-1.31026
1.31125
0.0214664
-0.0217206
-1.56473
1.56498
0.0214713
-0.0207228
-1.55693
1.55619
0.0197266
-0.0184048
-1.29247
1.29115
0.0170743
-0.0155481
-1.07417
1.07265
0.0141406
-0.0126197
-0.893344
0.891823
0.0112732
-0.00985904
-0.74349
0.742076
0.00862998
-0.00735449
-0.618801
0.617526
0.00624968
-0.00508842
-0.510087
0.508926
0.00405178
-0.00292672
-0.386402
0.385277
0.00193199
-0.000959387
-0.214327
0.213355
0.000309456
-0.0378451
0.0375357
-0.0439051
0.0443829
-0.000477769
0.00287284
-0.00429026
-0.297081
0.298498
0.00581928
-0.00714932
-0.431776
0.433106
0.00855608
-0.00986205
-0.533582
0.534888
0.0113764
-0.0128818
-0.641141
0.642646
0.0146626
-0.0163933
-0.76782
0.769551
0.0183561
-0.0201517
-0.919097
0.920893
0.0220547
-0.0236891
-1.09893
1.10056
0.0252833
-0.0264481
-1.31227
1.31343
0.0272649
-0.027443
-1.56517
1.56535
0.0269897
-0.0259248
-1.55527
1.5542
0.0245922
-0.0228771
-1.28962
1.28791
0.0211819
-0.0192651
-1.07091
1.06899
0.0175173
-0.0156461
-0.890096
0.888225
0.0140002
-0.0122778
-0.740488
0.738766
0.0107802
-0.00921936
-0.616141
0.61458
0.00785674
-0.00641062
-0.507695
0.506249
0.00511064
-0.00369412
-0.38405
0.382633
0.00244183
-0.00121538
-0.212282
0.211056
0.000394364
-0.0372083
0.0368139
-0.044923
0.0455493
-0.000626286
0.00373757
-0.00556607
-0.300105
0.301934
0.00752249
-0.00920475
-0.434688
0.43637
0.0109624
-0.0126026
-0.536604
0.538244
0.0145271
-0.0164724
-0.644479
0.646424
0.0188115
-0.0210777
-0.771413
0.773679
0.0236222
-0.0259264
-0.922772
0.925076
0.0283473
-0.0303851
-1.10229
1.10433
0.0323301
-0.0337071
-1.31461
1.31599
0.0346052
-0.034693
-1.56543
1.56552
0.0339947
-0.0325464
-1.55293
1.55148
0.0308024
-0.028603
-1.28594
1.28374
0.026455
-0.0240486
-1.0668
1.06439
0.0218714
-0.0195573
-0.886058
0.883744
0.0175343
-0.015426
-0.736783
0.734674
0.013593
-0.0116736
-0.612867
0.610948
0.00998046
-0.00815861
-0.504751
0.502929
0.00650429
-0.00469412
-0.381129
0.379319
0.00310065
-0.00154443
-0.209728
0.208172
0.000503922
-0.0364179
0.0359139
-0.0462662
0.0470972
-0.000830923
0.00491056
-0.00729586
-0.304035
0.30642
0.00982924
-0.0119836
-0.438456
0.44061
0.0142108
-0.016299
-0.540518
0.542606
0.0187776
-0.0212961
-0.648785
0.651304
0.0243247
-0.027243
-0.776011
0.77893
0.030494
-0.033417
-0.927412
0.930335
0.036464
-0.0389942
-1.10642
1.10895
0.041339
-0.0429383
-1.31735
1.31895
0.0438941
-0.0438362
-1.56547
1.56541
0.0428109
-0.0408737
-1.54976
1.54782
0.0386125
-0.0358057
-1.28122
1.27841
0.0330907
-0.0300689
-1.06162
1.0586
0.0273497
-0.0244765
-0.88102
0.878147
0.0219806
-0.0193956
-0.732172
0.729587
0.0171556
-0.0148075
-0.608795
0.606447
0.0127173
-0.0104337
-0.501087
0.498803
0.00832912
-0.00600002
-0.377488
0.375159
0.00393802
-0.00194826
-0.206542
0.204553
0.000634258
-0.0354374
0.0348031
-0.048056
0.0491975
-0.0011415
0.00663255
-0.00981093
-0.309162
0.312341
0.0131279
-0.015897
-0.443345
0.446114
0.0187257
-0.0214067
-0.545584
0.548265
0.0246373
-0.0279359
-0.654296
0.657594
0.0318559
-0.0355823
-0.781876
0.785602
0.0396814
-0.0433065
-0.933231
0.936856
0.0470276
-0.0500566
-1.11147
1.1145
0.0528017
-0.0546001
-1.3205
1.3223
0.0555518
-0.0552522
-1.56515
1.56485
0.0537786
-0.0512101
-1.54554
1.54297
0.0482969
-0.0447335
-1.27521
1.27164
0.0413139
-0.0375254
-1.05513
1.05134
0.0341261
-0.030545
-0.874741
0.87116
0.0274467
-0.024257
-0.726434
0.723244
0.0215083
-0.018637
-0.603717
0.600845
0.0160696
-0.0132312
-0.496501
0.493662
0.0105704
-0.00759782
-0.37293
0.369958
0.0049908
-0.00245472
-0.202565
0.200029
0.000793501
-0.0342188
0.0334253
-0.0504806
0.0521229
-0.00164237
0.00931563
-0.0136334
-0.315927
0.320244
0.0179878
-0.0215449
-0.449756
0.453313
0.0251576
-0.0286299
-0.55219
0.555662
0.0328544
-0.0371391
-0.661398
0.665682
0.0421499
-0.0468164
-0.789321
0.793988
0.0518584
-0.0562548
-0.940461
0.944857
0.0606979
-0.0642422
-1.11751
1.12105
0.0673542
-0.0692714
-1.32397
1.32588
0.0700842
-0.0693869
-1.56425
1.56356
0.0672962
-0.0639179
-1.53996
1.53659
0.0601974
-0.0557132
-1.2676
1.26312
0.0514417
-0.046725
-1.04702
1.04231
0.0424965
-0.0380403
-0.866941
0.862485
0.0341856
-0.0302268
-0.719315
0.715356
0.0268294
-0.0232997
-0.597397
0.593867
0.0201457
-0.0166448
-0.490751
0.487251
0.0133252
-0.00957142
-0.367192
0.363438
0.00627423
-0.00309149
-0.197572
0.194389
0.000993966
-0.0327078
0.0317138
-0.05387
0.0563351
-0.00246509
0.0135809
-0.0195353
-0.325006
0.330961
0.0252792
-0.0298949
-0.458227
0.462843
0.034611
-0.0391991
-0.560812
0.5654
0.0447709
-0.0503108
-0.670537
0.676077
0.0566249
-0.0623608
-0.798708
0.804444
0.0684312
-0.0736121
-0.949256
0.954437
0.0787125
-0.0826439
-1.12449
1.12842
0.0859169
-0.0877286
-1.32753
1.32935
0.08813
-0.0867776
-1.5624
1.56105
0.0838292
-0.0794202
-1.53263
1.52822
0.0747208
-0.0691482
-1.25806
1.25249
0.0638851
-0.0580947
-1.03699
1.0312
0.0529054
-0.0474265
-0.857308
0.851829
0.0426764
-0.0377918
-0.71051
0.705625
0.0336025
-0.0292631
-0.589547
0.585208
0.0253907
-0.021082
-0.483542
0.479233
0.016957
-0.0122403
-0.359938
0.355221
0.00800498
-0.00389844
-0.191342
0.187235
0.00123728
-0.0308316
0.0295943
-0.0588387
0.0627805
-0.00394185
0.0206824
-0.029028
-0.33756
0.345906
0.0366508
-0.0426715
-0.46962
0.475641
0.0488782
-0.054986
-0.572125
0.578233
0.0623132
-0.0693607
-0.682221
0.689269
0.0771216
-0.0839606
-0.81024
0.817079
0.0909869
-0.0967882
-0.959537
0.965339
0.102275
-0.106287
-1.13209
1.1361
0.109342
-0.110685
-1.33071
1.33205
0.110273
-0.107906
-1.55904
1.55667
0.103787
-0.0980821
-1.52308
1.51737
0.0922141
-0.0853881
-1.24624
1.23941
0.0790102
-0.0720289
-1.02472
1.01774
0.0657823
-0.0591774
-0.845539
0.838934
0.0534348
-0.0475065
-0.6997
0.693772
0.0424093
-0.037129
-0.579833
0.574553
0.0324059
-0.0270876
-0.47451
0.469192
0.0219055
-0.0158637
-0.350766
0.344724
0.010374
-0.00503126
-0.18343
0.178087
0.00157835
-0.0284996
0.0269212
-0.0665399
0.0738043
-0.0072644
0.0345992
-0.0467353
-0.355767
0.367903
0.0569642
-0.0646068
-0.485095
0.492738
0.0725641
-0.0804556
-0.586864
0.594756
0.0896204
-0.0979953
-0.696749
0.705124
0.106812
-0.114273
-0.823768
0.831229
0.121642
-0.127456
-0.970781
0.976594
0.132659
-0.13614
-1.13955
1.14303
0.138359
-0.138679
-1.33266
1.33298
0.136921
-0.133092
-1.5534
1.54957
0.127447
-0.120172
-1.51077
1.5035
0.112952
-0.10474
-1.23181
1.2236
0.0971593
-0.0889254
-1.01002
1.00178
0.0815816
-0.0738222
-0.831448
0.823689
0.0670594
-0.0600512
-0.686656
0.679648
0.0540062
-0.0477367
-0.567923
0.561654
0.0421148
-0.0356751
-0.463164
0.456724
0.0291265
-0.0212323
-0.338928
0.331034
0.0138201
-0.00653652
-0.173221
0.165937
0.00194916
-0.0255768
0.0236277
-0.080802
0.0840761
-0.00327409
0.0233444
-0.0336249
-0.383015
0.393296
0.0429964
-0.0507664
-0.505664
0.513434
0.0598845
-0.0695605
-0.604796
0.614472
0.0802502
-0.089816
-0.713253
0.722819
0.100475
-0.109905
-0.838022
0.847452
0.119693
-0.128083
-0.98156
0.989949
0.136412
-0.143075
-1.14549
1.15215
0.148996
-0.152856
-1.33215
1.33601
0.154882
-0.154196
-1.54454
1.54385
0.150659
-0.144664
-1.49516
1.48917
0.137618
-0.12866
-1.21455
1.20559
0.11988
-0.109331
-0.9928
0.982251
0.0996341
-0.0889576
-0.815057
0.80438
0.0793973
-0.0692406
-0.671417
0.66126
0.0600464
-0.0505884
-0.553762
0.544304
0.0423552
-0.0328743
-0.449013
0.439532
0.0239323
-0.0146931
-0.323231
0.313992
0.00775873
-0.00269859
-0.159343
0.154283
0.000388086
-0.0218972
0.0215091
-0.0913047
0.0878001
0.00350456
-8.26073e-05
-0.00597539
-0.406474
0.412532
0.0137544
-0.0205278
-0.525662
0.532436
0.0291949
-0.0375954
-0.624459
0.632859
0.0471975
-0.055986
-0.73238
0.741169
0.0653801
-0.0739112
-0.856444
0.864975
0.082792
-0.0901356
-0.998107
1.00545
0.0976475
-0.103342
-1.15875
1.16445
0.108376
-0.111402
-1.33971
1.34273
0.112414
-0.11104
-1.54249
1.54112
0.106999
-0.100709
-1.48253
1.47624
0.0933852
-0.084364
-1.1963
1.18728
0.0756824
-0.0657501
-0.971566
0.961634
0.0564516
-0.0461354
-0.793004
0.782688
0.0369145
-0.0274548
-0.649267
0.639808
0.0193736
-0.0110547
-0.532258
0.523939
0.00397091
0.00271589
-0.427687
0.421001
-0.0071763
0.00917119
-0.303475
0.301481
-0.00832355
0.00532275
-0.147685
0.150686
-0.00220979
-0.0201405
0.0223503
-0.090117
0.0864264
0.00369062
-0.00766899
0.00505753
-0.421787
0.424398
-0.000160532
-0.00542457
-0.542439
0.548024
0.0125273
-0.0197023
-0.64166
0.648835
0.0278711
-0.0353888
-0.749502
0.75702
0.043635
-0.0509831
-0.872853
0.880201
0.0584379
-0.0649861
-1.01265
1.01919
0.0715456
-0.0766683
-1.16983
1.17496
0.080846
-0.0832179
-1.34531
1.34768
0.0840149
-0.0824983
-1.53934
1.53782
0.0785859
-0.0727407
-1.46973
1.46389
0.0661556
-0.058364
-1.17859
1.1708
0.0506517
-0.0422092
-0.951898
0.943455
0.0344434
-0.0259904
-0.773041
0.764588
0.0187617
-0.0113829
-0.630003
0.622624
0.00533339
0.0007944
-0.514043
0.507915
-0.005467
0.00945924
-0.412328
0.408336
-0.0114741
0.0109622
-0.295435
0.295947
-0.00832504
0.00472975
-0.149682
0.153277
-0.00178927
-0.0226589
0.0244482
-0.0873492
0.0838618
0.00348742
-0.0100695
0.00942766
-0.43128
0.431922
-0.0062578
0.00189189
-0.555682
0.560048
0.00419107
-0.0101493
-0.655875
0.661833
0.0170807
-0.0234796
-0.764296
0.770695
0.0304747
-0.0367499
-0.887142
0.893417
0.0435132
-0.0491022
-1.02538
1.03097
0.0549262
-0.0591022
-1.17978
1.18396
0.0628736
-0.0650545
-1.35004
1.35222
0.0657131
-0.0641613
-1.53621
1.53466
0.060877
-0.0559761
-1.45799
1.45309
0.0504293
-0.0436437
-1.16336
1.15658
0.0373318
-0.0305378
-0.935397
0.928603
0.0242328
-0.0177408
-0.756811
0.750319
0.0119105
-0.00623034
-0.614987
0.609306
0.00164728
0.00253852
-0.500706
0.49652
-0.00547266
0.00774992
-0.402002
0.399725
-0.00869188
0.00753327
-0.291695
0.292853
-0.00550796
0.00304326
-0.152492
0.154957
-0.00116191
-0.0243634
0.0255253
-0.0847022
0.0818521
0.00285001
-0.009984
0.0105894
-0.4373
0.436695
-0.00813068
0.00466393
-0.566525
0.569992
0.000252454
-0.00557195
-0.667837
0.673156
0.0113577
-0.0169474
-0.776729
0.782319
0.0229612
-0.0283865
-0.899356
0.904782
0.0341979
-0.0392206
-1.03649
1.04152
0.0442504
-0.0482338
-1.1881
1.19209
0.0516701
-0.0537084
-1.35422
1.35626
0.0544318
-0.0531702
-1.53323
1.53197
0.0504202
-0.0461314
-1.44795
1.44366
0.0414644
-0.0359116
-1.15024
1.14469
0.0306851
-0.0249726
-0.922047
0.916334
0.019904
-0.0146214
-0.744075
0.738793
0.0100928
-0.00560718
-0.603595
0.599109
0.0021033
0.00102712
-0.491071
0.48794
-0.00330869
0.00488429
-0.394988
0.393412
-0.0053708
0.00481542
-0.289332
0.289887
-0.00359251
0.00192819
-0.153363
0.155027
-0.000818404
-0.0250382
0.0258566
-0.0826321
0.0802983
0.00233381
-0.00898113
0.00980248
-0.441138
0.440317
-0.00840581
0.00539314
-0.574954
0.577967
-0.000820536
-0.00367658
-0.677998
0.682495
0.0086326
-0.0134815
-0.787406
0.792254
0.0188238
-0.0236828
-0.90998
0.914839
0.0290275
-0.0334777
-1.04635
1.0508
0.0380931
-0.0417932
-1.19589
1.19959
0.044986
-0.046948
-1.35817
1.36013
0.0477618
-0.0471482
-1.53084
1.53022
0.0448323
-0.0413086
-1.43926
1.43574
0.03727
-0.0324485
-1.13929
1.13446
0.0281305
-0.0230915
-0.910833
0.905794
0.0186948
-0.0142696
-0.73371
0.729285
0.0104219
-0.00660489
-0.594652
0.590835
0.00357835
-0.000716654
-0.483669
0.480807
-0.00106255
0.00240224
-0.389443
0.388103
-0.00322613
0.00311761
-0.286539
0.286648
-0.00237311
0.001363
-0.152805
0.153815
-0.000606157
-0.0251218
0.0257279
-0.0811835
0.079393
0.00179046
-0.00750354
0.00850574
-0.443887
0.442885
-0.0072556
0.00480166
-0.58236
0.584814
-0.000697835
-0.00332333
-0.686784
0.690805
0.00800278
-0.0121705
-0.796921
0.801088
0.0168634
-0.0211902
-0.919754
0.924081
0.0262984
-0.0303982
-1.05536
1.05946
0.0345882
-0.0381967
-1.20322
1.20682
0.0416754
-0.0436564
-1.36223
1.36421
0.0447435
-0.0443408
-1.52937
1.52896
0.0426936
-0.0393959
-1.43217
1.42887
0.0359514
-0.0317679
-1.12965
1.12546
0.0277695
-0.0233908
-0.900943
0.896564
0.0193712
-0.0151818
-0.724735
0.720545
0.0118914
-0.00830576
-0.586843
0.583258
0.00537425
-0.00280943
-0.477116
0.474551
0.000914534
0.000667708
-0.384638
0.383056
-0.00156126
0.00181776
-0.283518
0.283261
-0.0015043
0.000950969
-0.151393
0.151947
-0.000467987
-0.024866
0.025334
-0.0803745
0.0789713
0.00140322
-0.00604426
0.0070603
-0.445986
0.44497
-0.0058113
0.0034476
-0.5888
0.591164
0.000225137
-0.00379732
-0.69463
0.698202
0.00780222
-0.0118155
-0.805365
0.809378
0.0161555
-0.0206239
-0.928298
0.932767
0.0250641
-0.0290254
-1.06373
1.06769
0.0333926
-0.0368308
-1.21042
1.21386
0.0399422
-0.0424221
-1.36622
1.3687
0.0438122
-0.0438093
-1.5287
1.5287
0.042443
-0.039789
-1.42581
1.42316
0.0366851
-0.0328057
-1.12101
1.11713
0.0291341
-0.0249862
-0.892089
0.887941
0.0211894
-0.0173386
-0.716405
0.712555
0.0138831
-0.0104626
-0.579464
0.576044
0.00767196
-0.00489547
-0.471154
0.468378
0.00280513
-0.00126465
-0.379694
0.378154
0.000115208
0.000554878
-0.280075
0.279405
-0.000718104
0.000568233
-0.149456
0.149606
-0.000351519
-0.024424
0.0247756
-0.080159
0.0789769
0.00118207
-0.0045314
0.00522679
-0.447916
0.44722
-0.00418686
0.00189119
-0.594628
0.596924
0.00141482
-0.00481222
-0.701872
0.705269
0.00863567
-0.0122653
-0.813322
0.816952
0.016716
-0.020435
-0.936744
0.940463
0.0248485
-0.0286505
-1.07185
1.07565
0.032944
-0.0366248
-1.21737
1.22105
0.0400856
-0.0424373
-1.37106
1.37342
0.0442493
-0.0446975
-1.52872
1.52917
0.0439676
-0.0415882
-1.42038
1.418
0.0388175
-0.0351646
-1.11329
1.10964
0.031668
-0.0275697
-0.883534
0.879436
0.0239278
-0.0199898
-0.708423
0.704485
0.0165434
-0.0130178
-0.572344
0.568818
0.0100238
-0.00730864
-0.46499
0.462275
0.00498858
-0.00316042
-0.374639
0.372811
0.00171824
-0.000718714
-0.276193
0.275194
0.000143809
0.000242533
-0.146957
0.14657
-0.000241704
-0.0237682
0.0240099
-0.0802201
0.0793689
0.000851144
-0.003261
0.00344572
-0.450059
0.449875
-0.00260546
0.000383612
-0.59969
0.601912
0.00256899
-0.0058083
-0.708558
0.711797
0.00944659
-0.013184
-0.82055
0.824288
0.0170423
-0.0209051
-0.944417
0.948279
0.0252821
-0.0288939
-1.07991
1.08352
0.0332961
-0.036973
-1.2246
1.22828
0.0405591
-0.0434942
-1.37628
1.37921
0.0458584
-0.0466396
-1.52978
1.53056
0.0461608
-0.0444055
-1.41578
1.41402
0.0420428
-0.0385453
-1.10579
1.1023
0.0350522
-0.0311604
-0.875177
0.871285
0.0271589
-0.0232873
-0.700208
0.696336
0.0197527
-0.0160217
-0.565175
0.561444
0.0130138
-0.00996843
-0.458625
0.455579
0.00750497
-0.00519034
-0.369442
0.367128
0.00354874
-0.00214334
-0.271853
0.270447
0.000985438
-0.000128778
-0.143906
0.14305
-0.000151025
-0.0228874
0.0230384
-0.0806773
0.0799718
0.000705449
-0.00226329
0.00242621
-0.452429
0.452267
-0.00109033
-0.000870536
-0.604694
0.606655
0.00388436
-0.00694845
-0.714707
0.717771
0.0104098
-0.013749
-0.827786
0.831125
0.0177026
-0.0212467
-0.952173
0.955717
0.0255606
-0.0295853
-1.08759
1.09162
0.0336548
-0.0376732
-1.23204
1.23606
0.0417145
-0.0448147
-1.38214
1.38524
0.0476457
-0.049268
-1.53169
1.53331
0.0492644
-0.0480832
-1.4122
1.41102
0.0458378
-0.0426177
-1.09876
1.09554
0.039305
-0.0352901
-0.86692
0.862905
0.0313559
-0.027255
-0.691874
0.687773
0.0235461
-0.0195456
-0.557407
0.553407
0.0162153
-0.0129856
-0.451898
0.448668
0.0101089
-0.0074731
-0.363615
0.360979
0.00540148
-0.00354012
-0.266826
0.264965
0.00197796
-0.000612297
-0.140254
0.138888
2.98186e-06
-0.0218357
0.0218327
-0.081369
0.0808128
0.000556213
-0.00124499
0.00117521
-0.454949
0.455019
-7.96566e-05
-0.00212974
-0.609194
0.611403
0.00499021
-0.00785391
-0.720547
0.723411
0.0113543
-0.0145203
-0.834491
0.837657
0.0182971
-0.0219309
-0.959735
0.963369
0.0261275
-0.0301065
-1.09552
1.0995
0.0343895
-0.0384502
-1.24004
1.2441
0.0427114
-0.0465899
-1.38868
1.39256
0.0499488
-0.0519662
-1.53501
1.53703
0.0527191
-0.0519073
-1.40985
1.40904