/*--------------------------------*- C++ -*----------------------------------*\
| =========                 |                                                 |
| \\      /  F ield         | OpenFOAM: The Open Source CFD Toolbox           |
|  \\    /   O peration     | Version:  2112                                  |
|   \\  /    A nd           | Website:  www.openfoam.com                      |
|    \\/     M anipulation  |                                                 |
\*---------------------------------------------------------------------------*/
FoamFile
{
    version     2.0;
    format      ascii;
    arch        "LSB;label=32;scalar=64";
    class       volVectorField;
    location    "11.5";
    object      U;
}
// * * * * * * * * * * * * * * * * * * * * * * * * * * * * * * * * * * * * * //

dimensions      [0 1 -1 0 0 0 0];

internalField   nonuniform List<vector> 
8800
(
(0.979894 -0.0915062 0)
(1.00234 -0.058835 0)
(0.999602 -0.0321136 0)
(0.999993 -0.01637 0)
(1.00002 -0.00864073 0)
(0.999955 -0.00494822 0)
(0.999955 -0.00293435 0)
(0.99995 -0.00168914 0)
(0.999945 -0.000833545 0)
(1.00005 -0.0001522 0)
(0.999945 0.000556674 0)
(0.99995 0.00130428 0)
(0.999958 0.00231576 0)
(0.999965 0.00387652 0)
(0.99998 0.00654221 0)
(1.00004 0.0118363 0)
(0.999869 0.0230111 0)
(0.999178 0.0432049 0)
(1.00702 0.0790889 0)
(0.774971 0.0478449 0)
(0.359337 -0.014731 0)
(1.04675 -0.0722098 0)
(1.08844 -0.0658544 0)
(1.04947 -0.0508986 0)
(1.02568 -0.0377253 0)
(1.01269 -0.0257653 0)
(1.00633 -0.0163917 0)
(1.00341 -0.0098802 0)
(1.00205 -0.00534524 0)
(1.00148 -0.00196495 0)
(1.00138 0.00090105 0)
(1.00166 0.00396338 0)
(1.00256 0.0077595 0)
(1.00456 0.0131125 0)
(1.00889 0.0209605 0)
(1.01817 0.0317182 0)
(1.036 0.0445379 0)
(1.06737 0.0578262 0)
(1.09492 0.070356 0)
(0.846198 0.0554424 0)
(0.218895 -0.00131941 0)
(1.07644 -0.0497464 0)
(1.09965 -0.0477294 0)
(1.0643 -0.0384142 0)
(1.03976 -0.030916 0)
(1.02392 -0.0240457 0)
(1.01416 -0.0171947 0)
(1.00851 -0.0109899 0)
(1.00557 -0.00570948 0)
(1.00444 -0.000791115 0)
(1.00475 0.00404197 0)
(1.00668 0.00896917 0)
(1.01077 0.0146147 0)
(1.01822 0.0210905 0)
(1.03066 0.0278698 0)
(1.05059 0.0348468 0)
(1.08027 0.0428737 0)
(1.10652 0.0507896 0)
(0.945165 0.0405091 0)
(0.218606 0.0013312 0)
(0.178881 -0.000570496 0)
(1.022 -0.0337332 0)
(1.10684 -0.0394056 0)
(1.07851 -0.0344825 0)
(1.05213 -0.0284924 0)
(1.03455 -0.0227926 0)
(1.02269 -0.0173972 0)
(1.01497 -0.0119286 0)
(1.01045 -0.00636319 0)
(1.00851 -0.000754454 0)
(1.00906 0.00473157 0)
(1.01215 0.0101758 0)
(1.01806 0.0155601 0)
(1.02765 0.0208147 0)
(1.04206 0.0261981 0)
(1.0635 0.0319457 0)
(1.09516 0.0378467 0)
(1.09655 0.0394758 0)
(0.83548 0.0215653 0)
(0.178403 0.000579328 0)
(0.158994 -0.000409417 0)
(0.965315 -0.0228775 0)
(1.10503 -0.0311284 0)
(1.0872 -0.0290606 0)
(1.06044 -0.0254665 0)
(1.04212 -0.0209208 0)
(1.0298 -0.0160223 0)
(1.02135 -0.0111002 0)
(1.01588 -0.006024 0)
(1.01323 -0.000565638 0)
(1.01401 0.0049143 0)
(1.01789 0.0100254 0)
(1.02466 0.0147847 0)
(1.03477 0.0194683 0)
(1.04972 0.0240994 0)
(1.07184 0.0279628 0)
(1.10136 0.0311334 0)
(1.07399 0.0298313 0)
(0.754913 0.0125289 0)
(0.158285 0.000420499 0)
(0.147432 -0.000241076 0)
(0.917742 -0.0135733 0)
(1.09902 -0.0220638 0)
(1.09369 -0.0215079 0)
(1.06609 -0.0187303 0)
(1.04702 -0.0161146 0)
(1.03378 -0.0131002 0)
(1.02477 -0.009431 0)
(1.01914 -0.0051806 0)
(1.01651 -0.000208123 0)
(1.01715 0.00493049 0)
(1.02099 0.00927742 0)
(1.02801 0.0129959 0)
(1.03886 0.0160301 0)
(1.0546 0.0184409 0)
(1.07769 0.0210379 0)
(1.10353 0.0230441 0)
(1.04828 0.0200624 0)
(0.701081 0.00660949 0)
(0.146449 0.000257215 0)
(0.142508 -4.40153e-05 0)
(0.885443 -0.00634357 0)
(1.08905 -0.0134884 0)
(1.09637 -0.0145667 0)
(1.07012 -0.0139491 0)
(1.0513 -0.0126575 0)
(1.03871 -0.010686 0)
(1.03002 -0.00793533 0)
(1.02433 -0.00433562 0)
(1.02166 0.000166632 0)
(1.02218 0.00479249 0)
(1.02597 0.0086196 0)
(1.03277 0.0114578 0)
(1.04297 0.0135021 0)
(1.0582 0.0148617 0)
(1.08098 0.0153348 0)
(1.10185 0.0154056 0)
(1.02435 0.0112629 0)
(0.671911 0.0027076 0)
(0.141191 6.28086e-05 0)
(0.141239 2.17394e-05 0)
(0.865395 -0.00301292 0)
(1.07684 -0.00921783 0)
(1.09463 -0.0123478 0)
(1.07013 -0.0130285 0)
(1.0524 -0.0125143 0)
(1.04023 -0.0109326 0)
(1.03207 -0.00823694 0)
(1.0268 -0.00434729 0)
(1.02419 0.000495104 0)
(1.02458 0.00539201 0)
(1.02795 0.00946446 0)
(1.03416 0.0123454 0)
(1.04388 0.0140875 0)
(1.05832 0.0146553 0)
(1.08001 0.0141908 0)
(1.09575 0.0123336 0)
(1.00414 0.0068765 0)
(0.657169 0.00116756 0)
(0.139515 -4.68184e-07 0)
(0.141123 2.36452e-05 0)
(0.851707 -0.00170479 0)
(1.06179 -0.00729285 0)
(1.08858 -0.0123563 0)
(1.06954 -0.014351 0)
(1.05428 -0.0142546 0)
(1.04379 -0.0123694 0)
(1.03655 -0.00911393 0)
(1.03166 -0.00463025 0)
(1.02896 0.000901049 0)
(1.02921 0.00648195 0)
(1.0322 0.0110672 0)
(1.03763 0.0143769 0)
(1.04592 0.016351 0)
(1.05799 0.0166795 0)
(1.07697 0.0155973 0)
(1.08464 0.0115675 0)
(0.985706 0.00500084 0)
(0.648489 0.000736096 0)
(0.138889 1.75209e-06 0)
(0.141139 1.41724e-05 0)
(0.842159 -0.000908568 0)
(1.04583 -0.00525025 0)
(1.07866 -0.0109223 0)
(1.06777 -0.0142216 0)
(1.05543 -0.0143136 0)
(1.04697 -0.0124888 0)
(1.04065 -0.00904402 0)
(1.03608 -0.00435343 0)
(1.03341 0.00150477 0)
(1.03342 0.00742869 0)
(1.03593 0.0121986 0)
(1.04054 0.0155186 0)
(1.04728 0.0173307 0)
(1.05713 0.0174365 0)
(1.07019 0.0151658 0)
(1.06955 0.00984632 0)
(0.96952 0.00360711 0)
(0.642501 0.000560927 0)
(0.138275 1.58576e-05 0)
(0.141356 2.23293e-05 0)
(0.836737 -0.000188948 0)
(1.03333 -0.00272268 0)
(1.06863 -0.00698219 0)
(1.06394 -0.00998558 0)
(1.05649 -0.010777 0)
(1.05011 -0.00963945 0)
(1.04476 -0.00687532 0)
(1.04056 -0.00277944 0)
(1.03796 0.00247927 0)
(1.03763 0.00774739 0)
(1.0396 0.0117598 0)
(1.0432 0.0142975 0)
(1.04828 0.0152678 0)
(1.05483 0.0146223 0)
(1.06167 0.0116065 0)
(1.05535 0.00684277 0)
(0.957746 0.00231235 0)
(0.638568 0.000406224 0)
(0.137714 1.70122e-05 0)
(0.141836 2.8565e-05 0)
(0.834646 0.000286657 0)
(1.02613 -0.000792809 0)
(1.06164 -0.00317009 0)
(1.06069 -0.00518055 0)
(1.05647 -0.00596664 0)
(1.05213 -0.00538766 0)
(1.04796 -0.00346937 0)
(1.0443 -0.00032533 0)
(1.04177 0.00377386 0)
(1.04102 0.00777051 0)
(1.04219 0.0105634 0)
(1.04456 0.0118573 0)
(1.0478 0.01179 0)
(1.0514 0.0104089 0)
(1.05443 0.00780179 0)
(1.04526 0.00439408 0)
(0.950429 0.00156289 0)
(0.635936 0.000359081 0)
(0.137204 1.92381e-05 0)
(0.142527 3.42023e-05 0)
(0.834721 0.000591101 0)
(1.02303 0.000434669 0)
(1.05794 -0.00052914 0)
(1.05869 -0.00146736 0)
(1.05632 -0.0018177 0)
(1.05343 -0.00135797 0)
(1.05023 2.93018e-05 0)
(1.04707 0.00233207 0)
(1.0445 0.0052851 0)
(1.04323 0.00794936 0)
(1.04357 0.00941275 0)
(1.0447 0.00975493 0)
(1.04638 0.00905093 0)
(1.04809 0.00750992 0)
(1.04906 0.0054077 0)
(1.03884 0.00311004 0)
(0.945856 0.00131388 0)
(0.633771 0.000397753 0)
(0.136634 2.49497e-05 0)
(0.143397 4.22137e-05 0)
(0.83606 0.000858692 0)
(1.02252 0.0012323 0)
(1.05671 0.00116066 0)
(1.0581 0.00106951 0)
(1.05662 0.00126538 0)
(1.05455 0.00191415 0)
(1.05198 0.00313256 0)
(1.04912 0.00492442 0)
(1.04638 0.00702426 0)
(1.04453 0.00866438 0)
(1.04387 0.00929683 0)
(1.04405 0.00879794 0)
(1.04458 0.00766684 0)
(1.04514 0.00612585 0)
(1.04512 0.00439409 0)
(1.03454 0.00271003 0)
(0.942471 0.00136931 0)
(0.63153 0.000489299 0)
(0.135914 3.33914e-05 0)
(0.144479 5.22198e-05 0)
(0.838376 0.00112334 0)
(1.02352 0.00188463 0)
(1.05713 0.00240555 0)
(1.05868 0.00293263 0)
(1.05755 0.00364289 0)
(1.05583 0.00462746 0)
(1.05351 0.00593775 0)
(1.05069 0.00752146 0)
(1.04761 0.00908941 0)
(1.04506 0.00995921 0)
(1.04359 0.0097484 0)
(1.04283 0.00886208 0)
(1.04254 0.00746467 0)
(1.04241 0.00587581 0)
(1.04189 0.00428729 0)
(1.03114 0.00282787 0)
(0.939344 0.00159554 0)
(0.628907 0.000615184 0)
(0.134987 4.35934e-05 0)
(0.145845 6.55102e-05 0)
(0.841584 0.00144683 0)
(1.02564 0.00255976 0)
(1.05869 0.00353808 0)
(1.06021 0.00456565 0)
(1.05914 0.00575817 0)
(1.05745 0.00715316 0)
(1.05509 0.00872469 0)
(1.05203 0.0103326 0)
(1.04839 0.0116203 0)
(1.04503 0.011949 0)
(1.04269 0.0112034 0)
(1.04118 0.0098255 0)
(1.04025 0.00814197 0)
(1.03965 0.00639948 0)
(1.03881 0.00475163 0)
(1.02789 0.00326722 0)
(0.935961 0.00194608 0)
(0.625694 0.000775491 0)
(0.133803 5.5862e-05 0)
(0.14758 8.37367e-05 0)
(0.845808 0.00185971 0)
(1.02876 0.00336033 0)
(1.06123 0.00476714 0)
(1.06263 0.0062577 0)
(1.06143 0.00793817 0)
(1.05954 0.00981481 0)
(1.05686 0.011781 0)
(1.0533 0.0135877 0)
(1.04888 0.0147738 0)
(1.04455 0.0146935 0)
(1.0413 0.0134441 0)
(1.03905 0.0115948 0)
(1.03756 0.00953655 0)
(1.03658 0.00751024 0)
(1.03549 0.00564033 0)
(1.02435 0.00396046 0)
(0.931981 0.00241673 0)
(0.621689 0.000976939 0)
(0.132306 7.09981e-05 0)
(0.149809 0.000109334 0)
(0.851295 0.00240323 0)
(1.03298 0.00436508 0)
(1.06483 0.00621717 0)
(1.066 0.00818274 0)
(1.06453 0.0104134 0)
(1.06223 0.0128789 0)
(1.05898 0.0153745 0)
(1.05463 0.017526 0)
(1.04915 0.0187357 0)
(1.04363 0.0183081 0)
(1.03936 0.0165343 0)
(1.03634 0.0141419 0)
(1.0343 0.0115997 0)
(1.03296 0.00916085 0)
(1.03163 0.00693068 0)
(1.02018 0.00491519 0)
(0.927102 0.003028 0)
(0.616654 0.0012319 0)
(0.130421 9.04669e-05 0)
(0.152699 0.000143939 0)
(0.858435 0.00311455 0)
(1.03861 0.00563633 0)
(1.06972 0.00797628 0)
(1.07058 0.0104934 0)
(1.0687 0.0134467 0)
(1.06576 0.0166851 0)
(1.06161 0.0198103 0)
(1.05616 0.022425 0)
(1.04928 0.0237367 0)
(1.04229 0.0229589 0)
(1.03682 0.0205823 0)
(1.03294 0.0175312 0)
(1.03029 0.014372 0)
(1.02854 0.0113904 0)
(1.02696 0.00867355 0)
(1.0151 0.00618854 0)
(0.920997 0.00382155 0)
(0.61029 0.00155837 0)
(0.128054 0.000116277 0)
(0.156485 0.000189913 0)
(0.867752 0.00404697 0)
(1.04606 0.0072737 0)
(1.0763 0.0101929 0)
(1.07665 0.0133893 0)
(1.07414 0.0172787 0)
(1.07031 0.0214692 0)
(1.06502 0.0254449 0)
(1.05806 0.0286303 0)
(1.04933 0.0300692 0)
(1.04051 0.0288712 0)
(1.03359 0.0257564 0)
(1.02867 0.0218876 0)
(1.0253 0.0179503 0)
(1.02308 0.0142845 0)
(1.02117 0.0109598 0)
(1.00879 0.00787423 0)
(0.913307 0.00486184 0)
(0.60223 0.00197762 0)
(0.125089 0.000149967 0)
(0.161516 0.000254272 0)
(0.879923 0.0053116 0)
(1.05574 0.00949042 0)
(1.08487 0.013178 0)
(1.08459 0.0173206 0)
(1.08113 0.0223348 0)
(1.07618 0.0276882 0)
(1.06938 0.0327017 0)
(1.06043 0.0365404 0)
(1.04933 0.0380691 0)
(1.03823 0.0363104 0)
(1.02955 0.0322654 0)
(1.02337 0.0273709 0)
(1.01912 0.0224511 0)
(1.01629 0.0179265 0)
(1.01396 0.0138639 0)
(1.00094 0.0100585 0)
(0.903699 0.00622703 0)
(0.592113 0.00250164 0)
(0.121402 0.000188645 0)
(0.168322 0.00035557 0)
(0.895831 0.00716757 0)
(1.06811 0.0126341 0)
(1.09583 0.0173052 0)
(1.09469 0.0227281 0)
(1.09012 0.0292078 0)
(1.0836 0.0359556 0)
(1.07473 0.0420708 0)
(1.06321 0.0465697 0)
(1.04916 0.0480878 0)
(1.03528 0.0455591 0)
(1.02447 0.0403373 0)
(1.01678 0.0341661 0)
(1.01146 0.0280128 0)
(1.00787 0.0223942 0)
(1.00499 0.0174077 0)
(0.991189 0.0127365 0)
(0.89187 0.00790463 0)
(0.579639 0.00316131 0)
(0.11683 0.00023333 0)
(0.177709 0.000523027 0)
(0.91681 0.0100417 0)
(1.0842 0.0172045 0)
(1.11002 0.0231807 0)
(1.10752 0.0302702 0)
(1.10126 0.0385359 0)
(1.09249 0.0468287 0)
(1.08083 0.0541423 0)
(1.06609 0.0592511 0)
(1.04847 0.060539 0)
(1.03132 0.0569476 0)
(1.01804 0.0502632 0)
(1.00856 0.0425444 0)
(1.00196 0.034885 0)
(0.997456 0.0278925 0)
(0.993899 0.0217277 0)
(0.979167 0.015989 0)
(0.8773 0.0099702 0)
(0.564191 0.00397261 0)
(0.111202 0.000289943 0)
(0.190939 0.000798802 0)
(0.944768 0.0145516 0)
(1.10537 0.0239922 0)
(1.12856 0.0318498 0)
(1.12389 0.0411339 0)
(1.11501 0.0515279 0)
(1.10301 0.0615289 0)
(1.08761 0.0699384 0)
(1.06879 0.075324 0)
(1.04693 0.0759373 0)
(1.02601 0.0708639 0)
(1.00991 0.0623977 0)
(0.998365 0.052871 0)
(0.990234 0.043462 0)
(0.984605 0.0348405 0)
(0.980202 0.027237 0)
(0.964272 0.0201892 0)
(0.859223 0.0127196 0)
(0.545157 0.00505197 0)
(0.104331 0.000353252 0)
(0.210318 0.00129369 0)
(0.982893 0.0218867 0)
(1.13353 0.0344304 0)
(1.15277 0.0449039 0)
(1.14462 0.0569773 0)
(1.13181 0.0697688 0)
(1.11529 0.0813714 0)
(1.09498 0.0904389 0)
(1.07112 0.0954818 0)
(1.0443 0.0947584 0)
(1.01915 0.0876549 0)
(0.999899 0.0770488 0)
(0.985974 0.0654808 0)
(0.975987 0.0541388 0)
(0.968895 0.0437062 0)
(0.963293 0.0344456 0)
(0.945719 0.0258395 0)
(0.836606 0.0164674 0)
(0.52169 0.00654087 0)
(0.0959066 0.000439733 0)
(0.23945 0.00244772 0)
(1.03714 0.0357217 0)
(1.17086 0.0525709 0)
(1.18359 0.0662908 0)
(1.1697 0.0812878 0)
(1.15102 0.0958437 0)
(1.12845 0.108037 0)
(1.10212 0.116649 0)
(1.07246 0.120306 0)
(1.04018 0.117339 0)
(1.0105 0.10757 0)
(0.987854 0.0944777 0)
(0.971291 0.0807069 0)
(0.959116 0.0673582 0)
(0.950137 0.0550618 0)
(0.942761 0.044052 0)
(0.922772 0.0338043 0)
(0.80807 0.0219706 0)
(0.492773 0.00862869 0)
(0.0861381 0.000490883 0)
(0.2802 0.00963296 -1.10468e-20)
(1.10883 0.064085 -8.17894e-21)
(1.21712 0.0843435 2.11754e-21)
(1.21862 0.10162 0)
(1.19653 0.117803 -1.11934e-35)
(1.17032 0.132111 3.19198e-22)
(1.14066 0.143177 -1.51201e-21)
(1.10768 0.149931 0)
(1.07175 0.151126 5.19732e-35)
(1.03354 0.145211 -3.84916e-21)
(0.998868 0.132462 0)
(0.972323 0.116851 -5.44678e-21)
(0.952538 0.101004 -1.66314e-20)
(0.937492 0.0859013 -8.04085e-21)
(0.925789 0.0721737 -2.52817e-21)
(0.915562 0.0600212 -1.53116e-21)
(0.892127 0.0486385 0)
(0.770873 0.0341471 1.10324e-21)
(0.456411 0.0166502 1.3079e-21)
(0.0766493 0.00243289 2.3269e-20)
(0.305002 0.0269685 -2.25953e-20)
(1.16603 0.111092 5.10929e-22)
(1.25894 0.133717 -1.17085e-21)
(1.25058 0.150632 0)
(1.22067 0.165087 1.37023e-21)
(1.18708 0.177552 3.52131e-22)
(1.15043 0.186714 -1.06797e-21)
(1.11076 0.191355 -6.93049e-21)
(1.06825 0.190151 0)
(1.02339 0.181577 1.62892e-20)
(0.982544 0.16636 1.78788e-20)
(0.95078 0.148901 5.71844e-21)
(0.926434 0.131749 2.25154e-20)
(0.9072 0.115699 3.31621e-20)
(0.891465 0.10127 0)
(0.877016 0.0888066 4.93811e-20)
(0.848408 0.0773878 7.24896e-20)
(0.729736 0.0602156 8.1033e-20)
(0.432443 0.0354842 -9.45602e-20)
(0.0739774 0.006394 -1.722e-21)
(0.298122 0.0435246 0)
(1.19863 0.17099 -6.92365e-21)
(1.2904 0.196072 0)
(1.27548 0.209472 1.04066e-20)
(1.23932 0.220353 0)
(1.19948 0.229239 4.24263e-21)
(1.15665 0.235069 1.39683e-21)
(1.11091 0.236589 -1.06871e-20)
(1.06241 0.23235 -1.53438e-21)
(1.01153 0.220801 7.90164e-21)
(0.965203 0.203159 4.14304e-20)
(0.928919 0.184225 -2.59421e-22)
(0.900781 0.166468 -1.6864e-20)
(0.878221 0.150542 -3.26568e-20)
(0.859555 0.136791 3.96731e-20)
(0.842677 0.125358 -7.12933e-20)
(0.814235 0.114915 -9.78913e-21)
(0.709074 0.0956044 0)
(0.437532 0.0602923 2.72551e-22)
(0.0820073 0.0118356 0)
(0.286641 0.0576803 -1.76679e-19)
(1.21281 0.233954 7.21909e-20)
(1.31025 0.262586 3.78947e-20)
(1.29164 0.272999 -6.99911e-21)
(1.25119 0.279787 1.06277e-20)
(1.20669 0.284573 -1.08243e-20)
(1.15894 0.286514 2.00082e-21)
(1.10814 0.284319 0)
(1.05455 0.276603 -3.15204e-20)
(0.998473 0.261788 0)
(0.947512 0.241619 -2.10773e-20)
(0.90776 0.221234 -2.94999e-20)
(0.877097 0.202979 -1.8809e-20)
(0.852734 0.187189 -2.42245e-20)
(0.832865 0.173926 0)
(0.815402 0.163233 0)
(0.788998 0.153414 -6.53903e-20)
(0.69477 0.132704 1.30787e-20)
(0.439203 0.0853405 -7.65076e-21)
(0.0857702 0.0170237 -8.96936e-21)
(0.275803 0.070252 1.30833e-19)
(1.21516 0.296203 0)
(1.32056 0.32985 -1.06572e-19)
(1.29998 0.337598 -2.67151e-20)
(1.25666 0.340446 -1.96523e-20)
(1.20883 0.34119 0)
(1.15739 0.339157 -1.50483e-21)
(1.10257 0.333142 9.68323e-21)
(1.04476 0.321771 1.3924e-20)
(0.984435 0.30351 3.93688e-20)
(0.92984 0.280589 0)
(0.88751 0.258535 -6.39505e-20)
(0.855179 0.239425 -4.08014e-20)
(0.829781 0.223347 -2.45584e-20)
(0.809336 0.210152 1.60701e-19)
(0.791861 0.199668 1.97009e-20)
(0.767492 0.18981 9.43402e-20)
(0.680618 0.166579 -4.57216e-19)
(0.435102 0.107601 2.72436e-19)
(0.086279 0.0215591 -3.29483e-19)
(0.266694 0.0815427 1.383e-19)
(1.2101 0.355672 -2.54334e-20)
(1.32384 0.395826 1.88629e-20)
(1.30224 0.401303 5.06624e-20)
(1.25688 0.400474 3.04952e-20)
(1.20656 0.397475 1.61967e-21)
(1.15229 0.391671 1.1338e-21)
(1.09433 0.381937 7.53038e-21)
(1.03307 0.366898 -3.03012e-20)
(0.969093 0.34511 0)
(0.911363 0.319248 -2.74947e-20)
(0.866991 0.295141 -1.46825e-21)
(0.83352 0.27471 -4.55399e-20)
(0.807612 0.257834 0)
(0.787129 0.244156 -3.49834e-20)
(0.770063 0.233308 -8.50029e-20)
(0.747234 0.222867 2.35299e-19)
(0.665019 0.19662 -2.35345e-19)
(0.427025 0.126925 3.35059e-19)
(0.0850444 0.0254149 -3.49226e-19)
(0.259478 0.091984 -4.53711e-22)
(1.20067 0.411816 3.12129e-20)
(1.32181 0.459301 9.06952e-20)
(1.29975 0.463011 -3.12606e-20)
(1.25299 0.4589 1.7523e-20)
(1.20084 0.452457 0)
(1.14435 0.443187 7.10746e-21)
(1.08377 0.429944 -6.12035e-21)
(1.0196 0.411405 -1.39429e-20)
(0.952538 0.386065 0)
(0.89223 0.357051 -2.68042e-20)
(0.846255 0.33054 -3.74594e-20)
(0.811982 0.308357 4.97025e-20)
(0.785855 0.290228 -3.17674e-20)
(0.765527 0.275624 -1.53706e-19)
(0.748935 0.264001 9.44452e-20)
(0.727219 0.252561 2.99241e-20)
(0.647972 0.223107 0)
(0.416469 0.143553 -3.24598e-19)
(0.0827892 0.0286167 -1.19282e-20)
(0.253869 0.10192 2.26759e-20)
(1.18872 0.46453 -3.59368e-20)
(1.31598 0.519778 -4.95363e-20)
(1.29377 0.522075 -9.59759e-20)
(1.246 0.515102 8.57839e-20)
(1.1925 0.505619 -4.44832e-20)
(1.13426 0.493207 -1.50858e-20)
(1.07156 0.476746 -8.85479e-21)
(1.00496 0.454901 1.32638e-20)
(0.935239 0.426087 -9.53829e-20)
(0.872526 0.393769 -3.28171e-20)
(0.825059 0.364557 0)
(0.790099 0.340264 5.429e-20)
(0.763845 0.320494 6.70489e-20)
(0.743754 0.304614 8.24869e-20)
(0.727645 0.2919 -1.02976e-19)
(0.706776 0.279161 -3.10232e-20)
(0.629695 0.246564 3.68975e-20)
(0.404244 0.157895 0)
(0.0799182 0.0312399 -2.59943e-20)
(0.249565 0.111485 -2.63102e-19)
(1.17559 0.514008 1.65116e-19)
(1.30732 0.576878 5.44188e-20)
(1.28515 0.578155 -7.34843e-20)
(1.23668 0.568725 5.16294e-20)
(1.18219 0.556564 -3.80333e-21)
(1.12263 0.541352 1.46726e-20)
(1.05818 0.521996 -3.66262e-21)
(0.989401 0.497116 -2.46982e-20)
(0.917192 0.465002 1.3584e-22)
(0.852187 0.429308 -9.78328e-20)
(0.803267 0.397171 9.50698e-20)
(0.767648 0.370439 -6.07853e-20)
(0.741291 0.348693 7.55397e-20)
(0.721453 0.331234 0)
(0.705821 0.317199 -5.59366e-20)
(0.685649 0.302995 -1.3437e-21)
(0.610367 0.26707 -1.61287e-19)
(0.390598 0.170056 -2.38733e-20)
(0.0764492 0.0332101 0)
(0.246297 0.120749 0)
(1.16197 0.560494 1.78405e-19)
(1.29668 0.630695 1.27305e-19)
(1.27468 0.631154 8.31046e-20)
(1.22574 0.619598 4.95305e-20)
(1.1705 0.605086 0)
(1.10985 0.587398 1.53276e-20)
(1.04393 0.565467 -1.24699e-21)
(0.973195 0.537892 5.20691e-20)
(0.898609 0.502721 -1.16825e-20)
(0.831358 0.463721 -7.16577e-20)
(0.780891 0.428494 4.76409e-20)
(0.74452 0.399037 -1.95191e-21)
(0.717993 0.374978 7.96681e-20)
(0.698387 0.355632 5.19636e-20)
(0.683218 0.340037 -1.21868e-19)
(0.663638 0.324127 1.47663e-19)
(0.589917 0.284668 4.42841e-20)
(0.375539 0.179887 1.8324e-19)
(0.0723812 0.0344923 -4.90425e-19)
(0.243895 0.129839 -6.73878e-20)
(1.14839 0.604141 1.03135e-19)
(1.28468 0.681235 -7.96833e-20)
(1.26293 0.68109 -9.66973e-20)
(1.21364 0.667663 0)
(1.15786 0.651074 3.99238e-20)
(1.09637 0.631222 -4.39937e-20)
(1.02922 0.607065 2.83698e-21)
(0.956737 0.57713 0)
(0.879736 0.539238 -1.8006e-19)
(0.81015 0.497092 1.95159e-19)
(0.757983 0.45869 0)
(0.720641 0.426265 7.20677e-20)
(0.693814 0.399571 -1.99101e-21)
(0.674392 0.37799 -1.64872e-19)
(0.659672 0.360561 6.47958e-20)
(0.640639 0.342747 0)
(0.568159 0.299448 2.40011e-19)
(0.35894 0.1874 0)
(0.0677686 0.0350709 -2.34023e-19)
(0.242144 0.138763 7.5042e-20)
(1.13511 0.645174 1.18002e-19)
(1.27182 0.72857 -8.33698e-20)
(1.25031 0.727987 0)
(1.20083 0.712925 6.87971e-20)
(1.14468 0.694522 0)
(1.08255 0.672792 5.90853e-20)
(1.01438 0.646746 5.7167e-21)
(0.940274 0.614802 5.60636e-21)
(0.860912 0.574532 -8.88162e-20)
(0.788762 0.529486 1.89572e-20)
(0.734615 0.487966 0)
(0.695973 0.452376 -1.53597e-19)
(0.668578 0.422731 2.06955e-21)
(0.6492 0.398558 0)
(0.634989 0.379 2.43293e-21)
(0.616482 0.358885 2.17984e-19)
(0.544974 0.311432 -2.1078e-19)
(0.340776 0.192458 6.22106e-20)
(0.0625443 0.0349331 0)
(0.240661 0.147383 0)
(1.12221 0.683793 1.31846e-19)
(1.2586 0.772779 9.79325e-20)
(1.23718 0.77193 -2.11523e-21)
(1.18763 0.755406 4.32583e-20)
(1.13127 0.735435 9.46e-20)
(1.06867 0.712106 -1.89642e-20)
(0.999626 0.684486 1.28777e-21)
(0.924072 0.650904 3.19571e-20)
(0.842425 0.608647 -1.38101e-19)
(0.767427 0.561043 -3.12245e-21)
(0.710866 0.516488 -6.28796e-20)
(0.67053 0.477577 2.52123e-19)
(0.642162 0.44472 -2.50297e-21)
(0.622702 0.417557 -1.30655e-19)
(0.609068 0.395495 -2.38539e-19)
(0.591076 0.372704 0)
(0.520147 0.320664 0)
(0.320861 0.194981 6.87011e-20)
(0.0567468 0.0339483 -4.01187e-20)
(0.239664 0.155781 9.30882e-20)
(1.10983 0.719946 -2.87846e-19)
(1.24515 0.814017 -1.04729e-19)
(1.2238 0.812994 0)
(1.1743 0.795175 -1.46012e-21)
(1.11785 0.773858 1.14142e-19)
(1.05493 0.749192 -6.46663e-20)
(0.985182 0.720286 -2.51486e-20)
(0.908308 0.685447 3.34461e-20)
(0.824385 0.64168 -1.06277e-19)
(0.746318 0.59194 -1.64926e-19)
(0.686892 0.544434 1.67735e-19)
(0.644507 0.502063 0)
(0.614836 0.465704 -5.89745e-20)
(0.595208 0.43531 -1.43771e-19)
(0.581761 0.410152 -1.7345e-19)
(0.563945 0.384253 -2.10889e-19)
(0.493184 0.327013 6.33036e-20)
(0.298921 0.194621 -3.71555e-20)
(0.0503748 0.0320892 5.0834e-22)
(0.238653 0.163828 0)
(1.09822 0.753639 0)
(1.23168 0.85248 2.33538e-21)
(1.21041 0.851287 0)
(1.16105 0.832344 -1.62842e-19)
(1.10463 0.809878 -1.01156e-19)
(1.04154 0.784099 0)
(0.971221 0.754179 -6.75545e-21)
(0.893134 0.718426 4.27927e-20)
(0.806983 0.673621 -2.4372e-19)
(0.725691 0.622179 0)
(0.66293 0.572027 -1.07515e-19)
(0.618102 0.526277 -3.06487e-21)
(0.58687 0.486195 -2.53734e-21)
(0.566391 0.452036 1.54049e-19)
(0.552727 0.423378 -3.5213e-22)
(0.534692 0.3936 -4.5972e-19)
(0.4638 0.330271 1.38671e-19)
(0.27473 0.191095 4.12408e-20)
(0.0433888 0.0292747 0)
(0.237607 0.171512 -3.41641e-19)
(1.08707 0.785303 -1.76495e-19)
(1.21833 0.888317 -2.6211e-19)
(1.19716 0.88694 3.64113e-19)
(1.14801 0.867005 -3.05498e-19)
(1.09174 0.843568 0)
(1.0286 0.816889 -5.58547e-20)
(0.957874 0.786215 1.25701e-20)
(0.878733 0.749863 3.65212e-21)
(0.790447 0.704475 1.91919e-20)
(0.705796 0.651863 2.06525e-19)
(0.639199 0.599623 -3.67626e-20)
(0.591046 0.550803 -1.56104e-19)
(0.557466 0.506685 -7.04153e-20)
(0.535535 0.46811 8.60074e-20)
(0.521529 0.435295 -2.99301e-22)
(0.503291 0.401032 1.26829e-19)
(0.431592 0.330285 -3.01598e-19)
(0.247632 0.183899 3.60714e-19)
(0.0357746 0.0255319 5.21472e-20)
(0.236392 0.178751 1.25276e-19)
(1.07632 0.814985 -9.63332e-20)
(1.20521 0.921656 5.65551e-21)
(1.18416 0.9201 2.05605e-19)
(1.1353 0.899288 7.14183e-20)
(1.07927 0.875014 2.02291e-19)
(1.01622 0.847611 -2.48759e-20)
(0.945245 0.816419 6.10909e-20)
(0.86523 0.779782 -2.47379e-20)
(0.774874 0.734252 -1.32749e-19)
(0.686754 0.681156 0)
(0.615858 0.627394 -1.6544e-19)
(0.563184 0.575785 2.2682e-19)
(0.526085 0.527305 0)
(0.502572 0.484039 -1.84371e-19)
(0.487736 0.445737 1.14736e-19)
(0.469192 0.405816 -1.37485e-19)
(0.396303 0.326701 -1.66495e-19)
(0.217628 0.17284 -2.95032e-19)
(0.0276155 0.0208293 -2.30296e-19)
(0.235259 0.185682 -1.37498e-19)
(1.06581 0.842735 1.03009e-19)
(1.19241 0.952631 2.441e-19)
(1.1715 0.950886 2.82553e-19)
(1.12298 0.929303 -1.49495e-19)
(1.06728 0.904314 1.39742e-19)
(1.00446 0.876324 -7.74503e-20)
(0.933388 0.84481 7.66313e-20)
(0.85267 0.808189 -8.34653e-21)
(0.760383 0.762948 1.26612e-19)
(0.668678 0.70997 4.38198e-19)
(0.593284 0.655335 0)
(0.535427 0.601238 0)
(0.49345 0.548783 -8.14825e-20)
(0.467025 0.500165 0)
(0.450746 0.455778 2.50555e-19)
(0.431611 0.407885 3.01982e-19)
(0.357652 0.318215 0)
(0.185553 0.157556 0)
(0.0194396 0.0154741 2.5247e-19)
(0.233877 0.191995 1.514e-19)
(1.05557 0.868599 1.2332e-19)
(1.17997 0.981399 1.75247e-19)
(1.15922 0.979453 -2.51956e-19)
(1.11112 0.957171 -1.66616e-19)
(1.05583 0.931557 -1.85375e-19)
(0.993342 0.903098 1.15047e-19)
(0.922321 0.871427 5.53483e-22)
(0.841075 0.835063 -4.68131e-21)
(0.747076 0.790513 -6.0535e-21)
(0.651881 0.738186 2.21878e-19)
(0.571763 0.68335 0)
(0.50841 0.62773 2.28803e-19)
(0.460294 0.571919 1.71554e-19)
(0.429158 0.518232 4.39748e-19)
(0.409605 0.465032 1.3509e-19)
(0.388813 0.405906 -1.68245e-19)
(0.315493 0.302359 -9.95712e-20)
(0.154217 0.137175 0)
(0.0129158 0.0102648 2.76267e-19)
(0.232692 0.198124 -3.32415e-19)
(1.04562 0.892893 0)
(1.16791 1.00808 1.95416e-19)
(1.14735 1.00591 -2.06204e-19)
(1.09974 0.982999 1.88439e-19)
(1.04493 0.956841 2.70711e-19)
(0.982887 0.928003 -2.67132e-19)
(0.912057 0.896316 2.38758e-21)
(0.830453 0.860412 0)
(0.734976 0.816906 -1.1792e-19)
(0.636525 0.765828 -4.59518e-19)
(0.551539 0.711443 2.24833e-20)
(0.482606 0.655061 3.10189e-19)
(0.427527 0.597593 0)
(0.388687 0.539089 2.95776e-19)
(0.36268 0.476813 0)
(0.336375 0.399415 0)
(0.267253 0.271789 -1.11784e-19)
(0.133431 0.103014 0)
(0.0264926 0.0130582 7.49327e-20)
(0.231202 0.203596 -3.62721e-19)
(1.03588 0.915607 0)
(1.15621 1.03287 3.16174e-19)
(1.13586 1.03049 0)
(1.08879 1.00704 -1.02169e-19)
(1.03452 0.980436 0)
(0.973011 0.951331 -1.99787e-20)
(0.902482 0.919792 -1.35694e-20)
(0.82069 0.884576 -1.30191e-22)
(0.723919 0.842458 -1.15633e-19)
(0.622424 0.793234 1.20326e-20)
(0.532683 0.740284 1.85682e-19)
(0.457709 0.684074 2.99896e-19)
(0.394928 0.625686 4.2877e-20)
(0.345758 0.565684 2.3017e-19)
(0.308283 0.494273 0)
(0.264013 0.392206 3.67755e-19)
(0.193175 0.214856 -2.21286e-19)
(0.0765176 0.0882949 2.56211e-19)
(-0.0641229 0.373917 -3.01511e-19)
(0.229731 0.208786 2.9532e-19)
(1.02622 0.936771 4.65751e-19)
(1.14477 1.05609 0)
(1.12462 1.05358 4.395e-21)
(1.07812 1.0298 2.77293e-19)
(1.02437 1.00294 -5.23532e-19)
(0.963475 0.973781 -1.17937e-19)
(0.893307 0.942687 0)
(0.811433 0.908553 -2.30067e-20)
(0.713497 0.868429 -3.48718e-21)
(0.608924 0.821875 0)
(0.514275 0.77144 0)
(0.432761 0.716306 2.62146e-19)
(0.361598 0.659218 -1.33298e-19)
(0.299501 0.601765 -2.27661e-19)
(0.244694 0.527219 0)
(0.153959 0.394486 1.85911e-19)
(0.0449759 0.467556 -2.22897e-19)
(0.0504466 1.69597 -1.17047e-19)
(0.0894002 2.71418 -1.50006e-19)
(0.228138 0.213076 -2.15977e-19)
(1.01689 0.95657 -5.86641e-19)
(1.13357 1.07774 1.8166e-19)
(1.11363 1.07505 1.74482e-19)
(1.06775 1.05109 0)
(1.0145 1.0241 -3.7465e-19)
(0.954413 0.995073 -1.97621e-19)
(0.884655 0.964606 9.12115e-21)
(0.802863 0.931838 -3.0337e-21)
(0.703981 0.894191 8.76416e-20)
(0.596537 0.851004 2.03904e-19)
(0.497109 0.804292 1.89869e-19)
(0.409258 0.75169 2.55994e-19)
(0.329985 0.695196 -3.02229e-19)
(0.256058 0.647864 -3.33785e-19)
(0.181222 0.579608 0)
(0.0889556 0.818939 0)
(0.146684 2.39871 9.66704e-20)
(0.154607 3.14164 0)
(0.155035 3.36418 2.2285e-19)
(0.228867 0.217404 0)
(1.0082 0.975023 0)
(1.12239 1.09772 0)
(1.10267 1.09471 4.85121e-20)
(1.05739 1.07073 2.47276e-19)
(1.0047 1.04381 -2.85711e-19)
(0.945708 1.01511 -1.41554e-19)
(0.876471 0.985451 1.03984e-20)
(0.794942 0.954298 -6.03899e-20)
(0.69539 0.91958 -1.00857e-20)
(0.585475 0.880538 3.67276e-19)
(0.481529 0.838485 -2.2209e-20)
(0.38741 0.790144 2.8619e-20)
(0.301413 0.732144 4.2789e-20)
(0.224287 0.698394 1.30908e-21)
(0.149816 0.924337 1.60568e-21)
(0.194464 2.50527 -4.61102e-19)
(0.225014 3.25643 -1.75457e-19)
(0.205616 3.42246 8.11352e-20)
(0.184243 3.45204 -8.2679e-20)
(0.144496 0.174267 1.22894e-19)
(0.992057 0.995217 0)
(1.11114 1.11624 -3.55846e-19)
(1.09253 1.11327 -4.52267e-19)
(1.04777 1.08947 5.14311e-19)
(0.995826 1.06268 3.03324e-19)
(0.937272 1.03401 1.65267e-19)
(0.868828 1.00533 -1.78745e-19)
(0.787808 0.976076 6.58658e-20)
(0.688033 0.94464 0)
(0.576254 0.910185 1.57398e-19)
(0.468619 0.873272 -1.40792e-19)
(0.368363 0.831906 0)
(0.276414 0.774937 3.73632e-20)
(0.215766 0.864825 8.86607e-20)
(0.191678 2.09932 -1.09977e-19)
(0.298546 3.28721 1.21925e-19)
(0.27669 3.44589 5.72012e-20)
(0.232419 3.47692 6.54504e-20)
(0.201989 3.49037 7.51384e-20)
(0.268633 0.249982 -2.2794e-19)
(0.971957 0.997394 0)
(1.09009 1.13449 3.61975e-19)
(1.07815 1.1403 4.65644e-19)
(1.03251 1.11626 -5.28483e-19)
(0.981248 1.08995 -3.22029e-19)
(0.923599 1.06274 -2.55037e-19)
(0.856225 1.03567 -1.33052e-20)
(0.775815 1.00968 -9.69576e-20)
(0.675228 0.984059 7.8973e-21)
(0.560098 0.958591 6.07859e-21)
(0.445827 0.932085 1.08001e-19)
(0.335056 0.904981 2.32182e-20)
(0.253612 0.988718 -3.27064e-20)
(0.299642 2.03004 -7.60064e-20)
(0.383845 3.2774 4.77127e-20)
(0.37663 3.48768 -3.73975e-20)
(0.330385 3.51939 -2.04991e-20)
(0.283263 3.55502 2.01545e-20)
(0.215174 3.54585 8.98786e-22)
(0.254211 0.244671 0)
(0.966229 1.01476 9.5353e-20)
(1.081 1.1535 -7.17318e-20)
(1.0677 1.15891 -5.18841e-20)
(1.02287 1.13488 -3.46914e-19)
(0.972391 1.10868 3.14437e-19)
(0.915384 1.08166 1.71713e-19)
(0.849121 1.05568 -1.39902e-20)
(0.76977 1.03188 1.20887e-19)
(0.66972 1.01035 -1.38912e-20)
(0.553818 0.991357 -2.01009e-19)
(0.437397 0.972975 1.52735e-20)
(0.327344 0.966 -2.00076e-20)
(0.302283 1.34041 -2.66923e-20)
(0.421984 2.88032 1.92137e-20)
(0.474758 3.46779 4.52016e-22)
(0.421021 3.56461 -7.33265e-20)
(0.376395 3.59505 -7.99107e-20)
(0.30912 3.6271 1.04551e-19)
(0.232945 3.61992 4.64937e-20)
(0.235915 0.240701 2.34143e-19)
(0.958279 1.03437 6.40873e-19)
(1.07098 1.17376 -2.04509e-19)
(1.05666 1.17853 -1.96825e-19)
(1.01267 1.15423 0)
(0.963108 1.12794 4.59519e-19)
(0.907143 1.10115 2.61809e-19)
(0.842386 1.07626 -1.47432e-20)
(0.76456 1.05478 1.25198e-20)
(0.665665 1.03762 5.81823e-20)
(0.549742 1.02541 -6.06006e-20)
(0.432949 1.01605 -1.03235e-19)
(0.335339 1.0557 -1.30571e-19)
(0.39055 1.85684 1.40425e-19)
(0.533759 3.29866 5.13201e-20)
(0.546183 3.55255 0)
(0.478242 3.61819 0)
(0.428789 3.68279 9.83581e-20)
(0.342793 3.75152 0)
(0.248779 3.72307 2.08787e-19)
(0.222762 0.239636 -3.41016e-19)
(0.948492 1.05474 -5.32558e-19)
(1.05916 1.19457 0)
(1.04431 1.19847 4.76248e-21)
(1.00123 1.17363 -3.36773e-19)
(0.952799 1.14706 6.81948e-19)
(0.898303 1.12051 1.75956e-19)
(0.835401 1.09659 -1.83186e-20)
(0.759508 1.07738 1.36622e-19)
(0.662372 1.06474 -6.86307e-21)
(0.547186 1.05953 0)