/*--------------------------------*- C++ -*----------------------------------*\
| =========                 |                                                 |
| \\      /  F ield         | OpenFOAM: The Open Source CFD Toolbox           |
|  \\    /   O peration     | Version:  2112                                  |
|   \\  /    A nd           | Website:  www.openfoam.com                      |
|    \\/     M anipulation  |                                                 |
\*---------------------------------------------------------------------------*/
FoamFile
{
    version     2.0;
    format      ascii;
    arch        "LSB;label=32;scalar=64";
    class       volScalarField;
    location    "30";
    object      T;
}
// * * * * * * * * * * * * * * * * * * * * * * * * * * * * * * * * * * * * * //

dimensions      [0 0 0 1 0 0 0];

internalField   nonuniform List<scalar> 
10000
(
2.24003e-16
1.95146e-16
1.63845e-16
1.38197e-16
1.183e-16
1.05111e-16
9.89194e-17
9.92869e-17
1.06456e-16
1.16577e-16
1.42151e-15
1.228e-15
1.02672e-15
8.61219e-16
7.3429e-16
6.51149e-16
6.12952e-16
6.17215e-16
6.63885e-16
7.32617e-16
5.56832e-15
4.75775e-15
3.93628e-15
3.26757e-15
2.76703e-15
2.44568e-15
2.30337e-15
2.33402e-15
2.53201e-15
2.82158e-15
2.01759e-14
1.71277e-14
1.40175e-14
1.15073e-14
9.66942e-15
8.51266e-15
8.02226e-15
8.17889e-15
8.94619e-15
1.00225e-14
7.09295e-14
6.00275e-14
4.87021e-14
3.95944e-14
3.30279e-14
2.89576e-14
2.72896e-14
2.794e-14
3.07277e-14
3.44905e-14
2.44876e-13
2.06922e-13
1.66822e-13
1.34574e-13
1.11539e-13
9.74006e-14
9.16982e-14
9.40691e-14
1.03719e-13
1.16404e-13
8.33476e-13
7.03786e-13
5.6501e-13
4.53147e-13
3.73585e-13
3.24935e-13
3.05249e-13
3.13042e-13
3.45165e-13
3.86828e-13
2.80125e-12
2.36494e-12
1.89377e-12
1.51261e-12
1.24166e-12
1.07568e-12
1.00714e-12
1.03033e-12
1.13371e-12
1.26761e-12
9.3064e-12
7.8586e-12
6.28427e-12
5.00569e-12
4.09487e-12
3.53323e-12
3.29352e-12
3.35487e-12
3.67754e-12
4.09947e-12
3.05854e-11
2.58406e-11
2.06537e-11
1.64236e-11
1.33978e-11
1.15128e-11
1.06742e-11
1.08093e-11
1.17869e-11
1.30914e-11
9.94857e-11
8.41159e-11
6.72436e-11
5.34224e-11
4.34809e-11
3.72058e-11
3.42818e-11
3.44652e-11
3.73372e-11
4.12933e-11
3.20365e-10
2.71131e-10
2.16902e-10
1.72262e-10
1.39943e-10
1.19224e-10
1.09089e-10
1.08747e-10
1.16895e-10
1.28657e-10
1.02147e-09
8.65472e-10
6.93129e-10
5.50548e-10
4.46568e-10
3.78742e-10
3.43887e-10
3.39513e-10
3.61659e-10
3.95896e-10
3.22488e-09
2.73582e-09
2.19404e-09
1.74372e-09
1.41254e-09
1.19256e-09
1.07376e-09
1.04859e-09
1.10557e-09
1.2027e-09
1.00803e-08
8.56356e-09
6.87897e-09
5.47249e-09
4.42843e-09
3.72158e-09
3.32061e-09
3.20336e-09
3.33834e-09
3.60587e-09
3.11898e-08
2.65367e-08
2.13593e-08
1.70171e-08
1.37594e-08
1.15098e-08
1.01699e-08
9.67783e-09
9.95379e-09
1.06642e-08
9.54942e-08
8.13813e-08
6.56735e-08
5.24262e-08
4.23692e-08
3.52761e-08
3.08445e-08
2.89121e-08
2.92932e-08
3.10931e-08
2.89143e-07
2.46922e-07
1.99911e-07
1.59999e-07
1.29306e-07
1.07138e-07
9.26313e-08
8.54003e-08
8.50493e-08
8.93085e-08
8.65198e-07
7.40856e-07
6.02147e-07
4.83597e-07
3.91096e-07
3.22495e-07
2.75505e-07
2.49378e-07
2.43514e-07
2.52461e-07
2.55654e-06
2.19616e-06
1.79352e-06
1.44703e-06
1.1721e-06
9.62242e-07
8.1175e-07
7.19919e-07
6.87237e-07
7.01846e-07
7.45037e-06
6.4238e-06
5.2777e-06
4.2839e-06
3.47938e-06
2.84589e-06
2.36984e-06
2.05486e-06
1.91095e-06
1.91684e-06
2.13705e-05
1.85122e-05
1.53261e-05
1.25373e-05
1.02266e-05
8.34245e-06
6.85693e-06
5.8016e-06
5.2342e-06
5.13752e-06
6.01898e-05
5.24589e-05
4.38516e-05
3.62316e-05
2.97459e-05
2.42386e-05
1.96754e-05
1.62183e-05
1.41257e-05
1.35025e-05
0.000165958
0.000145766
0.000123336
0.000103214
8.55238e-05
6.97841e-05
5.60315e-05
4.49558e-05
3.75992e-05
3.47778e-05
0.000446101
0.00039568
0.000339878
0.000289052
0.000242568
0.000198898
0.000158449
0.000123826
9.89235e-05
8.77781e-05
0.00116287
0.00104418
0.000913615
0.000792595
0.000676457
0.000560087
0.000444964
0.000339896
0.000258375
0.000217403
0.00292086
0.00266261
0.00238154
0.00211591
0.00184534
0.00155232
0.00123947
0.000932873
0.000675033
0.000530439
0.00701687
0.00651273
0.00597519
0.00545695
0.00488694
0.00420716
0.00341272
0.00256777
0.00179009
0.00129292
0.0159899
0.0151511
0.014297
0.013459
0.0124294
0.0110337
0.00921138
0.0070748
0.00489866
0.00323878
0.0342674
0.0332131
0.0322749
0.0313526
0.0299376
0.0275849
0.02405
0.0194012
0.0144101
0.00955881
1.97998e-16
1.73287e-16
1.46193e-16
1.23776e-16
1.06236e-16
9.45625e-17
8.89639e-17
8.9114e-17
9.51205e-17
1.03529e-16
1.24581e-15
1.08459e-15
9.12332e-16
7.68375e-16
6.57004e-16
5.83718e-16
5.49331e-16
5.52023e-16
5.90459e-16
6.45421e-16
4.82631e-15
4.16843e-15
3.47647e-15
2.89866e-15
2.4621e-15
2.18003e-15
2.05344e-15
2.07597e-15
2.23552e-15
2.46008e-15
1.73664e-14
1.49287e-14
1.23372e-14
1.01821e-14
8.58498e-15
7.57179e-15
7.13631e-15
7.25184e-15
7.85785e-15
8.68407e-15
6.08433e-14
5.21795e-14
4.28157e-14
3.50375e-14
2.93421e-14
2.57789e-14
2.42868e-14
2.47551e-14
2.69237e-14
2.9793e-14
2.09712e-13
1.79649e-13
1.46692e-13
1.19255e-13
9.92927e-14
8.68977e-14
8.1748e-14
8.33923e-14
9.08077e-14
1.00432e-13
7.13388e-13
6.10783e-13
4.9713e-13
4.02214e-13
3.33307e-13
2.90575e-13
2.72636e-13
2.7775e-13
3.02182e-13
3.33739e-13
2.39798e-12
2.05282e-12
1.66747e-12
1.34466e-12
1.1101e-12
9.64043e-13
9.01162e-13
9.1512e-13
9.92994e-13
1.09438e-12
7.97085e-12
6.82473e-12
5.53801e-12
4.45644e-12
3.66806e-12
3.17301e-12
2.95218e-12
2.98353e-12
3.22409e-12
3.54339e-12
2.62165e-11
2.24567e-11
1.82181e-11
1.46417e-11
1.20224e-11
1.03586e-11
9.58471e-12
9.62699e-12
1.03471e-11
1.13331e-11
8.53574e-11
7.31644e-11
5.93747e-11
4.76888e-11
3.90806e-11
3.35346e-11
3.08365e-11
3.07468e-11
3.28299e-11
3.58143e-11
2.75178e-10
2.36071e-10
1.91719e-10
1.53964e-10
1.25965e-10
1.07638e-10
9.82986e-11
9.71909e-11
1.02982e-10
1.11824e-10
8.78499e-10
7.5441e-10
6.13293e-10
4.92685e-10
4.02498e-10
3.42494e-10
3.10441e-10
3.04021e-10
3.19332e-10
3.44916e-10
2.77736e-09
2.38783e-09
1.94375e-09
1.56259e-09
1.275e-09
1.08026e-09
9.71253e-10
9.41097e-10
9.78732e-10
1.05078e-09
8.69475e-09
7.48498e-09
6.10284e-09
4.91148e-09
4.00357e-09
3.37729e-09
3.01013e-09
2.88237e-09
2.96423e-09
3.1607e-09
2.69469e-08
2.32321e-08
1.89806e-08
1.52983e-08
1.24618e-08
1.04656e-08
9.24075e-09
8.73393e-09
8.86864e-09
9.38287e-09
8.26465e-08
7.13771e-08
5.84669e-08
4.72172e-08
3.84531e-08
3.21431e-08
2.80971e-08
2.61804e-08
2.6202e-08
2.74734e-08
2.50744e-07
2.16976e-07
1.78302e-07
1.44387e-07
1.17619e-07
9.78672e-08
8.4636e-08
7.76179e-08
7.64156e-08
7.92919e-08
7.52057e-07
6.5241e-07
5.38214e-07
4.37401e-07
3.56624e-07
2.95465e-07
2.52644e-07
2.27628e-07
2.19928e-07
2.2544e-07
2.22792e-06
1.9389e-06
1.60717e-06
1.31224e-06
1.07168e-06
8.84491e-07
7.47402e-07
6.60374e-07
6.24376e-07
6.30885e-07
6.51126e-06
5.68835e-06
4.74422e-06
3.89694e-06
3.19197e-06
2.62579e-06
2.19195e-06
1.8959e-06
1.74808e-06
1.73638e-06
1.87461e-05
1.6456e-05
1.3832e-05
1.14498e-05
9.42215e-06
7.7333e-06
6.37791e-06
5.39076e-06
4.8276e-06
4.69703e-06
5.3055e-05
4.68583e-05
3.97681e-05
3.32513e-05
2.75464e-05
2.25981e-05
1.84261e-05
1.51954e-05
1.31574e-05
1.24787e-05
0.000147155
0.000130976
0.000112504
9.52787e-05
7.96811e-05
6.55015e-05
5.28932e-05
4.25308e-05
3.54278e-05
3.25438e-05
0.000398461
0.000358132
0.000312242
0.000268709
0.000227642
0.000188187
0.000150977
0.000118486
9.4476e-05
8.33187e-05
0.00104817
0.000953654
0.000846649
0.000743116
0.000640401
0.000534977
0.000428664
0.000329595
0.000250667
0.000209685
0.00266236
0.00245889
0.00223038
0.0020043
0.00176537
0.00149949
0.00120949
0.000918684
0.000666777
0.000520474
0.00648275
0.0060953
0.0056668
0.00523249
0.00473331
0.00411771
0.00337938
0.00257315
0.00180418
0.00129136
0.0150084
0.0144035
0.0137587
0.0130883
0.0122109
0.0109617
0.00927077
0.00723024
0.00503528
0.00328457
0.0327441
0.0321336
0.0315701
0.0309673
0.0298723
0.0278502
0.0246221
0.0202323
0.015207
0.00977104
1.71803e-16
1.51148e-16
1.28187e-16
1.09047e-16
9.39425e-17
8.37894e-17
7.88109e-17
7.87361e-17
8.36855e-17
9.06404e-17
1.07647e-15
9.4317e-16
7.98279e-16
6.75881e-16
5.80236e-16
5.16606e-16
4.86075e-16
4.86965e-16
5.18143e-16
5.6296e-16
4.12651e-15
3.59381e-15
3.02063e-15
2.53441e-15
2.16264e-15
1.91953e-15
1.80737e-15
1.82021e-15
1.94607e-15
2.12467e-15
1.4693e-14
1.27545e-14
1.06477e-14
8.85681e-15
7.50853e-15
6.64108e-15
6.2541e-15
6.3226e-15
6.78561e-15
7.42485e-15
5.10527e-14
4.4273e-14
3.67809e-14
3.03894e-14
2.56148e-14
2.25742e-14
2.12397e-14
2.15036e-14
2.31122e-14
2.52789e-14
1.74939e-13
1.51739e-13
1.25677e-13
1.0333e-13
8.66834e-14
7.61186e-14
7.14699e-14
7.23042e-14
7.7659e-14
8.47815e-14
5.92878e-13
5.1447e-13
4.25343e-13
3.48557e-13
2.91312e-13
2.54885e-13
2.3855e-13
2.40694e-13
2.57909e-13
2.8091e-13
1.98872e-12
1.72654e-12
1.42616e-12
1.16624e-12
9.71857e-13
8.47254e-13
7.89652e-13
7.93402e-13
8.47012e-13
9.20072e-13
6.60474e-12
5.73736e-12
4.73815e-12
3.86985e-12
3.21733e-12
2.79457e-12
2.59173e-12
2.58986e-12
2.75159e-12
2.97957e-12
2.17239e-11
1.88843e-11
1.55995e-11
1.2733e-11
1.05657e-11
9.14327e-12
8.43245e-12
8.37178e-12
8.8433e-12
9.54149e-12
7.07787e-11
6.15768e-11
5.08978e-11
4.15377e-11
3.44122e-11
2.96665e-11
2.71928e-11
2.67978e-11
2.81186e-11
3.02148e-11
2.28445e-10
1.98928e-10
1.64577e-10
1.34336e-10
1.11138e-10
9.54415e-11
8.69039e-11
8.49346e-11
8.84492e-11
9.46066e-11
7.30425e-10
6.36709e-10
5.27368e-10
4.30685e-10
3.55887e-10
3.04421e-10
2.75217e-10
2.66526e-10
2.75208e-10
2.9285e-10
2.31345e-09
2.01897e-09
1.67463e-09
1.36874e-09
1.12992e-09
9.62641e-10
8.63666e-10
8.28007e-10
8.46882e-10
8.95962e-10
7.25744e-09
6.34177e-09
5.26921e-09
4.31182e-09
3.55688e-09
3.01795e-09
2.68564e-09
2.54639e-09
2.57683e-09
2.7084e-09
2.25454e-08
1.97293e-08
1.64268e-08
1.34637e-08
1.11017e-08
9.38095e-09
8.27557e-09
7.7516e-09
7.75071e-09
8.08625e-09
6.93352e-08
6.07747e-08
5.07314e-08
4.16693e-08
3.43588e-08
2.8915e-08
2.52726e-08
2.33574e-08
2.30399e-08
2.38344e-08
2.11002e-07
1.85318e-07
1.55183e-07
1.27822e-07
1.05451e-07
8.83947e-08
7.65067e-08
6.967e-08
6.76716e-08
6.93233e-08
6.35076e-07
5.59152e-07
4.70062e-07
3.88605e-07
3.20978e-07
2.68078e-07
2.29652e-07
2.05747e-07
1.96353e-07
1.98862e-07
1.88918e-06
1.66837e-06
1.40943e-06
1.17077e-06
9.69091e-07
8.06792e-07
6.83816e-07
6.01753e-07
5.62749e-07
5.62305e-07
5.54899e-06
4.9187e-06
4.18094e-06
3.49459e-06
2.90245e-06
2.41045e-06
2.02104e-06
1.74403e-06
1.59314e-06
1.56638e-06
1.60717e-05
1.43127e-05
1.22601e-05
1.03296e-05
8.62283e-06
7.15221e-06
5.93367e-06
5.01323e-06
4.45643e-06
4.29621e-06
4.58106e-05
4.10375e-05
3.54928e-05
3.02109e-05
2.54017e-05
2.10813e-05
1.73211e-05
1.43107e-05
1.23255e-05
1.15956e-05
0.000128163
0.000115673
0.000101251
8.73031e-05
7.41413e-05
6.17262e-05
5.03227e-05
4.06441e-05
3.37536e-05
3.07862e-05
0.000350697
0.000319543
0.000283858
0.000248723
0.000214073
0.000179439
0.000145643
0.000115143
9.17642e-05
8.04072e-05
0.00093433
0.000861519
0.000779082
0.00069616
0.000609723
0.000517034
0.000420045
0.000326403
0.000248817
0.000206826
0.00240973
0.0022547
0.00208224
0.0019043
0.00170485
0.0014713
0.00120579
0.000928817
0.000677958
0.000525596
0.00597448
0.00568856
0.00538057
0.00505258
0.0046445
0.0041074
0.00343098
0.00265828
0.0018819
0.00133756
0.0141236
0.0137194
0.0133175
0.0128684
0.0121908
0.011124
0.00958588
0.007627
0.00538868
0.00349423
0.0315445
0.031314
0.0312082
0.0310388
0.0303594
0.028745
0.0258905
0.0217217
0.0166477
0.0107099
1.53791e-16
1.35792e-16
1.15672e-16
9.88443e-17
8.54691e-17
7.63849e-17
7.18299e-17
7.15835e-17
7.58166e-17
8.1869e-17
9.58701e-16
8.43218e-16
7.17192e-16
6.10181e-16
5.25915e-16
4.69234e-16
4.41384e-16
4.40979e-16
4.67321e-16
5.06103e-16
3.64005e-15
3.18338e-15
2.69123e-15
2.27086e-15
1.94658e-15
1.73194e-15
1.62996e-15
1.63603e-15
1.74041e-15
1.89315e-15
1.28313e-14
1.11939e-14
9.41281e-15
7.88441e-15
6.72037e-15
5.96037e-15
5.60849e-15
5.64488e-15
6.019e-15
6.55448e-15
4.42064e-14
3.85664e-14
3.23265e-14
2.69375e-14
2.28513e-14
2.02009e-14
1.89823e-14
1.91079e-14
2.03692e-14
2.21441e-14
1.50483e-13
1.31451e-13
1.10026e-13
9.13784e-14
7.723e-14
6.80486e-14
6.37767e-14
6.40656e-14
6.81327e-14
7.38432e-14
5.07615e-13
4.44042e-13
3.7154e-13
3.07976e-13
2.59567e-13
2.27951e-13
2.12855e-13
2.13005e-13
2.25669e-13
2.43759e-13
1.69771e-12
1.48702e-12
1.24455e-12
1.03061e-12
8.66767e-13
7.58644e-13
7.05221e-13
7.02148e-13
7.40339e-13
7.96882e-13
5.62964e-12
4.93693e-12
4.13457e-12
3.42252e-12
2.87347e-12
2.50649e-12
2.31812e-12
2.2942e-12
2.40559e-12
2.57971e-12
1.85084e-11
1.62496e-11
1.36205e-11
1.12746e-11
9.45222e-12
8.21653e-12
7.55684e-12
7.42853e-12
7.74102e-12
8.26838e-12
6.03234e-11
5.30203e-11
4.44874e-11
3.68344e-11
3.08417e-11
2.67154e-11
2.4424e-11
2.38321e-11
2.46655e-11
2.62333e-11
1.94885e-10
1.71482e-10
1.44051e-10
1.19326e-10
9.98021e-11
8.61402e-11
7.82529e-11
7.57426e-11
7.78057e-11
8.23679e-11
6.24e-10
5.49694e-10
4.62369e-10
3.83275e-10
3.20261e-10
2.75416e-10
2.48517e-10
2.38445e-10
2.4293e-10
2.55871e-10
1.97989e-09
1.74622e-09
1.47104e-09
1.22057e-09
1.01913e-09
8.73207e-10
7.82311e-10
7.43493e-10
7.50618e-10
7.86179e-10
6.22404e-09
5.49658e-09
4.63865e-09
3.85383e-09
3.21615e-09
2.74549e-09
2.44115e-09
2.29607e-09
2.29478e-09
2.3885e-09
1.93815e-08
1.71409e-08
1.44964e-08
1.20643e-08
1.00662e-08
8.56164e-09
7.55179e-09
7.0229e-09
6.94014e-09
7.17289e-09
5.97678e-08
5.29465e-08
4.48944e-08
3.74465e-08
3.1252e-08
2.6486e-08
2.31651e-08
2.12765e-08
2.07601e-08
2.12851e-08
1.8246e-07
1.61957e-07
1.37765e-07
1.15248e-07
9.62606e-08
8.13059e-08
7.04816e-08
6.38566e-08
6.14149e-08
6.23898e-08
5.51189e-07
4.90431e-07
4.18821e-07
3.51707e-07
2.94216e-07
2.47757e-07
2.12792e-07
1.89915e-07
1.79668e-07
1.80567e-07
1.64667e-06
1.46945e-06
1.26109e-06
1.06426e-06
8.92549e-07
7.49749e-07
6.37837e-07
5.59956e-07
5.19786e-07
5.15776e-07
4.86098e-06
4.35354e-06
3.75933e-06
3.19291e-06
2.68803e-06
2.25429e-06
1.89959e-06
1.63793e-06
1.48733e-06
1.4534e-06
1.41625e-05
1.27414e-05
1.10876e-05
9.4943e-06
8.03726e-06
6.73801e-06
5.62597e-06
4.75792e-06
4.21113e-06
4.0383e-06
4.06535e-05
3.67838e-05
3.23191e-05
2.79632e-05
2.38544e-05
2.00285e-05
1.65872e-05
1.37446e-05
1.18069e-05
1.10579e-05
0.000114696
0.000104537
9.29507e-05
8.14753e-05
7.02302e-05
5.92108e-05
4.87362e-05
3.9562e-05
3.2828e-05
2.98273e-05
0.000317015
0.000291621
0.000263107
0.000234355
0.000204798
0.000174
0.000142827
0.000113746
9.07481e-05
7.92421e-05
0.000854733
0.00079542
0.000730327
0.000663229
0.000589843
0.000507368
0.000417543
0.000327624
0.00025052
0.000207529
0.00223553
0.00211028
0.00197765
0.00183708
0.00166963
0.00146226
0.00121564
0.000947808
0.000695616
0.000537356
0.00563303
0.00540875
0.00518692
0.00494225
0.00460864
0.00413567
0.0035076
0.00275671
0.00196752
0.00139382
0.0135626
0.0132783
0.0130509
0.0127758
0.0122609
0.011343
0.00992508
0.00802022
0.00573221
0.00371291
0.0309065
0.0308987
0.0311204
0.0312874
0.0309392
0.0296508
0.0270875
0.0230854
0.0179538
0.011599
1.44044e-16
1.27454e-16
1.0884e-16
9.32412e-17
8.08075e-17
7.23096e-17
6.79894e-17
6.767e-17
7.15316e-17
7.71041e-17
8.95504e-16
7.89379e-16
6.73226e-16
5.74398e-16
4.96291e-16
4.43396e-16
4.1701e-16
4.1599e-16
4.39878e-16
4.75493e-16
3.38464e-15
2.96549e-15
2.51535e-15
2.12976e-15
1.83085e-15
1.63143e-15
1.53488e-15
1.53749e-15
1.631e-15
1.77134e-15
1.18669e-14
1.03756e-14
8.75882e-15
7.36682e-15
6.30031e-15
5.5974e-15
5.26423e-15
5.2849e-15
5.6159e-15
6.10279e-15
4.06863e-14
3.55914e-14
2.99718e-14
2.5099e-14
2.13757e-14
1.8933e-14
1.77771e-14
1.78369e-14
1.89346e-14
2.05296e-14
1.37959e-13
1.20896e-13
1.01748e-13
8.49964e-14
7.21643e-14
6.37207e-14
5.9658e-14
5.96907e-14
6.31597e-14
6.82327e-14
4.64034e-13
4.07413e-13
3.43045e-13
2.86247e-13
2.42494e-13
2.13453e-13
1.9906e-13
1.98283e-13
2.08843e-13
2.24734e-13
1.54904e-12
1.36239e-12
1.14824e-12
9.57825e-13
8.10076e-13
7.10802e-13
6.59787e-13
6.53573e-13
6.84651e-13
7.33814e-13
5.13137e-12
4.52013e-12
3.81408e-12
3.18199e-12
2.68755e-12
2.35058e-12
2.17064e-12
2.13668e-12
2.22489e-12
2.37494e-12
1.68642e-11
1.48764e-11
1.25686e-11
1.04894e-11
8.84913e-12
7.71421e-12
7.08434e-12
6.92571e-12
7.16516e-12
7.61618e-12
5.49726e-11
4.85576e-11
4.10781e-11
3.42996e-11
2.89059e-11
2.51143e-11
2.29291e-11
2.22508e-11
2.28612e-11
2.41933e-11
1.77695e-10
1.57161e-10
1.3313e-10
1.11232e-10
9.36527e-11
8.1092e-11
7.35813e-11
7.08421e-11
7.22456e-11
7.60982e-11
5.69458e-10
5.0428e-10
4.27779e-10
3.57707e-10
3.00932e-10
2.59676e-10
2.34104e-10
2.23482e-10
2.26078e-10
2.36937e-10
1.80893e-09
1.60386e-09
1.36269e-09
1.14067e-09
9.59034e-10
8.247e-10
7.38431e-10
6.98502e-10
7.00405e-10
7.30024e-10
5.6946e-09
5.05548e-09
4.30305e-09
3.60691e-09
3.03144e-09
2.59786e-09
2.30945e-09
2.16299e-09
2.14787e-09
2.22513e-09
1.77614e-08
1.57901e-08
1.34692e-08
1.13103e-08
9.50538e-09
8.11831e-09
7.1626e-09
6.63622e-09
6.51877e-09
6.70748e-09
5.487e-08
4.88614e-08
4.17897e-08
3.51727e-08
2.95716e-08
2.51743e-08
2.20345e-08
2.01752e-08
1.95783e-08
1.99901e-08
1.67846e-07
1.4977e-07
1.28506e-07
1.08484e-07
9.1298e-08
7.74876e-08
6.72602e-08
6.07909e-08
5.81838e-08
5.88828e-08
5.08227e-07
4.54596e-07
3.91607e-07
3.31886e-07
2.79798e-07
2.36848e-07
2.03817e-07
1.81607e-07
1.71097e-07
1.71369e-07
1.52249e-06
1.36579e-06
1.18237e-06
1.00714e-06
8.51425e-07
7.19258e-07
6.13505e-07
5.38175e-07
4.97887e-07
4.92583e-07
4.50895e-06
4.05933e-06
3.53586e-06
3.03146e-06
2.57324e-06
2.1713e-06
1.83583e-06
1.58319e-06
1.43402e-06
1.3978e-06
1.31868e-05
1.19245e-05
1.0467e-05
9.04837e-06
7.72519e-06
6.51957e-06
5.46636e-06
4.62831e-06
4.08979e-06
3.91395e-06
3.8022e-05
3.45722e-05
3.06413e-05
2.67667e-05
2.30345e-05
1.94793e-05
1.62137e-05
1.34651e-05
1.15588e-05
1.0808e-05
0.000107831
9.87513e-05
8.85703e-05
7.83843e-05
6.81737e-05
5.79201e-05
4.79561e-05
3.90593e-05
3.24184e-05
2.94169e-05
0.000299872
0.000277151
0.000252183
0.000226771
0.000199975
0.000171288
0.000141555
0.000113242
9.04503e-05
7.8892e-05
0.00081436
0.000761248
0.00070475
0.00064597
0.000579687
0.000502851
0.00041696
0.000329021
0.00025212
0.000208612
0.0021477
0.00203599
0.00192313
0.00180224
0.00165227
0.0014594
0.00122318
0.000960139
0.000706902
0.000545393
0.00546309
0.00526639
0.00508734
0.00488656
0.00459353
0.00415607
0.0035546
0.00281508
0.00201802
0.001428
0.0132923
0.013061
0.0129197
0.0127353
0.0123082
0.0114722
0.0101204
0.00824442
0.00592628
0.00383789
0.030636
0.0307261
0.0311057
0.0314431
0.0312687
0.0301557
0.0277509
0.0238339
0.0186619
0.0120674
1.43532e-16
1.27015e-16
1.08491e-16
9.29578e-17
8.05565e-17
7.20768e-17
6.77619e-17
6.7423e-17
7.12471e-17
7.67871e-17
8.92225e-16
7.86644e-16
6.71042e-16
5.72562e-16
4.94663e-16
4.41888e-16
4.15542e-16
4.14444e-16
4.38109e-16
4.73466e-16
3.37161e-15
2.95611e-15
2.50738e-15
2.1228e-15
1.82464e-15
1.62571e-15
1.52934e-15
1.53182e-15
1.62482e-15
1.76336e-15
1.18236e-14
1.0342e-14
8.73059e-15
7.34272e-15
6.27899e-15
5.57779e-15
5.24519e-15
5.26505e-15
5.59401e-15
6.07622e-15
4.05433e-14
3.54735e-14
2.98733e-14
2.50155e-14
2.13025e-14
1.88659e-14
1.77119e-14
1.77686e-14
1.88587e-14
2.04419e-14
1.37483e-13
1.20491e-13
1.01407e-13
8.47078e-14
7.19126e-14
6.34912e-14
5.94351e-14
5.94581e-14
6.29021e-14
6.79413e-14
4.62444e-13
4.06039e-13
3.41872e-13
2.85251e-13
2.41629e-13
2.12668e-13
1.98301e-13
1.97496e-13
2.07979e-13
2.23771e-13
1.54376e-12
1.35778e-12
1.14422e-12
9.54408e-13
8.0712e-13
7.08136e-13
6.57224e-13
6.50932e-13
6.8178e-13
7.30654e-13
5.11412e-12
4.5047e-12
3.80045e-12
3.17039e-12
2.67755e-12
2.34162e-12
2.16208e-12
2.12793e-12
2.21547e-12
2.36467e-12
1.68081e-11
1.48238e-11
1.25228e-11
1.04505e-11
8.81577e-12
7.68444e-12
7.05613e-12
6.89712e-12
7.13467e-12
7.58323e-12
5.4787e-11
4.83816e-11
4.09272e-11
3.41714e-11
2.8796e-11
2.50168e-11
2.28374e-11
2.21587e-11
2.2764e-11
2.40889e-11
1.7708e-10
1.56595e-10
1.3264e-10
1.10815e-10
9.32961e-11
8.0777e-11
7.32877e-11
7.05502e-11
7.19399e-11
7.57721e-11
5.67476e-10
5.02478e-10
4.26205e-10
3.56366e-10
2.99788e-10
2.58671e-10
2.33175e-10
2.2257e-10
2.25131e-10
2.35933e-10
1.8027e-09
1.59823e-09
1.35768e-09
1.1364e-09
9.554e-10
8.2153e-10
7.35531e-10
6.95686e-10
6.97514e-10
7.26979e-10
5.67547e-09
5.03804e-09
4.28725e-09
3.59344e-09
3.02002e-09
2.58796e-09
2.3005e-09
2.15441e-09
2.13917e-09
2.21603e-09
1.77036e-08
1.57349e-08
1.34196e-08
1.12682e-08
9.46985e-09
8.08779e-09
7.13533e-09
6.61045e-09
6.49296e-09
6.68068e-09
5.46929e-08
4.86848e-08
4.16361e-08
3.50425e-08
2.94623e-08
2.50812e-08
2.19524e-08
2.00988e-08
1.95028e-08
1.99125e-08
1.67291e-07
1.49225e-07
1.28038e-07
1.08088e-07
9.09656e-08
7.72065e-08
6.70156e-08
6.05672e-08
5.79665e-08
5.86614e-08
5.06503e-07
4.52972e-07
3.90196e-07
3.3069e-07
2.78797e-07
2.36008e-07
2.03096e-07
1.8096e-07
1.7048e-07
1.70747e-07
1.51728e-06
1.36096e-06
1.17815e-06
1.00356e-06
8.48438e-07
7.16769e-07
6.11399e-07
5.36325e-07
4.9616e-07
4.90867e-07
4.4934e-06
4.04488e-06
3.52336e-06
3.02085e-06
2.56439e-06
2.16398e-06
1.82973e-06
1.57796e-06
1.42925e-06
1.39314e-06
1.31405e-05
1.18818e-05
1.04304e-05
9.01723e-06
7.69919e-06
6.49818e-06
5.44882e-06
4.61361e-06
4.07679e-06
3.90146e-06
3.78856e-05
3.44514e-05
3.05362e-05
2.66764e-05
2.29587e-05
1.94172e-05
1.61635e-05
1.34242e-05
1.15237e-05
1.0775e-05
0.000107444
9.84125e-05
8.82713e-05
7.81251e-05
6.79549e-05
5.77409e-05
4.78133e-05
3.89461e-05
3.2325e-05
2.93316e-05
0.000298811
0.000276201
0.000251348
0.000226038
0.000199349
0.000170774
0.000141151
0.00011293
9.0204e-05
7.86755e-05
0.000811519
0.000758712
0.000702475
0.000643929
0.000577916
0.000501387
0.000415815
0.000328163
0.000251477
0.000208077
0.00214046
0.00202946
0.00191709
0.00179669
0.00164734
0.00145525
0.00121993
0.000957761
0.000705216
0.000544086
0.00544558
0.00525027
0.00507189
0.00487188
0.00458008
0.00414444
0.00354531
0.0028083
0.00201371
0.00142522
0.0132526
0.0130233
0.012882
0.0126982
0.0122729
0.0114407
0.0100947
0.00822681
0.00591539
0.00382928
0.0305522
0.0306427
0.03102
0.0313557
0.0311818
0.0300741
0.0276807
0.02378
0.0186384
0.0120792
1.52227e-16
1.34544e-16
1.14644e-16
9.79495e-17
8.4669e-17
7.56436e-17
7.1114e-17
7.08513e-17
7.50025e-17
8.09175e-17
9.4889e-16
8.35487e-16
7.10819e-16
6.04634e-16
5.20961e-16
4.64645e-16
4.36951e-16
4.36436e-16
4.62273e-16
5.0014e-16
3.60301e-15
3.15414e-15
2.66714e-15
2.25006e-15
1.92809e-15
1.71488e-15
1.61343e-15
1.61897e-15
1.72135e-15
1.87059e-15
1.27034e-14
1.109e-14
9.3272e-15
7.81141e-15
6.65593e-15
5.90114e-15
5.55092e-15
5.58494e-15
5.95177e-15
6.47626e-15
4.37725e-14
3.82056e-14
3.20275e-14
2.66839e-14
2.26289e-14
1.99974e-14
1.87844e-14
1.89012e-14
2.0138e-14
2.18787e-14
1.49023e-13
1.30211e-13
1.08987e-13
9.04989e-14
7.64639e-14
6.73505e-14
6.30991e-14
6.33586e-14
6.73472e-14
7.29538e-14
5.02722e-13
4.398e-13
3.67945e-13
3.04934e-13
2.56931e-13
2.25562e-13
2.10544e-13
2.10604e-13
2.23025e-13
2.40807e-13
1.68136e-12
1.47259e-12
1.23222e-12
1.02018e-12
8.57759e-13
7.50523e-13
6.9741e-13
6.94081e-13
7.31543e-13
7.87179e-13
5.57531e-12
4.88833e-12
4.09276e-12
3.38712e-12
2.84302e-12
2.47918e-12
2.29203e-12
2.26746e-12
2.37671e-12
2.54816e-12
1.83288e-11
1.60874e-11
1.34806e-11
1.11562e-11
9.35063e-12
8.1259e-12
7.47086e-12
7.34113e-12
7.64748e-12
8.16708e-12
5.97334e-11
5.24866e-11
4.40264e-11
3.64436e-11
3.05073e-11
2.64187e-11
2.41447e-11
2.35507e-11
2.4367e-11
2.59124e-11
1.92966e-10
1.69749e-10
1.42551e-10
1.18054e-10
9.8716e-11
8.51816e-11
7.73581e-11
7.48504e-11
7.68677e-11
8.13659e-11
6.17836e-10
5.44128e-10
4.57544e-10
3.79182e-10
3.16775e-10
2.72357e-10
2.45687e-10
2.35656e-10
2.40026e-10
2.52788e-10
1.96034e-09
1.72851e-09
1.45565e-09
1.20753e-09
1.00806e-09
8.63556e-10
7.73472e-10
7.34885e-10
7.4175e-10
7.76825e-10
6.16281e-09
5.44077e-09
4.59004e-09
3.81268e-09
3.18138e-09
2.71538e-09
2.41388e-09
2.26986e-09
2.26809e-09
2.36055e-09
1.91916e-08
1.69665e-08
1.43445e-08
1.1936e-08
9.95811e-09
8.46878e-09
7.46869e-09
6.94412e-09
6.86097e-09
7.09062e-09
5.91829e-08
5.24086e-08
4.44265e-08
3.70508e-08
3.09197e-08
2.62028e-08
2.29149e-08
2.10429e-08
2.05289e-08
2.10469e-08
1.80675e-07
1.60323e-07
1.36342e-07
1.14043e-07
9.52504e-08
8.04515e-08
6.97367e-08
6.31734e-08
6.07496e-08
6.17115e-08
5.45815e-07
4.85536e-07
4.14535e-07
3.48075e-07
2.91179e-07
2.45206e-07
2.10598e-07
1.87942e-07
1.77782e-07
1.78666e-07
1.63077e-06
1.45491e-06
1.24829e-06
1.05342e-06
8.83502e-07
7.42205e-07
6.31444e-07
5.54327e-07
5.14519e-07
5.10535e-07
4.81443e-06
4.31031e-06
3.7215e-06
3.16082e-06
2.66129e-06
2.23216e-06
1.88112e-06
1.62203e-06
1.47283e-06
1.43918e-06
1.40262e-05
1.26148e-05
1.09773e-05
9.40032e-06
7.95886e-06
6.67352e-06
5.573e-06
4.71344e-06
4.17166e-06
4.00031e-06
4.0259e-05
3.6422e-05
3.20019e-05
2.76913e-05
2.36267e-05
1.98419e-05
1.64362e-05
1.36211e-05
1.17008e-05
1.0958e-05
0.000113583
0.000103522
9.20531e-05
8.06986e-05
6.95755e-05
5.8675e-05
4.83085e-05
3.9222e-05
3.25462e-05
2.95694e-05
0.000313973
0.000288832
0.000260616
0.00023217
0.000202936
0.000172472
0.000141621
0.000112815
9.0008e-05
7.85882e-05
0.000846691
0.000787983
0.000723571
0.000657191
0.000584612
0.00050304
0.000414148
0.000325072
0.000248589
0.000205899
0.00221514
0.00209112
0.00195985
0.00182076
0.00165516
0.0014501
0.00120608
0.000940779
0.000690566
0.000533342
0.00558385
0.00536148
0.00514172
0.00489955
0.00456959
0.00410193
0.00348059
0.00273709
0.0019541
0.00138397
0.0134508
0.013168
0.0129418
0.012669
0.0121595
0.0112521
0.00984983
0.0079649
0.00569509
0.0036876
0.0306698
0.0306584
0.0308747
0.0310373
0.0306915
0.0294183
0.0268851
0.0229265
0.017842
0.0115245
1.69191e-16
1.49085e-16
1.26487e-16
1.0756e-16
9.2611e-17
8.25535e-17
7.762e-17
7.7523e-17
8.23481e-17
8.90883e-17
1.06006e-15
9.30423e-16
7.87769e-16
6.66671e-16
5.7199e-16
5.08944e-16
4.78703e-16
4.79454e-16
5.09848e-16
5.53201e-16
4.06422e-15
3.54533e-15
2.98059e-15
2.49969e-15
2.13171e-15
1.89097e-15
1.77975e-15
1.79185e-15
1.91453e-15
2.08733e-15
1.44761e-14
1.25793e-14
1.05031e-14
8.73328e-15
7.39937e-15
6.54082e-15
6.15687e-15
6.22176e-15
6.67277e-15
7.29311e-15
5.0313e-14
4.36568e-14
3.62698e-14
2.99562e-14
2.52353e-14
2.22273e-14
2.0903e-14
2.11525e-14
2.27193e-14
2.48262e-14
1.7244e-13
1.49604e-13
1.23888e-13
1.01821e-13
8.53715e-14
7.49252e-14
7.03123e-14
7.10948e-14
7.63112e-14
8.32521e-14
5.84482e-13
5.07139e-13
4.19141e-13
3.43333e-13
2.868e-13
2.50803e-13
2.346e-13
2.36575e-13
2.53351e-13
2.75811e-13
1.96058e-12
1.70158e-12
1.40491e-12
1.14835e-12
9.56468e-13
8.33401e-13
7.76312e-13
7.79559e-13
8.31825e-13
9.03278e-13
6.51098e-12
5.65345e-12
4.66629e-12
3.80929e-12
3.1654e-12
2.74807e-12
2.54722e-12
2.54399e-12
2.70172e-12
2.92494e-12
2.14142e-11
1.86053e-11
1.53596e-11
1.25306e-11
1.03927e-11
8.98911e-12
8.28591e-12
8.222e-12
8.68191e-12
9.36615e-12
6.97638e-11
6.06593e-11
5.01075e-11
4.08709e-11
3.38427e-11
2.9162e-11
2.6717e-11
2.63158e-11
2.7604e-11
2.96596e-11
2.25148e-10
1.9595e-10
1.62008e-10
1.32167e-10
1.09289e-10
9.38112e-11
8.53794e-11
8.34064e-11
8.68327e-11
9.28737e-11
7.19828e-10
6.27146e-10
5.19106e-10
4.23702e-10
3.49953e-10
2.99216e-10
2.70394e-10
2.61748e-10
2.70203e-10
2.87519e-10
2.27979e-09
1.98851e-09
1.64827e-09
1.34648e-09
1.11107e-09
9.4621e-10
8.48589e-10
8.13253e-10
8.31597e-10
8.79789e-10
7.15174e-09
6.24559e-09
5.18586e-09
4.24154e-09
3.49763e-09
2.96667e-09
2.63908e-09
2.50145e-09
2.53082e-09
2.66007e-09
2.2216e-08
1.94282e-08
1.61663e-08
1.32443e-08
1.09175e-08
9.22274e-09
8.13368e-09
7.61653e-09
7.61429e-09
7.94412e-09
6.83171e-08
5.98463e-08
4.99291e-08
4.09937e-08
3.37926e-08
2.84327e-08
2.48456e-08
2.29571e-08
2.26419e-08
2.34234e-08
2.07897e-07
1.82502e-07
1.52747e-07
1.25767e-07
1.03732e-07
8.69407e-08
7.52363e-08
6.85008e-08
6.65287e-08
6.8155e-08
6.25764e-07
5.5071e-07
4.62738e-07
3.82427e-07
3.15821e-07
2.63744e-07
2.25916e-07
2.02377e-07
1.93121e-07
1.95597e-07
1.86171e-06
1.64333e-06
1.38764e-06
1.15239e-06
9.53788e-07
7.94017e-07
6.72966e-07
5.92173e-07
5.53755e-07
5.53341e-07
5.46883e-06
4.84522e-06
4.1169e-06
3.44042e-06
2.8574e-06
2.37314e-06
1.98985e-06
1.71709e-06
1.56847e-06
1.54218e-06
1.58398e-05
1.41001e-05
1.20743e-05
1.01717e-05
8.49133e-06
7.04401e-06
5.8446e-06
4.93814e-06
4.3896e-06
4.23181e-06
4.51504e-05
4.04335e-05
3.49623e-05
2.97571e-05
2.50223e-05
2.07702e-05
1.70687e-05
1.41035e-05
1.21468e-05
1.14271e-05
0.000126327
0.000113992
9.97635e-05
8.60187e-05
7.30599e-05
6.08405e-05
4.96135e-05
4.00774e-05
3.32817e-05
3.03536e-05
0.000345741
0.000314974
0.000279773
0.000245147
0.00021103
0.000176939
0.000143661
0.000113602
9.05308e-05
7.93152e-05
0.000921395
0.000849476
0.000768134
0.000686398
0.000601279
0.00051004
0.00041453
0.000322217
0.000245611
0.000204115
0.00237732
0.00222406
0.00205378
0.00187829
0.00168184
0.00145194
0.00119048
0.000917411
0.000669608
0.00051896
0.00589715
0.005614
0.0053094
0.00498556
0.0045834
0.00405464
0.0033886
0.00262697
0.00185985
0.00132143
0.0139498
0.0135478
0.0131485
0.0127036
0.0120348
0.0109845
0.00947056
0.00754133
0.00532869
0.00345335
0.0311814
0.0309458
0.0308331
0.0306589
0.0299849
0.028395
0.0255854
0.0214845
0.0164757
0.0105931
1.94237e-16
1.70327e-16
1.43776e-16
1.21662e-16
1.0434e-16
9.28049e-17
8.72766e-17
8.74014e-17
9.32457e-17
1.01373e-16
1.22222e-15
1.06636e-15
8.97366e-16
7.55277e-16
6.45264e-16
5.72796e-16
5.38895e-16
5.41416e-16
5.78838e-16
6.31853e-16
4.73624e-15
4.09966e-15
3.41887e-15
2.84874e-15
2.41772e-15
2.13908e-15
2.01398e-15
2.03557e-15
2.19093e-15
2.40768e-15
1.70555e-14
1.46766e-14
1.21265e-14
1.00028e-14
8.42734e-15
7.42773e-15
6.9965e-15
7.10699e-15
7.69643e-15
8.49721e-15
5.97871e-14
5.12781e-14
4.20676e-14
3.4408e-14
2.87936e-14
2.52795e-14
2.38023e-14
2.42493e-14
2.6358e-14
2.9146e-14
2.06141e-13
1.76536e-13
1.44088e-13
1.17072e-13
9.74043e-14
8.51856e-14
8.00876e-14
8.16523e-14
8.88641e-14
9.8235e-14
7.01396e-13
6.00239e-13
4.8818e-13
3.94714e-13
3.26856e-13
2.84752e-13
2.67e-13
2.71848e-13
2.95618e-13
3.26397e-13
2.35808e-12
2.01708e-12
1.63703e-12
1.31915e-12
1.08825e-12
9.44406e-13
8.82232e-13
8.95373e-13
9.71185e-13
1.07021e-12
7.83862e-12
6.70519e-12
5.43575e-12