# Field minima and maxima
# Time          	field           	min             	location(min)   	max             	location(max)   
0.01            	U               	(-9.43505279e-05 9.43504707e-05 0.00000000e+00)	(2.50000000e-02 2.50000000e-02 5.00000000e-01)	(-9.43505279e-05 9.43504707e-05 0.00000000e+00)	(2.50000000e-02 2.50000000e-02 5.00000000e-01)
0.01            	p               	-7.44895636e-01	(2.50000000e-02 9.75000000e-01 5.00000000e-01)	8.40404828e-01	(9.75000000e-01 9.75000000e-01 5.00000000e-01)
0.02            	U               	(-1.72597234e-04 1.72374651e-04 0.00000000e+00)	(2.50000000e-02 2.50000000e-02 5.00000000e-01)	(-1.72597234e-04 1.72374651e-04 0.00000000e+00)	(2.50000000e-02 2.50000000e-02 5.00000000e-01)
0.02            	p               	-6.89826866e-01	(2.50000000e-02 9.75000000e-01 5.00000000e-01)	7.68149069e-01	(9.75000000e-01 9.75000000e-01 5.00000000e-01)
0.03            	U               	(-2.35291803e-04 2.34686321e-04 0.00000000e+00)	(2.50000000e-02 2.50000000e-02 5.00000000e-01)	(-2.35291803e-04 2.34686321e-04 0.00000000e+00)	(2.50000000e-02 2.50000000e-02 5.00000000e-01)
0.03            	p               	-6.84021580e-01	(2.50000000e-02 9.75000000e-01 5.00000000e-01)	7.65419319e-01	(9.75000000e-01 9.75000000e-01 5.00000000e-01)
0.04            	U               	(-2.83918891e-04 2.82807901e-04 0.00000000e+00)	(2.50000000e-02 2.50000000e-02 5.00000000e-01)	(-2.83918891e-04 2.82807901e-04 0.00000000e+00)	(2.50000000e-02 2.50000000e-02 5.00000000e-01)
0.04            	p               	-6.65244721e-01	(2.50000000e-02 9.75000000e-01 5.00000000e-01)	7.50805567e-01	(9.75000000e-01 9.75000000e-01 5.00000000e-01)
0.05            	U               	(-3.20448546e-04 3.18757768e-04 0.00000000e+00)	(2.50000000e-02 2.50000000e-02 5.00000000e-01)	(-3.20448546e-04 3.18757768e-04 0.00000000e+00)	(2.50000000e-02 2.50000000e-02 5.00000000e-01)
0.05            	p               	-6.45871043e-01	(2.50000000e-02 9.75000000e-01 5.00000000e-01)	7.37834731e-01	(9.75000000e-01 9.75000000e-01 5.00000000e-01)
0.06            	U               	(-3.46766148e-04 3.44470940e-04 0.00000000e+00)	(2.50000000e-02 2.50000000e-02 5.00000000e-01)	(-3.46766148e-04 3.44470940e-04 0.00000000e+00)	(2.50000000e-02 2.50000000e-02 5.00000000e-01)
0.06            	p               	-6.26984696e-01	(2.50000000e-02 9.75000000e-01 5.00000000e-01)	7.26698434e-01	(9.75000000e-01 9.75000000e-01 5.00000000e-01)
0.07            	U               	(-3.64543575e-04 3.61665543e-04 0.00000000e+00)	(2.50000000e-02 2.50000000e-02 5.00000000e-01)	(-3.64543575e-04 3.61665543e-04 0.00000000e+00)	(2.50000000e-02 2.50000000e-02 5.00000000e-01)
0.07            	p               	-6.09150338e-01	(2.50000000e-02 9.75000000e-01 5.00000000e-01)	7.17462627e-01	(9.75000000e-01 9.75000000e-01 5.00000000e-01)
0.08            	U               	(-3.75269131e-04 3.71868644e-04 0.00000000e+00)	(2.50000000e-02 2.50000000e-02 5.00000000e-01)	(-3.75269131e-04 3.71868644e-04 0.00000000e+00)	(2.50000000e-02 2.50000000e-02 5.00000000e-01)
0.08            	p               	-5.92606840e-01	(2.50000000e-02 9.75000000e-01 5.00000000e-01)	7.10040356e-01	(9.75000000e-01 9.75000000e-01 5.00000000e-01)
0.09            	U               	(-3.80208592e-04 3.76371793e-04 0.00000000e+00)	(2.50000000e-02 2.50000000e-02 5.00000000e-01)	(-3.80208592e-04 3.76371793e-04 0.00000000e+00)	(2.50000000e-02 2.50000000e-02 5.00000000e-01)
0.09            	p               	-5.77235343e-01	(2.50000000e-02 9.75000000e-01 5.00000000e-01)	7.03974078e-01	(9.75000000e-01 9.75000000e-01 5.00000000e-01)
0.1             	U               	(-3.80423383e-04 3.76252043e-04 0.00000000e+00)	(2.50000000e-02 2.50000000e-02 5.00000000e-01)	(-3.80423383e-04 3.76252043e-04 0.00000000e+00)	(2.50000000e-02 2.50000000e-02 5.00000000e-01)
0.1             	p               	-5.62791159e-01	(2.50000000e-02 9.75000000e-01 5.00000000e-01)	6.98987129e-01	(9.75000000e-01 9.75000000e-01 5.00000000e-01)
0.11            	U               	(-3.76891964e-04 3.72498101e-04 0.00000000e+00)	(2.50000000e-02 2.50000000e-02 5.00000000e-01)	(-3.76891964e-04 3.72498101e-04 0.00000000e+00)	(2.50000000e-02 2.50000000e-02 5.00000000e-01)
0.11            	p               	-5.49959457e-01	(2.50000000e-02 9.75000000e-01 5.00000000e-01)	6.95070115e-01	(9.75000000e-01 9.75000000e-01 5.00000000e-01)
0.12            	U               	(-3.70390726e-04 3.65876528e-04 0.00000000e+00)	(2.50000000e-02 2.50000000e-02 5.00000000e-01)	(-3.70390726e-04 3.65876528e-04 0.00000000e+00)	(2.50000000e-02 2.50000000e-02 5.00000000e-01)
0.12            	p               	-5.37825405e-01	(2.50000000e-02 9.75000000e-01 5.00000000e-01)	6.91889657e-01	(9.75000000e-01 9.75000000e-01 5.00000000e-01)
0.13            	U               	(-3.61585188e-04 3.57049039e-04 0.00000000e+00)	(2.50000000e-02 2.50000000e-02 5.00000000e-01)	(-3.61585188e-04 3.57049039e-04 0.00000000e+00)	(2.50000000e-02 2.50000000e-02 5.00000000e-01)
0.13            	p               	-5.26705445e-01	(2.50000000e-02 9.75000000e-01 5.00000000e-01)	6.89396538e-01	(9.75000000e-01 9.75000000e-01 5.00000000e-01)
0.14            	U               	(-3.51034069e-04 3.46560696e-04 0.00000000e+00)	(2.50000000e-02 2.50000000e-02 5.00000000e-01)	(-3.51034069e-04 3.46560696e-04 0.00000000e+00)	(2.50000000e-02 2.50000000e-02 5.00000000e-01)
0.14            	p               	-5.16468760e-01	(2.50000000e-02 9.75000000e-01 5.00000000e-01)	6.87323893e-01	(9.75000000e-01 9.75000000e-01 5.00000000e-01)
0.15            	U               	(-3.39207234e-04 3.34866068e-04 0.00000000e+00)	(2.50000000e-02 2.50000000e-02 5.00000000e-01)	(-3.39207234e-04 3.34866068e-04 0.00000000e+00)	(2.50000000e-02 2.50000000e-02 5.00000000e-01)
0.15            	p               	-5.07071862e-01	(2.50000000e-02 9.75000000e-01 5.00000000e-01)	6.85767175e-01	(9.75000000e-01 9.75000000e-01 5.00000000e-01)
0.16            	U               	(-3.26500094e-04 3.22346235e-04 0.00000000e+00)	(2.50000000e-02 2.50000000e-02 5.00000000e-01)	(-3.26500094e-04 3.22346235e-04 0.00000000e+00)	(2.50000000e-02 2.50000000e-02 5.00000000e-01)
0.16            	p               	-4.98459647e-01	(2.50000000e-02 9.75000000e-01 5.00000000e-01)	6.84874648e-01	(9.75000000e-01 9.75000000e-01 5.00000000e-01)
0.17            	U               	(-3.13220847e-04 3.09296942e-04 0.00000000e+00)	(2.50000000e-02 2.50000000e-02 5.00000000e-01)	(-3.13220847e-04 3.09296942e-04 0.00000000e+00)	(2.50000000e-02 2.50000000e-02 5.00000000e-01)
0.17            	p               	-4.90489221e-01	(2.50000000e-02 9.75000000e-01 5.00000000e-01)	6.84017703e-01	(9.75000000e-01 9.75000000e-01 5.00000000e-01)
0.18            	U               	(-2.99624060e-04 2.95959514e-04 0.00000000e+00)	(2.50000000e-02 2.50000000e-02 5.00000000e-01)	(-2.99624060e-04 2.95959514e-04 0.00000000e+00)	(2.50000000e-02 2.50000000e-02 5.00000000e-01)
0.18            	p               	-4.83192837e-01	(2.50000000e-02 9.75000000e-01 5.00000000e-01)	6.83373089e-01	(9.75000000e-01 9.75000000e-01 5.00000000e-01)
0.19            	U               	(-2.85913101e-04 2.82527211e-04 0.00000000e+00)	(2.50000000e-02 2.50000000e-02 5.00000000e-01)	(-2.85913101e-04 2.82527211e-04 0.00000000e+00)	(2.50000000e-02 2.50000000e-02 5.00000000e-01)
0.19            	p               	-4.76534588e-01	(2.50000000e-02 9.75000000e-01 5.00000000e-01)	6.82785558e-01	(9.75000000e-01 9.75000000e-01 5.00000000e-01)
0.2             	U               	(-2.72235272e-04 2.69138166e-04 0.00000000e+00)	(2.50000000e-02 2.50000000e-02 5.00000000e-01)	(-2.72235272e-04 2.69138166e-04 0.00000000e+00)	(2.50000000e-02 2.50000000e-02 5.00000000e-01)
0.2             	p               	-4.70327491e-01	(2.50000000e-02 9.75000000e-01 5.00000000e-01)	6.81798698e-01	(9.75000000e-01 9.75000000e-01 5.00000000e-01)
0.21            	U               	(-2.58768022e-04 2.55960943e-04 0.00000000e+00)	(2.50000000e-02 2.50000000e-02 5.00000000e-01)	(-2.58768022e-04 2.55960943e-04 0.00000000e+00)	(2.50000000e-02 2.50000000e-02 5.00000000e-01)
0.21            	p               	-4.64721378e-01	(2.50000000e-02 9.75000000e-01 5.00000000e-01)	6.85303720e-01	(9.75000000e-01 9.75000000e-01 5.00000000e-01)
0.22            	U               	(-2.45597128e-04 2.43077565e-04 0.00000000e+00)	(2.50000000e-02 2.50000000e-02 5.00000000e-01)	(-2.45597128e-04 2.43077565e-04 0.00000000e+00)	(2.50000000e-02 2.50000000e-02 5.00000000e-01)
0.22            	p               	-4.59507253e-01	(2.50000000e-02 9.75000000e-01 5.00000000e-01)	6.86998306e-01	(9.75000000e-01 9.75000000e-01 5.00000000e-01)
0.23            	U               	(-2.32759716e-04 2.30521367e-04 0.00000000e+00)	(2.50000000e-02 2.50000000e-02 5.00000000e-01)	(-2.32759716e-04 2.30521367e-04 0.00000000e+00)	(2.50000000e-02 2.50000000e-02 5.00000000e-01)
0.23            	p               	-4.54644147e-01	(2.50000000e-02 9.75000000e-01 5.00000000e-01)	6.86747749e-01	(9.75000000e-01 9.75000000e-01 5.00000000e-01)
0.24            	U               	(-2.20295258e-04 2.18327863e-04 0.00000000e+00)	(2.50000000e-02 2.50000000e-02 5.00000000e-01)	(-2.20295258e-04 2.18327863e-04 0.00000000e+00)	(2.50000000e-02 2.50000000e-02 5.00000000e-01)
0.24            	p               	-4.50151166e-01	(2.50000000e-02 9.75000000e-01 5.00000000e-01)	6.86874629e-01	(9.75000000e-01 9.75000000e-01 5.00000000e-01)
0.25            	U               	(-2.08236210e-04 2.06528664e-04 0.00000000e+00)	(2.50000000e-02 2.50000000e-02 5.00000000e-01)	(-2.08236210e-04 2.06528664e-04 0.00000000e+00)	(2.50000000e-02 2.50000000e-02 5.00000000e-01)
0.25            	p               	-4.45997520e-01	(2.50000000e-02 9.75000000e-01 5.00000000e-01)	6.87527782e-01	(9.75000000e-01 9.75000000e-01 5.00000000e-01)
0.26            	U               	(-1.96606178e-04 1.95144996e-04 0.00000000e+00)	(2.50000000e-02 2.50000000e-02 5.00000000e-01)	(-1.96606178e-04 1.95144996e-04 0.00000000e+00)	(2.50000000e-02 2.50000000e-02 5.00000000e-01)
0.26            	p               	-4.42149046e-01	(2.50000000e-02 9.75000000e-01 5.00000000e-01)	6.88477246e-01	(9.75000000e-01 9.75000000e-01 5.00000000e-01)
0.27            	U               	(-1.85417651e-04 1.84188502e-04 0.00000000e+00)	(2.50000000e-02 2.50000000e-02 5.00000000e-01)	(-1.85417651e-04 1.84188502e-04 0.00000000e+00)	(2.50000000e-02 2.50000000e-02 5.00000000e-01)
0.27            	p               	-4.38578906e-01	(2.50000000e-02 9.75000000e-01 5.00000000e-01)	6.89577997e-01	(9.75000000e-01 9.75000000e-01 5.00000000e-01)
0.28            	U               	(-1.74658010e-04 1.73646933e-04 0.00000000e+00)	(2.50000000e-02 2.50000000e-02 5.00000000e-01)	(-1.74658010e-04 1.73646933e-04 0.00000000e+00)	(2.50000000e-02 2.50000000e-02 5.00000000e-01)
0.28            	p               	-4.35228273e-01	(2.50000000e-02 9.75000000e-01 5.00000000e-01)	6.88381940e-01	(9.75000000e-01 9.75000000e-01 5.00000000e-01)
0.29            	U               	(-1.64336840e-04 1.63530031e-04 0.00000000e+00)	(2.50000000e-02 2.50000000e-02 5.00000000e-01)	(-1.64336840e-04 1.63530031e-04 0.00000000e+00)	(2.50000000e-02 2.50000000e-02 5.00000000e-01)
0.29            	p               	-4.32140135e-01	(2.50000000e-02 9.75000000e-01 5.00000000e-01)	6.89250630e-01	(9.75000000e-01 9.75000000e-01 5.00000000e-01)
0.3             	U               	(-1.54449723e-04 1.53833146e-04 0.00000000e+00)	(2.50000000e-02 2.50000000e-02 5.00000000e-01)	(-1.54449723e-04 1.53833146e-04 0.00000000e+00)	(2.50000000e-02 2.50000000e-02 5.00000000e-01)
0.3             	p               	-4.29247467e-01	(2.50000000e-02 9.75000000e-01 5.00000000e-01)	6.90253305e-01	(9.75000000e-01 9.75000000e-01 5.00000000e-01)
0.31            	U               	(-1.44987302e-04 1.44547947e-04 0.00000000e+00)	(2.50000000e-02 2.50000000e-02 5.00000000e-01)	(-1.44987302e-04 1.44547947e-04 0.00000000e+00)	(2.50000000e-02 2.50000000e-02 5.00000000e-01)
0.31            	p               	-4.26552299e-01	(2.50000000e-02 9.75000000e-01 5.00000000e-01)	6.91170876e-01	(9.75000000e-01 9.75000000e-01 5.00000000e-01)
0.32            	U               	(-1.35937466e-04 1.35662610e-04 0.00000000e+00)	(2.50000000e-02 2.50000000e-02 5.00000000e-01)	(-1.35937466e-04 1.35662610e-04 0.00000000e+00)	(2.50000000e-02 2.50000000e-02 5.00000000e-01)
0.32            	p               	-4.24030846e-01	(2.50000000e-02 9.75000000e-01 5.00000000e-01)	6.92075055e-01	(9.75000000e-01 9.75000000e-01 5.00000000e-01)
0.33            	U               	(-1.27284976e-04 1.27162637e-04 0.00000000e+00)	(2.50000000e-02 2.50000000e-02 5.00000000e-01)	(-1.27284976e-04 1.27162637e-04 0.00000000e+00)	(2.50000000e-02 2.50000000e-02 5.00000000e-01)
0.33            	p               	-4.21665222e-01	(2.50000000e-02 9.75000000e-01 5.00000000e-01)	6.92996917e-01	(9.75000000e-01 9.75000000e-01 5.00000000e-01)
0.34            	U               	(-1.19013678e-04 1.19032614e-04 0.00000000e+00)	(2.50000000e-02 2.50000000e-02 5.00000000e-01)	(-1.19013678e-04 1.19032614e-04 0.00000000e+00)	(2.50000000e-02 2.50000000e-02 5.00000000e-01)
0.34            	p               	-4.19444016e-01	(2.50000000e-02 9.75000000e-01 5.00000000e-01)	6.93932163e-01	(9.75000000e-01 9.75000000e-01 5.00000000e-01)
0.35            	U               	(-1.11107243e-04 1.11256996e-04 0.00000000e+00)	(2.50000000e-02 2.50000000e-02 5.00000000e-01)	(-1.11107243e-04 1.11256996e-04 0.00000000e+00)	(2.50000000e-02 2.50000000e-02 5.00000000e-01)
0.35            	p               	-4.17357713e-01	(2.50000000e-02 9.75000000e-01 5.00000000e-01)	6.94869124e-01	(9.75000000e-01 9.75000000e-01 5.00000000e-01)
0.36            	U               	(-1.03535671e-04 1.03805986e-04 0.00000000e+00)	(2.50000000e-02 2.50000000e-02 5.00000000e-01)	(-1.03535671e-04 1.03805986e-04 0.00000000e+00)	(2.50000000e-02 2.50000000e-02 5.00000000e-01)
0.36            	p               	-4.15356332e-01	(2.50000000e-02 9.75000000e-01 5.00000000e-01)	6.94652394e-01	(9.75000000e-01 9.75000000e-01 5.00000000e-01)
0.37            	U               	(-9.62951596e-05 9.66775555e-05 0.00000000e+00)	(2.50000000e-02 2.50000000e-02 5.00000000e-01)	(-9.62951596e-05 9.66775555e-05 0.00000000e+00)	(2.50000000e-02 2.50000000e-02 5.00000000e-01)
0.37            	p               	-4.13503776e-01	(2.50000000e-02 9.75000000e-01 5.00000000e-01)	6.95772386e-01	(9.75000000e-01 9.75000000e-01 5.00000000e-01)
0.38            	U               	(-8.93629246e-05 8.98488899e-05 0.00000000e+00)	(2.50000000e-02 2.50000000e-02 5.00000000e-01)	(-8.93629246e-05 8.98488899e-05 0.00000000e+00)	(2.50000000e-02 2.50000000e-02 5.00000000e-01)
0.38            	p               	-4.11725163e-01	(2.50000000e-02 9.75000000e-01 5.00000000e-01)	6.96937399e-01	(9.75000000e-01 9.75000000e-01 5.00000000e-01)
0.39            	U               	(-8.27404274e-05 8.33230799e-05 0.00000000e+00)	(2.50000000e-02 2.50000000e-02 5.00000000e-01)	(-8.27404274e-05 8.33230799e-05 0.00000000e+00)	(2.50000000e-02 2.50000000e-02 5.00000000e-01)
0.39            	p               	-4.10101210e-01	(2.50000000e-02 9.75000000e-01 5.00000000e-01)	6.97851190e-01	(9.75000000e-01 9.75000000e-01 5.00000000e-01)
0.4             	U               	(-7.64042087e-05 7.70755803e-05 0.00000000e+00)	(2.50000000e-02 2.50000000e-02 5.00000000e-01)	(-7.64042087e-05 7.70755803e-05 0.00000000e+00)	(2.50000000e-02 2.50000000e-02 5.00000000e-01)
0.4             	p               	-4.08521803e-01	(2.50000000e-02 9.75000000e-01 5.00000000e-01)	6.98770292e-01	(9.75000000e-01 9.75000000e-01 5.00000000e-01)
0.41            	U               	(-7.03171903e-05 7.10707494e-05 0.00000000e+00)	(2.50000000e-02 2.50000000e-02 5.00000000e-01)	(-7.03171903e-05 7.10707494e-05 0.00000000e+00)	(2.50000000e-02 2.50000000e-02 5.00000000e-01)
0.41            	p               	-4.06984563e-01	(2.50000000e-02 9.75000000e-01 5.00000000e-01)	6.99493161e-01	(9.75000000e-01 9.75000000e-01 5.00000000e-01)
0.42            	U               	(-6.45052541e-05 6.53371171e-05 0.00000000e+00)	(2.50000000e-02 2.50000000e-02 5.00000000e-01)	(-6.45052541e-05 6.53371171e-05 0.00000000e+00)	(2.50000000e-02 2.50000000e-02 5.00000000e-01)
0.42            	p               	-4.05625520e-01	(2.50000000e-02 9.75000000e-01 5.00000000e-01)	7.00737276e-01	(9.75000000e-01 9.75000000e-01 5.00000000e-01)
0.43            	U               	(-5.89405641e-05 5.98429303e-05 0.00000000e+00)	(2.50000000e-02 2.50000000e-02 5.00000000e-01)	(-5.89405641e-05 5.98429303e-05 0.00000000e+00)	(2.50000000e-02 2.50000000e-02 5.00000000e-01)
0.43            	p               	-4.04266587e-01	(2.50000000e-02 9.75000000e-01 5.00000000e-01)	7.01601484e-01	(9.75000000e-01 9.75000000e-01 5.00000000e-01)
0.44            	U               	(-5.36011164e-05 5.45698813e-05 0.00000000e+00)	(2.50000000e-02 2.50000000e-02 5.00000000e-01)	(-5.36011164e-05 5.45698813e-05 0.00000000e+00)	(2.50000000e-02 2.50000000e-02 5.00000000e-01)
0.44            	p               	-4.02965542e-01	(2.50000000e-02 9.75000000e-01 5.00000000e-01)	7.02480258e-01	(9.75000000e-01 9.75000000e-01 5.00000000e-01)
0.45            	U               	(-4.84699939e-05 4.94996708e-05 0.00000000e+00)	(2.50000000e-02 2.50000000e-02 5.00000000e-01)	(-4.84699939e-05 4.94996708e-05 0.00000000e+00)	(2.50000000e-02 2.50000000e-02 5.00000000e-01)
0.45            	p               	-4.01971358e-01	(2.50000000e-02 9.75000000e-01 5.00000000e-01)	7.03279057e-01	(9.75000000e-01 9.75000000e-01 5.00000000e-01)
0.46            	U               	(-4.35441150e-05 4.46327645e-05 0.00000000e+00)	(2.50000000e-02 2.50000000e-02 5.00000000e-01)	(-4.35441150e-05 4.46327645e-05 0.00000000e+00)	(2.50000000e-02 2.50000000e-02 5.00000000e-01)
0.46            	p               	-4.00852736e-01	(2.50000000e-02 9.75000000e-01 5.00000000e-01)	7.04249324e-01	(9.75000000e-01 9.75000000e-01 5.00000000e-01)
0.47            	U               	(-3.88235710e-05 3.99669855e-05 0.00000000e+00)	(2.50000000e-02 2.50000000e-02 5.00000000e-01)	(-3.88235710e-05 3.99669855e-05 0.00000000e+00)	(2.50000000e-02 2.50000000e-02 5.00000000e-01)
0.47            	p               	-3.99736545e-01	(2.50000000e-02 9.75000000e-01 5.00000000e-01)	7.05328938e-01	(9.75000000e-01 9.75000000e-01 5.00000000e-01)
0.48            	U               	(-3.42866934e-05 3.54809437e-05 0.00000000e+00)	(2.50000000e-02 2.50000000e-02 5.00000000e-01)	(-3.42866934e-05 3.54809437e-05 0.00000000e+00)	(2.50000000e-02 2.50000000e-02 5.00000000e-01)
0.48            	p               	-3.98659573e-01	(2.50000000e-02 9.75000000e-01 5.00000000e-01)	7.06179919e-01	(9.75000000e-01 9.75000000e-01 5.00000000e-01)
0.49            	U               	(-2.99191331e-05 3.11616201e-05 0.00000000e+00)	(2.50000000e-02 2.50000000e-02 5.00000000e-01)	(-2.99191331e-05 3.11616201e-05 0.00000000e+00)	(2.50000000e-02 2.50000000e-02 5.00000000e-01)
0.49            	p               	-3.97643519e-01	(2.50000000e-02 9.75000000e-01 5.00000000e-01)	7.07026613e-01	(9.75000000e-01 9.75000000e-01 5.00000000e-01)
0.5             	U               	(-2.57123226e-05 2.70003601e-05 0.00000000e+00)	(2.50000000e-02 2.50000000e-02 5.00000000e-01)	(-2.57123226e-05 2.70003601e-05 0.00000000e+00)	(2.50000000e-02 2.50000000e-02 5.00000000e-01)
0.5             	p               	-3.96742614e-01	(2.50000000e-02 9.75000000e-01 5.00000000e-01)	7.07856428e-01	(9.75000000e-01 9.75000000e-01 5.00000000e-01)
0.51            	U               	(-2.16627208e-05 2.29935562e-05 0.00000000e+00)	(2.50000000e-02 2.50000000e-02 5.00000000e-01)	(-2.16627208e-05 2.29935562e-05 0.00000000e+00)	(2.50000000e-02 2.50000000e-02 5.00000000e-01)
0.51            	p               	-3.96074936e-01	(2.50000000e-02 9.75000000e-01 5.00000000e-01)	7.08685113e-01	(9.75000000e-01 9.75000000e-01 5.00000000e-01)
0.52            	U               	(-1.77528208e-05 1.91257963e-05 0.00000000e+00)	(2.50000000e-02 2.50000000e-02 5.00000000e-01)	(-1.77528208e-05 1.91257963e-05 0.00000000e+00)	(2.50000000e-02 2.50000000e-02 5.00000000e-01)
0.52            	p               	-3.95034613e-01	(2.50000000e-02 9.75000000e-01 5.00000000e-01)	7.09433378e-01	(9.75000000e-01 9.75000000e-01 5.00000000e-01)
0.53            	U               	(-1.39660732e-05 1.53774226e-05 0.00000000e+00)	(2.50000000e-02 2.50000000e-02 5.00000000e-01)	(-1.39660732e-05 1.53774226e-05 0.00000000e+00)	(2.50000000e-02 2.50000000e-02 5.00000000e-01)
0.53            	p               	-3.94090105e-01	(2.50000000e-02 9.75000000e-01 5.00000000e-01)	7.09965499e-01	(9.75000000e-01 9.75000000e-01 5.00000000e-01)
0.54            	U               	(-1.03141865e-05 1.17647959e-05 0.00000000e+00)	(2.50000000e-02 2.50000000e-02 5.00000000e-01)	(-1.03141865e-05 1.17647959e-05 0.00000000e+00)	(2.50000000e-02 2.50000000e-02 5.00000000e-01)
0.54            	p               	-3.93268220e-01	(2.50000000e-02 9.75000000e-01 5.00000000e-01)	7.11094851e-01	(9.75000000e-01 9.75000000e-01 5.00000000e-01)
0.55            	U               	(-6.80328495e-06 8.29098987e-06 0.00000000e+00)	(2.50000000e-02 2.50000000e-02 5.00000000e-01)	(-6.80328495e-06 8.29098987e-06 0.00000000e+00)	(2.50000000e-02 2.50000000e-02 5.00000000e-01)
0.55            	p               	-3.92508474e-01	(2.50000000e-02 9.75000000e-01 5.00000000e-01)	7.12196303e-01	(9.75000000e-01 9.75000000e-01 5.00000000e-01)
0.56            	U               	(-3.41294584e-06 4.93673257e-06 0.00000000e+00)	(2.50000000e-02 2.50000000e-02 5.00000000e-01)	(-3.41294584e-06 4.93673257e-06 0.00000000e+00)	(2.50000000e-02 2.50000000e-02 5.00000000e-01)
0.56            	p               	-3.91746208e-01	(2.50000000e-02 9.75000000e-01 5.00000000e-01)	7.12941498e-01	(9.75000000e-01 9.75000000e-01 5.00000000e-01)
0.57            	U               	(-1.33300451e-07 1.69217320e-06 0.00000000e+00)	(2.50000000e-02 2.50000000e-02 5.00000000e-01)	(-1.33300451e-07 1.69217320e-06 0.00000000e+00)	(2.50000000e-02 2.50000000e-02 5.00000000e-01)
0.57            	p               	-3.91016551e-01	(2.50000000e-02 9.75000000e-01 5.00000000e-01)	7.13697384e-01	(9.75000000e-01 9.75000000e-01 5.00000000e-01)
0.58            	U               	(3.04215440e-06 -1.44911526e-06 0.00000000e+00)	(2.50000000e-02 2.50000000e-02 5.00000000e-01)	(3.04215440e-06 -1.44911526e-06 0.00000000e+00)	(2.50000000e-02 2.50000000e-02 5.00000000e-01)
0.58            	p               	-3.90314034e-01	(2.50000000e-02 9.75000000e-01 5.00000000e-01)	7.14443530e-01	(9.75000000e-01 9.75000000e-01 5.00000000e-01)
0.59            	U               	(6.11833075e-06 -4.49197027e-06 0.00000000e+00)	(2.50000000e-02 2.50000000e-02 5.00000000e-01)	(6.11833075e-06 -4.49197027e-06 0.00000000e+00)	(2.50000000e-02 2.50000000e-02 5.00000000e-01)
0.59            	p               	-3.89638762e-01	(2.50000000e-02 9.75000000e-01 5.00000000e-01)	7.15184207e-01	(9.75000000e-01 9.75000000e-01 5.00000000e-01)
0.6             	U               	(9.09951087e-06 -7.44062555e-06 0.00000000e+00)	(2.50000000e-02 2.50000000e-02 5.00000000e-01)	(9.09951087e-06 -7.44062555e-06 0.00000000e+00)	(2.50000000e-02 2.50000000e-02 5.00000000e-01)
0.6             	p               	-3.88989778e-01	(2.50000000e-02 9.75000000e-01 5.00000000e-01)	7.15917512e-01	(9.75000000e-01 9.75000000e-01 5.00000000e-01)
0.61            	U               	(1.19900978e-05 -1.02994586e-05 0.00000000e+00)	(2.50000000e-02 2.50000000e-02 5.00000000e-01)	(1.19900978e-05 -1.02994586e-05 0.00000000e+00)	(2.50000000e-02 2.50000000e-02 5.00000000e-01)
0.61            	p               	-3.88367334e-01	(2.50000000e-02 9.75000000e-01 5.00000000e-01)	7.16636644e-01	(9.75000000e-01 9.75000000e-01 5.00000000e-01)
0.62            	U               	(1.47923536e-05 -1.30710016e-05 0.00000000e+00)	(2.50000000e-02 2.50000000e-02 5.00000000e-01)	(1.47923536e-05 -1.30710016e-05 0.00000000e+00)	(2.50000000e-02 2.50000000e-02 5.00000000e-01)
0.62            	p               	-3.87756634e-01	(2.50000000e-02 9.75000000e-01 5.00000000e-01)	7.17383741e-01	(9.75000000e-01 9.75000000e-01 5.00000000e-01)
0.63            	U               	(1.75107493e-05 -1.57587654e-05 0.00000000e+00)	(2.50000000e-02 2.50000000e-02 5.00000000e-01)	(1.75107493e-05 -1.57587654e-05 0.00000000e+00)	(2.50000000e-02 2.50000000e-02 5.00000000e-01)
0.63            	p               	-3.87177597e-01	(2.50000000e-02 9.75000000e-01 5.00000000e-01)	7.18095991e-01	(9.75000000e-01 9.75000000e-01 5.00000000e-01)
0.64            	U               	(2.01479208e-05 -1.83661131e-05 0.00000000e+00)	(2.50000000e-02 2.50000000e-02 5.00000000e-01)	(2.01479208e-05 -1.83661131e-05 0.00000000e+00)	(2.50000000e-02 2.50000000e-02 5.00000000e-01)
0.64            	p               	-3.86619954e-01	(2.50000000e-02 9.75000000e-01 5.00000000e-01)	7.18799810e-01	(9.75000000e-01 9.75000000e-01 5.00000000e-01)
0.65            	U               	(2.27067130e-05 -2.08956714e-05 0.00000000e+00)	(2.50000000e-02 2.50000000e-02 5.00000000e-01)	(2.27067130e-05 -2.08956714e-05 0.00000000e+00)	(2.50000000e-02 2.50000000e-02 5.00000000e-01)
0.65            	p               	-3.86084025e-01	(2.50000000e-02 9.75000000e-01 5.00000000e-01)	7.19494122e-01	(9.75000000e-01 9.75000000e-01 5.00000000e-01)
0.66            	U               	(2.51908106e-05 -2.33511134e-05 0.00000000e+00)	(2.50000000e-02 2.50000000e-02 5.00000000e-01)	(2.51908106e-05 -2.33511134e-05 0.00000000e+00)	(2.50000000e-02 2.50000000e-02 5.00000000e-01)
0.66            	p               	-3.85564245e-01	(2.50000000e-02 9.75000000e-01 5.00000000e-01)	7.20187377e-01	(9.75000000e-01 9.75000000e-01 5.00000000e-01)
0.67            	U               	(2.76037789e-05 -2.57359730e-05 0.00000000e+00)	(2.50000000e-02 2.50000000e-02 5.00000000e-01)	(2.76037789e-05 -2.57359730e-05 0.00000000e+00)	(2.50000000e-02 2.50000000e-02 5.00000000e-01)
0.67            	p               	-3.85060977e-01	(2.50000000e-02 9.75000000e-01 5.00000000e-01)	7.20882969e-01	(9.75000000e-01 9.75000000e-01 5.00000000e-01)
0.68            	U               	(2.99458304e-05 -2.80531222e-05 0.00000000e+00)	(2.50000000e-02 2.50000000e-02 5.00000000e-01)	(2.99458304e-05 -2.80531222e-05 0.00000000e+00)	(2.50000000e-02 2.50000000e-02 5.00000000e-01)
0.68            	p               	-3.84579114e-01	(2.50000000e-02 9.75000000e-01 5.00000000e-01)	7.21590515e-01	(9.75000000e-01 9.75000000e-01 5.00000000e-01)
0.69            	U               	(3.22180045e-05 -3.02966360e-05 0.00000000e+00)	(2.50000000e-02 2.50000000e-02 5.00000000e-01)	(3.22180045e-05 -3.02966360e-05 0.00000000e+00)	(2.50000000e-02 2.50000000e-02 5.00000000e-01)
0.69            	p               	-3.84123039e-01	(2.50000000e-02 9.75000000e-01 5.00000000e-01)	7.22438705e-01	(9.75000000e-01 9.75000000e-01 5.00000000e-01)
0.7             	U               	(3.44317617e-05 -3.24852308e-05 0.00000000e+00)	(2.50000000e-02 2.50000000e-02 5.00000000e-01)	(3.44317617e-05 -3.24852308e-05 0.00000000e+00)	(2.50000000e-02 2.50000000e-02 5.00000000e-01)
0.7             	p               	-3.83655217e-01	(2.50000000e-02 9.75000000e-01 5.00000000e-01)	7.22846465e-01	(9.75000000e-01 9.75000000e-01 5.00000000e-01)
0.71            	U               	(3.65946086e-05 -3.46222546e-05 0.00000000e+00)	(2.50000000e-02 2.50000000e-02 5.00000000e-01)	(3.65946086e-05 -3.46222546e-05 0.00000000e+00)	(2.50000000e-02 2.50000000e-02 5.00000000e-01)
0.71            	p               	-3.83205727e-01	(2.50000000e-02 9.75000000e-01 5.00000000e-01)	7.23288237e-01	(9.75000000e-01 9.75000000e-01 5.00000000e-01)
0.72            	U               	(3.87015762e-05 -3.67037953e-05 0.00000000e+00)	(2.50000000e-02 2.50000000e-02 5.00000000e-01)	(3.87015762e-05 -3.67037953e-05 0.00000000e+00)	(2.50000000e-02 2.50000000e-02 5.00000000e-01)
0.72            	p               	-3.82784427e-01	(2.50000000e-02 9.75000000e-01 5.00000000e-01)	7.23936729e-01	(9.75000000e-01 9.75000000e-01 5.00000000e-01)
0.73            	U               	(4.07527665e-05 -3.87294630e-05 0.00000000e+00)	(2.50000000e-02 2.50000000e-02 5.00000000e-01)	(4.07527665e-05 -3.87294630e-05 0.00000000e+00)	(2.50000000e-02 2.50000000e-02 5.00000000e-01)
0.73            	p               	-3.82376194e-01	(2.50000000e-02 9.75000000e-01 5.00000000e-01)	7.24565878e-01	(9.75000000e-01 9.75000000e-01 5.00000000e-01)
0.74            	U               	(4.27503191e-05 -4.07016562e-05 0.00000000e+00)	(2.50000000e-02 2.50000000e-02 5.00000000e-01)	(4.27503191e-05 -4.07016562e-05 0.00000000e+00)	(2.50000000e-02 2.50000000e-02 5.00000000e-01)
0.74            	p               	-3.81980259e-01	(2.50000000e-02 9.75000000e-01 5.00000000e-01)	7.25183638e-01	(9.75000000e-01 9.75000000e-01 5.00000000e-01)
0.75            	U               	(4.46923098e-05 -4.26184525e-05 0.00000000e+00)	(2.50000000e-02 2.50000000e-02 5.00000000e-01)	(4.46923098e-05 -4.26184525e-05 0.00000000e+00)	(2.50000000e-02 2.50000000e-02 5.00000000e-01)
0.75            	p               	-3.81603205e-01	(2.50000000e-02 9.75000000e-01 5.00000000e-01)	7.25777712e-01	(9.75000000e-01 9.75000000e-01 5.00000000e-01)
0.76            	U               	(4.65822904e-05 -4.44833815e-05 0.00000000e+00)	(2.50000000e-02 2.50000000e-02 5.00000000e-01)	(4.65822904e-05 -4.44833815e-05 0.00000000e+00)	(2.50000000e-02 2.50000000e-02 5.00000000e-01)
0.76            	p               	-3.81229661e-01	(2.50000000e-02 9.75000000e-01 5.00000000e-01)	7.26370560e-01	(9.75000000e-01 9.75000000e-01 5.00000000e-01)
0.77            	U               	(4.84312331e-05 -4.63076033e-05 0.00000000e+00)	(2.50000000e-02 2.50000000e-02 5.00000000e-01)	(4.84312331e-05 -4.63076033e-05 0.00000000e+00)	(2.50000000e-02 2.50000000e-02 5.00000000e-01)
0.77            	p               	-3.80834279e-01	(2.50000000e-02 9.75000000e-01 5.00000000e-01)	7.26994794e-01	(9.75000000e-01 9.75000000e-01 5.00000000e-01)
0.78            	U               	(5.02386054e-05 -4.80902113e-05 0.00000000e+00)	(2.50000000e-02 2.50000000e-02 5.00000000e-01)	(5.02386054e-05 -4.80902113e-05 0.00000000e+00)	(2.50000000e-02 2.50000000e-02 5.00000000e-01)