/*--------------------------------*- C++ -*----------------------------------*\
| =========                 |                                                 |
| \\      /  F ield         | OpenFOAM: The Open Source CFD Toolbox           |
|  \\    /   O peration     | Version:  2112                                  |
|   \\  /    A nd           | Website:  www.openfoam.com                      |
|    \\/     M anipulation  |                                                 |
\*---------------------------------------------------------------------------*/
FoamFile
{
    version     2.0;
    format      ascii;
    arch        "LSB;label=32;scalar=64";
    class       surfaceScalarField;
    location    "63.5";
    object      phi;
}
// * * * * * * * * * * * * * * * * * * * * * * * * * * * * * * * * * * * * * //

dimensions      [0 3 -1 0 0 0 0];

oriented        oriented;

internalField   nonuniform List<scalar> 
17370
(
-0.0916063
0.0960093
0.284608
-0.0775944
0.0594197
0.36495
-0.0430419
0.0316221
0.427588
-0.0223183
0.0162659
0.505304
-0.0116733
0.00880012
0.602275
-0.00658979
0.00510547
0.720542
-0.00386895
0.00298873
0.863787
-0.00221559
0.00163697
1.03603
-0.00110478
0.000683048
1.24292
-0.000270928
-0.000123674
1.49159
0.000512776
-0.000927612
1.49161
0.00133303
-0.00183815
1.2432
0.00238813
-0.00312969
1.03638
0.00398534
-0.00520263
0.864124
0.00667583
-0.00887698
0.721259
0.0117402
-0.0163179
0.603792
0.0223546
-0.0316411
0.508726
0.043042
-0.0594086
0.432535
0.0775875
-0.0960029
0.365191
0.0916212
0.19739
-0.127092
0.0880241
0.0390679
-0.364357
0.354032
-0.071474
0.0817993
-0.446654
0.454256
-0.0791684
0.0715663
-0.521012
0.529111
-0.0637124
0.0556125
-0.612992
0.620762
-0.0482248
0.040455
-0.727165
0.733686
-0.0338429
0.0273219
-0.867582
0.872435
-0.0221174
0.017264
-1.03857
1.04191
-0.0135642
0.0102229
-1.24472
1.24713
-0.00767005
0.00526152
-1.49284
1.49486
-0.00329469
0.00127719
-1.49269
1.49452
0.000544798
-0.0023673
-1.2441
1.24602
0.00434292
-0.00625607
-1.03761
1.04008
0.00859225
-0.0110704
-0.866186
0.869811
0.0143262
-0.0179515
-0.724593
0.729744
0.0227343
-0.0278857
-0.609063
0.615631
0.0343567
-0.0409245
-0.515122
0.522457
0.0486429
-0.0559773
-0.43988
0.447656
0.0639976
-0.0717736
-0.374705
0.377355
0.0792651
-0.0819148
-0.256895
0.224432
0.0715643
-0.0391013
-0.0688136
0.0592031
0.00961045
-0.0520998
0.058924
-0.37484
0.368016
-0.0580745
0.054231
-0.453949
0.457792
-0.048743
0.0441826
-0.527621
0.532181
-0.0396317
0.0357347
-0.620806
0.624703
-0.0315199
0.0275224
-0.734665
0.738662
-0.0231621
0.0192712
-0.873961
0.877852
-0.0152217
0.0117607
-1.04337
1.04683
-0.0082368
0.00520006
-1.24866
1.25169
-0.0019881
-0.000996748
-1.49695
1.49993
0.00395926
-0.00711003
-1.49742
1.50057
0.0100568
-0.0134581
-1.25006
1.25346
0.0167929
-0.0206964
-1.04564
1.04955
0.024458
-0.0286902
-0.87713
0.881362
0.0325848
-0.0366988
-0.738975
0.743089
0.0405129
-0.0449823
-0.625963
0.630433
0.0494744
-0.0548955
-0.53501
0.540431
0.0586613
-0.0594187
-0.458069
0.458827
0.0524664
-0.0320719
-0.336754
0.316359
0.00967574
-0.0686561
0.0589803
-0.0534157
0.0493061
0.00410962
-0.0332307
0.0436486
-0.358574
0.348156
-0.0473197
0.0467297
-0.459588
0.460178
-0.0437986
0.0405839
-0.536141
0.539356
-0.0369046
0.0335475
-0.628407
0.631764
-0.0299105
0.0266656
-0.742047
0.745291
-0.0232076
0.0200048
-0.88135
0.884553
-0.0164056
0.0130481
-1.05026
1.05362
-0.00934265
0.00593249
-1.25496
1.25837
-0.00213632
-0.00148393
-1.50328
1.5069
0.0050722
-0.00877557
-1.50406
1.50776
0.012059
-0.0155906
-1.25702
1.26055
0.0187692
-0.0221611
-1.05325
1.05664
0.0251798
-0.0284547
-0.884966
0.888241
0.0315519
-0.0350437
-0.746767
0.750259
0.0382783
-0.0418304
-0.634548
0.6381
0.0449347
-0.047742
-0.544569
0.547377
0.0482035
-0.0443537
-0.456936
0.453087
0.0337164
-0.0163904
-0.297032
0.279706
0.00418191
-0.0531274
0.0489455
-0.0461389
0.0435858
0.00255312
-0.0230302
0.0333708
-0.337572
0.327232
-0.0390964
0.0400397
-0.459933
0.45899
-0.0387835
0.0364516
-0.542017
0.544348
-0.0338051
0.0312544
-0.634737
0.637287
-0.028272
0.0254184
-0.748382
0.751236
-0.0221736
0.0191531
-0.887615
0.890635
-0.0157944
0.0126532
-1.0568
1.05994
-0.00908852
0.00568183
-1.26177
1.26517
-0.00176541
-0.00203575
-1.51064
1.51444
0.00579555
-0.00958684
-1.51154
1.51533
0.0128258
-0.0161625
-1.264
1.26734
0.0190693
-0.0221571
-1.05984
1.06293
0.0249343
-0.027932
-0.89143
0.894428
0.0305826
-0.033364
-0.753431
0.756213
0.0357467
-0.0382232
-0.641046
0.643522
0.0404095
-0.0414744
-0.549204
0.550269
0.0403317
-0.034315
-0.447951
0.441934
0.0236543
-0.0103892
-0.264503
0.251238
0.00264279
-0.0456974
0.0430546
-0.0414703
0.039673
0.0017973
-0.0169226
0.0261954
-0.317374
0.308101
-0.0327788
0.0348899
-0.457437
0.455326
-0.0344472
0.0327417
-0.546384
0.54809
-0.0305064
0.0283712
-0.639606
0.641741
-0.0259247
0.0235374
-0.753844
0.756231
-0.0207122
0.0179559
-0.8935
0.896257
-0.0147608
0.0117164
-1.06299
1.06603
-0.00824136
0.00491761
-1.2685
1.27182
-0.00107091
-0.00268045
-1.51821
1.52196
0.00637841
-0.010067
-1.51907
1.52276
0.0131775
-0.016363
-1.2706
1.27379
0.0191089
-0.0219565
-1.06595
1.0688
0.0243981
-0.0269037
-0.897203
0.899708
0.0290298
-0.0312193
-0.758644
0.760833
0.033141
-0.035157
-0.64574
0.647756
0.0366505
-0.036832
-0.550839
0.551021
0.0344144
-0.0274045
-0.435325
0.428315
0.0177023
-0.00749312
-0.239643
0.229434
0.00190714
-0.04084
0.0389329
-0.0381267
0.0367787
0.00134791
-0.0129189
0.0209017
-0.299476
0.291493
-0.027652
0.0305608
-0.452783
0.449874
-0.030756
0.0296215
-0.549536
0.550671
-0.0276122
0.0256755
-0.643808
0.645745
-0.0234513
0.0212982
-0.758485
0.760638
-0.0187768
0.016296
-0.898817
0.901298
-0.0133624
0.0104949
-1.06894
1.07181
-0.00715295
0.00392665
-1.27507
1.27829
-0.000185245
-0.00344957
-1.52563
1.52927
0.00701821
-0.0105611
-1.52637
1.52991
0.0135212
-0.0165015
-1.27689
1.27987
0.0189951
-0.0214923
-1.07152
1.07401
0.0235786
-0.0256987
-0.902009
0.904129
0.0275215
-0.0294186
-0.762863
0.76476
0.0310851
-0.0328315
-0.649613
0.65136
0.0336563
-0.0330965
-0.550833
0.550274
0.0297493
-0.0224147
-0.421086
0.413751
0.0138802
-0.00579586
-0.220388
0.212304
0.00148187
-0.0372656
0.0357838
-0.0356018
0.034565
0.00103687
-0.0100896
0.0168441
-0.284148
0.277394
-0.0233407
0.026709
-0.446714
0.443346
-0.0274791
0.0267755
-0.551581
0.552285
-0.0249982
0.0232037
-0.647649
0.649443
-0.0211281
0.0191093
-0.762723
0.764742
-0.0167341
0.0144031
-0.90364
0.905971
-0.0116612
0.0089728
-1.07452
1.07721
-0.00581053
0.00272522
-1.28141
1.28449
0.000875316
-0.00437458
-1.53281
1.53631
0.00779126
-0.0111468
-1.53335
1.5367
0.0139019
-0.0166164
-1.28273
1.28544
0.0188438
-0.0210471
-1.0764
1.0786
0.02289
-0.0247678
-0.906142
0.908019
0.0263771
-0.0280473
-0.766535
0.768205
0.029507
-0.0309222
-0.652958
0.654373
0.0312398
-0.0299519
-0.549365
0.548077
0.0259797
-0.0187143
-0.406426
0.399161
0.0112671
-0.00467251
-0.205035
0.19844
0.00119972
-0.0344597
0.03326
-0.0336545
0.0328478
0.000806724
-0.00799215
0.0136704
-0.271205
0.265527
-0.0196874
0.0232583
-0.439864
0.436293
-0.0245089
0.0240526
-0.552895
0.553351
-0.0225472
0.0208623
-0.651231
0.652916
-0.018883
0.0169538
-0.766714
0.768643
-0.0146797
0.0124444
-0.908192
0.910427
-0.00981117
0.007237
-1.07977
1.08234
-0.00422093
0.00127649
-1.28746
1.2904
0.0021591
-0.00549274
-1.53969
1.54303
0.0087264
-0.0118625
-1.53993
1.54307
0.0144012
-0.0168714
-1.28804
1.29051
0.0188818
-0.0208535
-1.08075
1.08272
0.0224884
-0.0241505
-0.909808
0.91147
0.0255762
-0.0270562
-0.769771
0.771251
0.0283237
-0.0293608
-0.655578
0.656615
0.0293067
-0.0273495
-0.54646
0.544503
0.0229721
-0.0159692
-0.392023
0.38502
0.00943117
-0.00389607
-0.192427
0.186892
0.00100465
-0.0321707
0.031166
-0.0321388
0.0315098
0.000628988
-0.0063764
0.0111344
-0.260336
0.255578
-0.0165641
0.0201399
-0.432717
0.429142
-0.0217176
0.021488
-0.553727
0.553957
-0.0202164
0.0185939
-0.654616
0.656238
-0.0166717
0.0147933
-0.770543
0.772422
-0.0125803
0.0104068
-0.912559
0.914733
-0.00784804
0.00534958
-1.0848
1.0873
-0.00243008
-0.000398237
-1.29323
1.29606
0.00368737
-0.00685337
-1.54624
1.54941
0.00989549
-0.012815
-1.54607
1.54899
0.0151569
-0.0174143
-1.29288
1.29514
0.0192285
-0.0209818
-1.08465
1.08641
0.0224208
-0.0238837
-0.913056
0.914519
0.0251443
-0.0264516
-0.772637
0.773944
0.0275731
-0.0281924
-0.657434
0.658053
0.0277684
-0.0252482
-0.542281
0.53976
0.0206226
-0.0139503
-0.378193
0.37152
0.00813186
-0.00335447
-0.181775
0.176997
0.000869402
-0.0302397
0.0293703
-0.0309602
0.0304749
0.000485269
-0.00507753
0.00904203
-0.251241
0.247277
-0.0138385
0.0172696
-0.425643
0.422212
-0.0190341
0.0189967
-0.554129
0.554166
-0.0179242
0.0163378
-0.657906
0.659493
-0.0144407
0.0125793
-0.774284
0.776146
-0.0103865
0.00823822
-0.91681
0.918959
-0.0057185
0.003269
-1.08969
1.09214
-0.000420781
-0.00233025
-1.29879
1.30154
0.00549539
-0.00851081
-1.55246
1.55547
0.011376
-0.0140938
-1.55178
1.5545
0.0162475
-0.0182953
-1.2973
1.29934
0.019916
-0.021457
-1.08814
1.08968
0.0227119
-0.023994
-0.915915
0.917197
0.0251066
-0.0262561
-0.775162
0.776311
0.0271888
-0.0274288
-0.658475
0.658715
0.0266091
-0.0236126
-0.537018
0.534022
0.018838
-0.0124897
-0.365029
0.358681
0.00722035
-0.0029813
-0.172522
0.168283
0.000777753
-0.0285568
0.027779
-0.0300569
0.029693
0.000363868
-0.00399055
0.00725821
-0.243683
0.240415
-0.0114092
0.0145853
-0.41892
0.415744
-0.0164102
0.0165275
-0.554172
0.554055
-0.0155401
0.0140272
-0.661117
0.66263
-0.012127
0.0102504
-0.778004
0.77988
-0.00804096
0.0058841
-0.921016
0.923173
-0.00336765
0.000934217
-1.09449
1.09692
0.00187863
-0.00457162
-1.30419
1.30688
0.00764216
-0.0105314
-1.55838
1.56127
0.0132394
-0.0157686
-1.55709
1.55962
0.0177404
-0.0195834
-1.30129
1.30313
0.021015
-0.0223468
-1.09123
1.09256
0.0234201
-0.0245264
-0.918418
0.919524
0.0254948
-0.0264761
-0.777367
0.778348
0.0271518
-0.0271007
-0.658826
0.658775
0.0258507
-0.0224319
-0.530829
0.527411
0.0175533
-0.0114751
-0.352494
0.346416
0.00660494
-0.00273598
-0.164259
0.16039
0.000719545
-0.0270404
0.0263209
-0.029389
0.0291332
0.000255755
-0.00303898
0.00567812
-0.237482
0.234843
-0.00918398
0.0120221
-0.412753
0.409915
-0.013794
0.0139957
-0.553946
0.553744
-0.0130528
0.0115864
-0.664201
0.665668
-0.00966188
0.00774182
-0.78176
0.78368
-0.00548038
0.00328067
-0.925242
0.927442
-0.00072922
-0.00172445
-1.09925
1.10171
0.00453744
-0.00720498
-1.30949
1.31216
0.0102114
-0.013
-1.56406
1.56685
0.0155692
-0.0179208
-1.56203
1.56438
0.0197158
-0.0213572
-1.30488
1.30652
0.0225999
-0.0237191
-1.09392
1.09504
0.0246069
-0.0255357
-0.920572
0.921501
0.0263604
-0.0271682
-0.779227
0.780035
0.0275538
-0.0272262
-0.658582
0.658254
0.0255278
-0.021702
-0.523808
0.519982
0.0167212
-0.0108309
-0.340468
0.334577
0.00622644
-0.0025922
-0.156669
0.153035
0.000688005
-0.0256278
0.0249398
-0.0289339
0.0287807
0.000153191
-0.00215882
0.00420852
-0.232516
0.230467
-0.00706467
0.00949461
-0.407301
0.404871
-0.0111049
0.0113113
-0.5536
0.553394
-0.0103789
0.00892004
-0.667229
0.668688
-0.00694361
0.00494974
-0.785609
0.787603
-0.00260082
0.000327008
-0.929555
0.931829
0.00230098
-0.00480741
-1.10407
1.10658
0.00765695
-0.0103293
-1.31474
1.31742
0.0132992
-0.0160047
-1.56954
1.57225
0.0184454
-0.0206251
-1.5666
1.56878
0.0222468
-0.0236888
-1.30805
1.30949
0.024738
-0.0256291
-1.09621
1.0971
0.0263149
-0.0270506
-0.922363
0.923098
0.0277242
-0.028389
-0.780728
0.781393
0.0284628
-0.0277614
-0.657708
0.657007
0.0256188
-0.0213913
-0.515999
0.511772
0.0162854
-0.0104916
-0.32878
0.322986
0.00603762
-0.00252893
-0.149495
0.145986
0.000677543
-0.0242684
0.0235909
-0.0286833
0.0286338
4.95543e-05
-0.00130145
0.00277684
-0.22872
0.227244
-0.0049698
0.00692867
-0.402699
0.40074
-0.00827464
0.00840437
-0.553298
0.553169
-0.00743671
0.00594931
-0.670281
0.671768
-0.00388337
0.00178426
-0.78961
0.791709
0.000689457
-0.00307922
-0.93402
0.936409
0.00582117
-0.00841851
-1.10901
1.1116
0.011344
-0.0140546
-1.32002
1.32273
0.0170189
-0.0196629
-1.57487
1.57751
0.0219867
-0.0239966
-1.57083
1.57284
0.0254413
-0.0266789
-1.31081
1.31204
0.0275299
-0.0281887
-1.09808
1.09873
0.0286652
-0.0291934
-0.923766
0.924295
0.0297021
-0.0301602
-0.781869
0.782327
0.0299431
-0.0288044
-0.65607
0.654931
0.0261767
-0.0215162
-0.507397
0.502737
0.0162308
-0.0104278
-0.317242
0.311439
0.00601561
-0.0025361
-0.142526
0.139047
0.000685642
-0.0229219
0.0222363
-0.02864
0.0287005
-6.04875e-05
-0.000420331
0.00131689
-0.226071
0.225175
-0.00281932
0.00424212
-0.399071
0.397648
-0.00522073
0.00518873
-0.553208
0.55324
-0.00412975
0.00256216
-0.67344
0.675007
-0.000374897
-0.00186915
-0.793824
0.796068
0.00451621
-0.00706111
-0.938715
0.94126
0.00996502
-0.0126946
-1.11413
1.11685
0.0157384
-0.0185217
-1.32537
1.32816
0.0215128
-0.024117
-1.58007
1.58267
0.0263365
-0.0281784
-1.57472
1.57656
0.0294384
-0.0304557
-1.31313
1.31415
0.0310927
-0.0315083
-1.0995
1.09991
0.0317664
-0.0320726
-0.924751
0.925058
0.0323924
-0.0325742
-0.782484
0.782666
0.0320744
-0.0303827
-0.653563
0.651871
0.0272307
-0.0220887
-0.497936
0.492794
0.0165489
-0.0106219
-0.305638
0.299711
0.00614637
-0.00260709
-0.135574
0.132035
0.000710428
-0.0215518
0.0208413
-0.0288168
0.0289924
-0.000175539
0.000501719
-0.000217407
-0.224595
0.224311
-0.000544295
0.00135246
-0.396546
0.395737
-0.00185202
0.00157416
-0.553507
0.553785
-0.000363441
-0.00135816
-0.67682
0.678542
0.00372767
-0.00616513
-0.798339
0.800776
0.00903518
-0.0117824
-0.943724
0.946471
0.0148988
-0.0178051
-1.11952
1.12242
0.021012
-0.0239028
-1.33088
1.33377
0.0269484
-0.0295264
-1.58519
1.58777
0.0316427
-0.0333082
-1.57826
1.57992
0.0343755
-0.035154
-1.315
1.31577
0.0355634
-0.0357211
-1.10043
1.10059
0.035744
-0.0358103
-0.925279
0.925345
0.035933
-0.0357581
-0.78247
0.782295
0.0348815
-0.032584
-0.650001
0.647703
0.0288367
-0.0231303
-0.487499
0.481792
0.0172376
-0.0110611
-0.293732
0.287556
0.00641847
-0.00273586
-0.128463
0.124781
0.000749986
-0.0201257
0.0193757
-0.0292492
0.0295689
-0.000319652
0.00151162
-0.00187042
-0.224376
0.224735
0.00195567
-0.00187263
-0.395248
0.395165
0.00198272
-0.00261647
-0.554417
0.555051
0.0040551
-0.00596947
-0.680565
0.682479
0.00857318
-0.0112547
-0.803237
0.805919
0.0144072
-0.0174128
-0.949141
0.952147
0.0208025
-0.0239374
-1.12527
1.1284
0.0273571
-0.0303919
-1.33661
1.33964
0.0335201
-0.036085
-1.59026
1.59283
0.0380949
-0.0395626
-1.58143
1.58289
0.0404174
-0.0409447
-1.31635
1.31687
0.0411098
-0.0409849
-1.10082
1.10069
0.0407478
-0.0405534
-0.925295
0.9251
0.0404707
-0.0398243
-0.781683
0.781037
0.0384901
-0.0354942
-0.645256
0.64226
0.0310564
-0.0246703
-0.475905
0.469519
0.0183031
-0.01174
-0.281269
0.274706
0.00682492
-0.00291815
-0.121029
0.117122
0.000802863
-0.0186148
0.017812
-0.0299587
0.0304558
-0.000497069
0.00279819
-0.0039123
-0.225486
0.2266
0.00486515
-0.00558247
-0.395405
0.396122
0.00641013
-0.00750897
-0.556158
0.557257
0.00926527
-0.0114501
-0.684774
0.686959
0.0143701
-0.0173668
-0.80863
0.811626
0.020877
-0.0242062
-0.955081
0.958411
0.0279348
-0.0313517
-1.13149
1.13491
0.0350331
-0.0382448
-1.34263
1.34584
0.0414749
-0.0440248
-1.5953
1.59785
0.0459108
-0.0471576
-1.58418
1.58543
0.0477533
-0.0480096
-1.31714
1.31739
0.0479081
-0.0474756
-1.1006
1.10016
0.0469564
-0.0464832
-0.92473
0.924257
0.0460801
-0.0449831
-0.779967
0.77887
0.043051
-0.0392143
-0.639128
0.635291
0.0339505
-0.0267314
-0.462912
0.455693
0.019745
-0.0126477
-0.267971
0.260874
0.00735444
-0.00314709
-0.113111
0.108904
0.00086656
-0.0169939
0.0161274
-0.0310208
0.0317397
-0.00071885
0.00430082
-0.00630619
-0.228124
0.23013
0.00831944
-0.00994714
-0.397223
0.39885
0.0116018
-0.0132825
-0.558997
0.560677
0.0154927
-0.0180472
-0.689613
0.692168
0.0213904
-0.0247872
-0.814663
0.81806
0.0287425
-0.0324694
-0.961677
0.965404
0.03661
-0.0403653
-1.13828
1.14203
0.0443547
-0.0477675
-1.349
1.35241
0.0511031
-0.0536205
-1.60029
1.60281
0.0553485
-0.0563301
-1.58648
1.58746
0.0566274
-0.0565645
-1.31731
1.31724
0.0561597
-0.0553847
-1.09971
1.09893
0.0545545
-0.0537606
-0.923537
0.922743
0.0529549
-0.0513457
-0.777353
0.775744
0.0486742
-0.0438319
-0.631334
0.626492
0.0375718
-0.0293287
-0.448202
0.439958
0.0215555
-0.013766
-0.25354
0.24575
0.00798995
-0.00341243
-0.104561
0.0999835
0.000937413
-0.0152428
0.0143054
-0.0325194
0.0335261
-0.00100667
0.00618227
-0.00924356
-0.232542
0.235604
0.0125328
-0.0152216
-0.400971
0.40366
0.0178461
-0.0202339
-0.563209
0.565597
0.0230377
-0.0260808
-0.695294
0.698337
0.0299752
-0.0338764
-0.821508
0.825409
0.0383806
-0.0425903
-0.969081
0.97329
0.0472222
-0.0513692
-1.14575
1.1499
0.055699
-0.0593171
-1.35576
1.35938
0.0627355
-0.065175
-1.60519
1.60763
0.0666849
-0.0673283
-1.5882
1.58885
0.0672666
-0.0668157
-1.31671
1.31626
0.0660757
-0.0649129
-1.09807
1.0969
0.0637313
-0.0626229
-0.921637
0.920529
0.0612868
-0.0590675
-0.773707
0.771487
0.0554991
-0.0494251
-0.621523
0.615449
0.0419461
-0.0324447
-0.431383
0.421881
0.0236964
-0.0150535
-0.237659
0.229016
0.00869895
-0.0036967
-0.0952465
0.0902443
0.00100963
-0.01335
0.0123404
-0.0345797
0.0359852
-0.00140544
0.00864492
-0.0130572
-0.239063
0.243475
0.0178403
-0.0217702
-0.407016
0.410946
0.0255376
-0.0287841
-0.569123
0.572369
0.0323569
-0.0360462
-0.702076
0.705765
0.0406542
-0.0451909
-0.829366
0.833903
0.0503622
-0.0551403
-0.977463
0.982241
0.060329
-0.0648969
-1.154
1.15857
0.0695633
-0.0733487
-1.3629
1.36669
0.0767704
-0.0790298
-1.60987
1.61213
0.0802106
-0.0804087
-1.58919
1.58939
0.0799167
-0.0789692
-1.31522
1.31427
0.0778407
-0.0762668
-1.09555
1.09398
0.0747266
-0.0732038
-0.919001
0.917479
0.0713357
-0.0683272
-0.768798
0.765789
0.0636278
-0.0560258
-0.609227
0.601625
0.0470494
-0.0360128
-0.411984
0.400947
0.0260869
-0.0164376
-0.220017
0.210367
0.00942924
-0.00397363
-0.0850713
0.0796157
0.00107492
-0.0113167
0.0102417
-0.0374028
0.0393689
-0.00196606
0.0120615
-0.0181997
-0.248203
0.254342
0.0247849
-0.0301679
-0.415859
0.421242
0.0352885
-0.0395899
-0.577134
0.581435
0.0441448
-0.0486847
-0.710298
0.714838
0.0542119
-0.0595291
-0.838494
0.843812
0.0654801
-0.0708881
-0.986988
0.992396
0.0766536
-0.0816158
-1.16306
1.16803
0.0865405
-0.0903821
-1.37031
1.37415
0.0936501
-0.0955641
-1.6141
1.61601
0.0962516
-0.095847
-1.5892
1.58879
0.0948138
-0.0932678
-1.31267
1.31112
0.0916634
-0.0896524
-1.09207
1.09006
0.0877334
-0.0856551
-0.915393
0.913315
0.0832657
-0.0792059
-0.762191
0.758132
0.0730797
-0.0635796
-0.593835
0.584335
0.0527697
-0.0398858
-0.389459
0.376575
0.0285802
-0.0178004
-0.200328
0.189548
0.010102
-0.00420604
-0.0739994
0.0681034
0.00112224
-0.00916164
0.0080394
-0.0413072
0.0441447
-0.00283751
0.0170267
-0.0254234
-0.260707
0.269104
0.0342508
-0.0413899
-0.428164
0.435304
0.0481561
-0.0537239
-0.587729
0.593297
0.0595513
-0.0652026
-0.720385
0.726036
0.0718474
-0.0780579
-0.849158
0.855368
0.0848429
-0.0908651
-0.99775
1.00377
0.0971216
-0.102341
-1.17283
1.17805
0.107318
-0.11099
-1.3777
1.38137
0.113827
-0.115132
-1.6175
1.6188
0.115084
-0.113862
-1.58789
1.58667
0.112119
-0.109866
-1.30886
1.30661
0.107703
-0.105199
-1.08754
1.08503
0.102875
-0.100122
-0.910479
0.907726
0.097072
-0.0916524
-0.753347
0.747927
0.0837428
-0.0718918
-0.574567
0.562716
0.0588587
-0.0438014
-0.363217
0.34816
0.0309416
-0.01897
-0.178394
0.166423
0.0106095
-0.0043462
-0.0620901
0.0558268
0.00113806
-0.00692678
0.00578872
-0.0468732
0.0511858
-0.00431251
0.0247239
-0.0361987
-0.277731
0.289205
0.0479431
-0.0574124
-0.444963
0.454432
0.0662035
-0.0732345
-0.601509
0.60854
0.080593
-0.0877465
-0.732695
0.739849
0.09557
-0.102591
-0.861554
0.868575
0.110044
-0.116461
-1.00964
1.01606
0.122891
-0.128027
-1.18294
1.18808
0.132644
-0.135752
-1.38454
1.38765
0.137721
-0.138021
-1.61947
1.61977
0.136897
-0.134592
-1.5848
1.58249
0.131965
-0.128873
-1.30356
1.30047
0.126064
-0.123015
-1.08181
1.07876
0.120193
-0.116724
-0.904086
0.900617
0.112709
-0.105486
-0.741568
0.734346
0.0952875
-0.0805436
-0.550444
0.5357
0.064883
-0.0473717
-0.332683
0.315171
0.0328591
-0.0197386
-0.154193
0.141072
0.0108296
-0.00434302
-0.0495399
0.0430533
0.00110788
-0.0046801
0.00357222
-0.055175
0.0625802
-0.0074052
0.0382433
-0.0542
-0.30143
0.317387
0.0700265
-0.082718
-0.467906
0.480598
0.0936944
-0.102084
-0.618914
0.627304
0.11094
-0.119359
-0.747622
0.756042
0.12809
-0.135508
-0.875383
0.882802
0.143044
-0.149251
-1.02204
1.02825
0.15517
-0.159579
-1.19257
1.19698
0.163154
-0.165074
-1.38994
1.39186
0.165582
-0.164412
-1.61915
1.61798
0.161846
-0.158151
-1.5794
1.5757
0.154404
-0.15028
-1.29647
1.29235
0.146744
-0.143147
-1.07471
1.07111
0.13969
-0.135391
-0.895994
0.891695
0.129926
-0.120221
-0.725807
0.716102
0.107037
-0.0887554
-0.520251
0.501969
0.0701732
-0.0501238
-0.297416
0.277367
0.0340404
-0.019977
-0.127997
0.113933
0.0107149
-0.00419032
-0.0367186
0.0301941
0.00103003
-0.00251743
0.0014874
-0.069478
0.0736253
-0.00414731
0.0292947
-0.0431186
-0.335821
0.349645
0.0571373
-0.0687574
-0.498451
0.510072
0.0791454
-0.0888002
-0.639525
0.649179
0.0995503
-0.109389
-0.764062
0.773901
0.120318
-0.13006
-0.889348
0.89909
0.140434
-0.14965
-1.03351
1.04272
0.159244
-0.167431
-1.20029
1.20848
0.175503
-0.181868
-1.39261
1.39897
0.187414
-0.190868
-1.6156
1.61905
0.192206
-0.192011
-1.57099
1.5708
0.190721
-0.188701
-1.28722
1.2852
0.18701
-0.184924
-1.06604
1.06396
0.182799
-0.178592
-0.885593
0.881387
0.170958
-0.156436
-0.70455
0.690028
0.136531
-0.110023
-0.482705
0.456196
0.0845053
-0.0582436
-0.257323
0.231062
0.0383515
-0.021822
-0.100541
0.0840115
0.0113827
-0.00432602
-0.0241855
0.0171289
0.00103515
-0.000537759
-0.000497387
-0.0808096
0.0789663
0.00184336
0.00751422
-0.0166242
-0.36628
0.37539
0.0272718
-0.0354989
-0.526379
0.534606
0.0438302
-0.0519992
-0.661387
0.669556
0.0618968
-0.0711049
-0.783418
0.792626
0.0809003
-0.0898483
-0.908276
0.917224
0.0993403
-0.107428
-1.05164
1.05973
0.116023
-0.122979
-1.21646
1.22341
0.12976
-0.134794
-1.405
1.41004
0.13857
-0.140434
-1.62165
1.62351
0.140186
-0.138392
-1.56985
1.56806
0.135505
-0.131761
-1.28241
1.27867
0.128372
-0.124688
-1.05948
1.0558
0.121037
-0.115591
-0.872523
0.867077
0.107397
-0.094378
-0.671444
0.658425
0.0789938
-0.0604707
-0.42814
0.409617
0.0443446
-0.0294479
-0.205363
0.190466
0.0189852
-0.010738
-0.0686355
0.0603882
0.00565767
-0.00218997
-0.0104711
0.00700342
0.000474901
0.00159374
-0.00206864
-0.0822585
0.0793466
0.0029119
-0.00173913
-0.00354246
-0.38684
0.392122
0.0108082
-0.0167375
-0.547021
0.55295
0.0228897
-0.0300458
-0.679856
0.687012
0.0385962
-0.0465866
-0.800973
0.808963
0.0553121
-0.0631123
-0.925422
0.933222
0.0711268
-0.0783023
-1.06762
1.07479
0.085697
-0.0917411
-1.22989
1.23594
0.0971384
-0.100873
-1.41434
1.41807
0.103516
-0.104097
-1.62458
1.62516
0.102579
-0.099512
-1.56556
1.5625
0.0955982
-0.0909415
-1.27453
1.26987
0.0862799
-0.0813401
-1.05011
1.04517
0.0765364
-0.0703826
-0.857366
0.851212
0.0628831
-0.0521612
-0.642226
0.631504
0.0411094
-0.0292828
-0.389495
0.377668
0.0204253
-0.0132087
-0.175278
0.168061
0.00860239
-0.00512281
-0.0523038
0.0488242
0.00286707
-0.00110816
-0.00368781
0.00192891
0.000250347
0.00273345
-0.0029838
-0.08097
0.0782045
0.00276552
-0.00543117
0.00290921
-0.400523
0.403045
0.00178459
-0.00625844
-0.562238
0.566712
0.0114347
-0.0174225
-0.695086
0.701074
0.0247036
-0.0315286
-0.816337
0.823162
0.03897
-0.0456424
-0.940482
0.947155
0.0528688
-0.0589167
-1.08151
1.08756
0.0653162
-0.0700531
-1.24152
1.24626
0.0745233
-0.0774264
-1.42152
1.42442
0.0789943
-0.0783871
-1.6252
1.62459
0.0761116
-0.0723082
-1.55877
1.55496
0.067734
-0.0619833
-1.26476
1.25901
0.0565883
-0.0507112
-1.03867
1.03279
0.0449528
-0.0386915
-0.841188
0.834927
0.0318784
-0.023731
-0.617905
0.609757
0.0164551
-0.0101311
-0.364759
0.358435
0.00639846
-0.0040183
-0.159969
0.157589
0.00276065
-0.00194821
-0.044663
0.0438505
0.00128626
-0.000454892
-0.000160698
-0.000670672
0.000101132
0.00351929
-0.00362042
-0.0794078
0.0769429
0.00246485
-0.00662972
0.00574425
-0.409595
0.410481
-0.00230297
-0.000901961
-0.574405
0.57761
0.00509102
-0.0105107
-0.70783
0.71325
0.0166058
-0.0225744
-0.829301
0.83527
0.02899
-0.0347489
-0.953356
0.959115
0.0408986
-0.0462223
-1.09344
1.09877
0.0515626
-0.0558031
-1.25081
1.25505
0.0594748
-0.0616847
-1.42689
1.4291
0.0625293
-0.0612817
-1.62371
1.62246
0.0584298
-0.0538759
-1.55037
1.54581
0.0488389
-0.0427377
-1.25304
1.24694
0.0368632
-0.0302623
-1.02578
1.01918
0.0241827
-0.0177257
-0.825395
0.818938
0.0119404
-0.00574385
-0.599195
0.592998
0.00125886
0.00147481
-0.350238
0.347504
-0.00221088
0.00191426
-0.153474
0.153771
-0.00125388
0.000532316
-0.0422515
0.0429731
-0.000133692
8.14575e-05
0.00133669
-0.00128446
-2.39728e-05
0.00399209
-0.00396811
-0.0779284
0.0758029
0.0021255
-0.00657037
0.00622641
-0.415742
0.416086
-0.00419756
0.00162585
-0.583704
0.586275
0.00239702
-0.00701174
-0.718591
0.723206
0.0122267
-0.0173892
-0.840455
0.845618
0.0230643
-0.0281741
-0.964505
0.969615
0.0337463
-0.0383514
-1.10378
1.10839
0.0430712
-0.0467848
-1.25896
1.26268
0.0498649
-0.051574
-1.43098
1.43269
0.0518933
-0.0505845
-1.62103
1.61972
0.0473369
-0.0426099
-1.54074
1.53601
0.0372949
-0.0308966
-1.24053
1.23414
0.0249832
-0.01796
-1.01189
1.00487
0.0116056
-0.00514771
-0.810107
0.803649
-4.94651e-05
0.00468708
-0.584406
0.579768
-0.00755029
0.00846883
-0.342153
0.341235
-0.00750596
0.00584087
-0.152304
0.15397
-0.00423451
0.00249537
-0.0431011
0.0448402
-0.00128117
0.000575231
0.00104569
-0.000339756
-0.000153555
0.00412761
-0.00397405
-0.0767658
0.0750943
0.00167144
-0.00573953
0.00575656
-0.420218
0.420201
-0.0041597
0.00225781
-0.591759
0.593661
0.00147241
-0.00562527
-0.727852
0.732004
0.0105487
-0.0149701
-0.850379
0.854801
0.0199251
-0.0244213
-0.974675
0.979171
0.0296593
-0.033789
-1.113
1.11713
0.0379048
-0.0413281
-1.26616
1.26959
0.0444314
-0.045844
-1.43437
1.43578
0.0460271
-0.0444539
-1.61795
1.61637
0.0413772
-0.0363142
-1.531
1.52594
0.0311271
-0.0248773
-1.22752
1.22127
0.0188341
-0.0120455
-0.997569
0.99078
0.00571935
0.000748051
-0.795384
0.788916
-0.00521055
0.00925218
-0.57228
0.568238
-0.011564
0.0116975
-0.337466
0.337333
-0.010256
0.00814627
-0.153924
0.156034
-0.00607792
0.00382361
-0.0459988
0.0482531
-0.00213196
0.000917799
-0.000568477
0.00178263
-0.000244355
0.00393587
-0.00369152
-0.076095
0.0747712
0.00132377
-0.00469537
0.00485759
-0.423684
0.423522
-0.00348676
0.00168957
-0.598708
0.600505
0.00186657
-0.00554754
-0.736119
0.7398
0.00973787
-0.0139753
-0.859156
0.863393
0.018518
-0.0231132
-0.983454
0.988049
0.0275712
-0.031464
-1.12133
1.12522
0.0356397
-0.038744
-1.27286
1.27596
0.0412731
-0.0429976
-1.43706
1.43879
0.0432234
-0.0417805
-1.6148
1.61336
0.0387028
-0.0340499
-1.52104
1.51638
0.0290433
-0.0229797
-1.2147
1.20863
0.0172003
-0.0105948
-0.983677
0.977071
0.00448634
0.00159128
-0.781256
0.775178
-0.00628736
0.00984414
-0.56142
0.557863
-0.0118298
0.0122087
-0.33442
0.334042
-0.0109974
0.00882726
-0.156476
0.158646
-0.00674383
0.00440326
-0.0498073
0.0521479
-0.00256492
0.00110116
-0.00294267
0.00440643
-0.000301801
0.00351476
-0.00321296
-0.0759476
0.0748399
0.00110772
-0.00343674
0.00337727
-0.426735
0.426794
-0.00230127
0.000553128
-0.605033
0.606781
0.00284079
-0.00637439
-0.743745
0.747279
0.0103674
-0.0141724
-0.867397
0.871203
0.0187985
-0.0225687
-0.992044
0.995814
0.0269528
-0.0306203
-1.12924
1.13291
0.0346273
-0.0378717
-1.27902
1.28226
0.0406161
-0.042046
-1.44023
1.44166
0.0425168
-0.0413746
-1.61181
1.61067
0.0388395
-0.0344086
-1.51161
1.50718
0.0297704
-0.0240385
-1.2027
1.19697
0.0185945
-0.0122651
-0.970168
0.963839
0.00655961
-0.000531097
-0.767942
0.761914
-0.00414752
0.00769818
-0.551465
0.547915
-0.00970963
0.0103351
-0.331328
0.330703
-0.00974276
0.00812065
-0.158824
0.160446
-0.0063898
0.00429695
-0.0536746
0.0557675
-0.00257951
0.00113764
-0.00562065
0.00706252
-0.000333528
0.00296143
-0.0026279
-0.0760798
0.0753019
0.000777937
-0.00228715
0.00177067
-0.42984
0.430357
-0.000854873
-0.00104077
-0.610547
0.612443
0.00405598
-0.00742772
-0.750818
0.754189
0.0112304
-0.0151427
-0.87485
0.878763
0.0191229
-0.0230267
-0.99977
1.00367
0.0273405
-0.0307674
-1.13698
1.14041
0.0348245
-0.0379819
-1.28528
1.28844
0.0407355
-0.0426457
-1.44348
1.44539
0.0435448
-0.0426291
-1.60955
1.60863
0.0402915
-0.0365359
-1.50293
1.49917
0.0324137
-0.0270412
-1.19117
1.1858
0.0218742
-0.0161635
-0.957434
0.951723
0.0104567
-0.00487586
-0.755028
0.749448
0.00011742
0.00370269
-0.541864
0.538044
-0.00577576
0.00691734
-0.327698
0.326556
-0.00694119
0.00615873
-0.160282
0.161064
-0.00498919
0.00347336
-0.0568779
0.0583937
-0.00215445
0.000969531
-0.00809446
0.00927939
-0.000310356
0.00237362
-0.00206326
-0.0766344
0.0760195
0.000614922
-0.00131348
0.000888334
-0.433159
0.433584
0.000584192
-0.00242253
-0.616158
0.617996
0.0055754
-0.00880015
-0.75734
0.760565
0.0124357
-0.0159278
-0.882324
0.885816
0.0200117
-0.0235796
-1.00756
1.01113
0.0278199
-0.0316608
-1.14427
1.14811
0.0353297
-0.0387912
-1.29161
1.29507
0.0419351
-0.0439064
-1.44717
1.44915
0.0451444
-0.0449826
-1.60793
1.60777
0.0430618
-0.0399123
-1.49529
1.49214
0.0360117
-0.0311594
-1.18053
1.17568
0.0265063
-0.0210889
-0.945643
0.940226
0.0158756
-0.0104583
-0.742886
0.737469
0.00578149
-0.0014207
-0.532122
0.527761
-0.00119214
0.00281514
-0.323182
0.321559
-0.00358205
0.00355253
-0.160304
0.160333
-0.00307204
0.00227201
-0.0588857
0.0596857
-0.00148586
0.000714306
-0.00996314
0.0107347
-0.000237875
0.00186264
-0.00162476
-0.0774716
0.077041
0.000430655
-0.00026557
-0.000335076
-0.436631
0.437232
0.00178766
-0.00392602
-0.621414
0.623553
0.00698239
-0.0100363
-0.763606
0.76666
0.0137504
-0.0170786
-0.88927
0.892598
0.0209902
-0.0246683
-1.01516
1.01884
0.0287964
-0.0325888
-1.15178
1.15557
0.0364645
-0.0399366
-1.29843
1.3019
0.0432493
-0.0459522
-1.45139
1.45409
0.0476136
-0.0477254
-1.60753
1.60764
0.0464749
-0.0436455
-1.48889
1.48606
0.0403398
-0.0361174
-1.17085
1.16663
0.0316366
-0.0265785
-0.93459
0.929531
0.0216495
-0.016245
-0.731261
0.725856
0.0116321