/*--------------------------------*- C++ -*----------------------------------*\
| =========                 |                                                 |
| \\      /  F ield         | OpenFOAM: The Open Source CFD Toolbox           |
|  \\    /   O peration     | Version:  2112                                  |
|   \\  /    A nd           | Website:  www.openfoam.com                      |
|    \\/     M anipulation  |                                                 |
\*---------------------------------------------------------------------------*/
FoamFile
{
    version     2.0;
    format      ascii;
    arch        "LSB;label=32;scalar=64";
    class       volVectorField;
    location    "63.5";
    object      U;
}
// * * * * * * * * * * * * * * * * * * * * * * * * * * * * * * * * * * * * * //

dimensions      [0 1 -1 0 0 0 0];

internalField   nonuniform List<vector> 
8800
(
(0.980138 -0.0915204 0)
(1.00234 -0.05873 0)
(0.999582 -0.0321287 0)
(0.999979 -0.0165218 0)
(1.00008 -0.00884178 0)
(1.0001 -0.00509789 0)
(1.00006 -0.00299436 0)
(1.00002 -0.00168291 0)
(1 -0.000780198 0)
(1.00006 -8.0173e-05 0)
(0.999985 0.000629649 0)
(0.999993 0.00138678 0)
(1.00002 0.00241046 0)
(1.00005 0.00400893 0)
(1.00004 0.00675123 0)
(0.999996 0.0120515 0)
(0.9998 0.0230947 0)
(0.999032 0.0431558 0)
(1.00724 0.0790251 0)
(0.775026 0.0478395 0)
(0.358994 -0.0147482 0)
(1.04651 -0.0724796 0)
(1.08847 -0.0660161 0)
(1.04944 -0.0509086 0)
(1.02555 -0.037687 0)
(1.01276 -0.0258809 0)
(1.00659 -0.0166834 0)
(1.00364 -0.0101905 0)
(1.00219 -0.00555572 0)
(1.00151 -0.00195785 0)
(1.00138 0.00125755 0)
(1.00172 0.00456901 0)
(1.0027 0.00845775 0)
(1.00475 0.0137639 0)
(1.00898 0.0214337 0)
(1.01794 0.0319196 0)
(1.03579 0.0446885 0)
(1.06741 0.0581278 0)
(1.09468 0.0699527 0)
(0.845611 0.0555088 0)
(0.217811 -0.00137998 0)
(1.07569 -0.0506374 0)
(1.09942 -0.0489171 0)
(1.0644 -0.0399974 0)
(1.03993 -0.0325349 0)
(1.02384 -0.0253166 0)
(1.01405 -0.0180896 0)
(1.00853 -0.0114601 0)
(1.00566 -0.00569594 0)
(1.00448 -0.000399147 0)
(1.00478 0.00471501 0)
(1.00662 0.0100038 0)
(1.01057 0.0159657 0)
(1.01789 0.0227081 0)
(1.03048 0.0298007 0)
(1.05046 0.0368797 0)
(1.08002 0.0446493 0)
(1.10563 0.0519659 0)
(0.943219 0.0410229 0)
(0.217155 0.00140659 0)
(0.176683 -0.000627922 0)
(1.01945 -0.0354434 0)
(1.10574 -0.041379 0)
(1.07801 -0.0363567 0)
(1.0525 -0.0303056 0)
(1.03528 -0.0244209 0)
(1.02341 -0.0186141 0)
(1.01558 -0.0126038 0)
(1.01096 -0.00649635 0)
(1.0089 -0.000249748 0)
(1.00942 0.00591146 0)
(1.01248 0.0118257 0)
(1.01846 0.0175819 0)
(1.02805 0.0231382 0)
(1.04223 0.0286728 0)
(1.06304 0.0344411 0)
(1.09382 0.0403156 0)
(1.09437 0.0418263 0)
(0.830074 0.0227968 0)
(0.175563 0.000649296 0)
(0.154795 -0.000461646 0)
(0.958294 -0.0256653 0)
(1.10446 -0.0350724 0)
(1.08814 -0.0326135 0)
(1.06134 -0.028098 0)
(1.0433 -0.0231243 0)
(1.0309 -0.0178076 0)
(1.02228 -0.0122496 0)
(1.0167 -0.00632376 0)
(1.01403 0.000141523 0)
(1.01464 0.00660474 0)
(1.01841 0.0124757 0)
(1.0252 0.0177764 0)
(1.03534 0.0227581 0)
(1.05004 0.0275636 0)
(1.07197 0.0319875 0)
(1.10093 0.0358496 0)
(1.06956 0.0340365 0)
(0.742308 0.0144789 0)
(0.153114 0.000485645 0)
(0.140135 -0.000333436 0)
(0.901359 -0.0192958 0)
(1.09692 -0.0301675 0)
(1.09631 -0.0292759 0)
(1.06908 -0.0254825 0)
(1.05025 -0.0213837 0)
(1.03726 -0.0166664 0)
(1.02825 -0.0113973 0)
(1.02228 -0.00565583 0)
(1.01926 0.000714242 0)
(1.01984 0.00709144 0)
(1.0238 0.0127386 0)
(1.03084 0.0176991 0)
(1.04134 0.0221374 0)
(1.05667 0.0260632 0)
(1.07945 0.0295595 0)
(1.10319 0.0322546 0)
(1.03769 0.0282178 0)
(0.675365 0.0103392 0)
(0.137766 0.000361976 0)
(0.129425 -0.000251867 0)
(0.851577 -0.0148944 0)
(1.08462 -0.0260576 0)
(1.10202 -0.0263857 0)
(1.07594 -0.0230516 0)
(1.0566 -0.0193808 0)
(1.04318 -0.0151638 0)
(1.03379 -0.0102784 0)
(1.02754 -0.00475705 0)
(1.02429 0.00142866 0)
(1.02475 0.0075892 0)
(1.02871 0.0129532 0)
(1.0359 0.0174893 0)
(1.04668 0.0213187 0)
(1.06238 0.0246432 0)
(1.0856 0.0276591 0)
(1.10236 0.0294486 0)
(1.00288 0.0236982 0)
(0.623163 0.00794412 0)
(0.126216 0.000286563 0)
(0.121271 -0.000192939 0)
(0.809186 -0.011705 0)
(1.06938 -0.0224542 0)
(1.10559 -0.0237435 0)
(1.08222 -0.0208598 0)
(1.06242 -0.0174141 0)
(1.04873 -0.013478 0)
(1.03908 -0.00891294 0)
(1.03255 -0.00366435 0)
(1.02906 0.00229008 0)
(1.02934 0.00818263 0)
(1.03325 0.0131915 0)
(1.04049 0.0172658 0)
(1.05137 0.0206172 0)
(1.06731 0.0235453 0)
(1.09092 0.0262435 0)
(1.09865 0.0271203 0)
(0.967621 0.0201489 0)
(0.581208 0.00638496 0)
(0.117039 0.00023504 0)
(0.114958 -0.000148192 0)
(0.773467 -0.00931698 0)
(1.0526 -0.0192801 0)
(1.10798 -0.0213001 0)
(1.08812 -0.0187965 0)
(1.06791 -0.0155097 0)
(1.05396 -0.0117403 0)
(1.04412 -0.00737587 0)
(1.03736 -0.00236532 0)
(1.0336 0.00332907 0)
(1.03366 0.00891097 0)
(1.03743 0.0135403 0)
(1.0446 0.0172092 0)
(1.05549 0.0201787 0)
(1.07165 0.0227752 0)
(1.09495 0.0251258 0)
(1.0921 0.0251936 0)
(0.933264 0.017406 0)
(0.546491 0.00531755 0)
(0.109484 0.000199267 0)
(0.110038 -0.000112807 0)
(0.743497 -0.00746576 0)
(1.03536 -0.0164635 0)
(1.10941 -0.0190011 0)
(1.09372 -0.0168088 0)
(1.07321 -0.0136205 0)
(1.05898 -0.00994903 0)
(1.04895 -0.00570839 0)
(1.04197 -0.000867627 0)
(1.03792 0.00457876 0)
(1.03769 0.0098383 0)
(1.04123 0.0141071 0)
(1.04827 0.0174164 0)
(1.05914 0.0200352 0)
(1.07552 0.0223387 0)
(1.0977 0.0243162 0)
(1.0831 0.0236169 0)
(0.900391 0.0153212 0)
(0.51694 0.00457397 0)
(0.103055 0.000174708 0)
(0.10622 -8.35667e-05 0)
(0.718453 -0.0059747 0)
(1.0185 -0.0139336 0)
(1.11001 -0.0167781 0)
(1.09921 -0.0148682 0)
(1.07843 -0.0116978 0)
(1.0639 -0.00806139 0)
(1.05364 -0.00388572 0)
(1.04641 0.000842009 0)
(1.04203 0.00607979 0)
(1.04144 0.0110374 0)
(1.04468 0.0149647 0)
(1.05153 0.017927 0)
(1.06236 0.0202077 0)
(1.07893 0.0222488 0)
(1.09909 0.0238261 0)
(1.07202 0.0223843 0)
(0.869128 0.0137808 0)
(0.491085 0.00406216 0)
(0.0974029 0.000158753 0)
(0.103313 -5.82719e-05 0)
(0.697693 -0.00472542 0)
(1.00262 -0.011624 0)
(1.10993 -0.0145935 0)
(1.10455 -0.0128855 0)
(1.08365 -0.00968394 0)
(1.06879 -0.00602564 0)
(1.05826 -0.00185468 0)
(1.05073 0.0028105 0)
(1.04596 0.00788738 0)
(1.04492 0.0125742 0)
(1.04778 0.0161759 0)
(1.05441 0.0187995 0)
(1.06518 0.0207428 0)
(1.08189 0.0225264 0)
(1.09947 0.0236955 0)
(1.05915 0.0215066 0)
(0.83932 0.0126953 0)
(0.467826 0.00372529 0)
(0.0922655 0.000149553 0)
(0.101194 -3.49949e-05 0)
(0.680741 -0.00362966 0)
(0.988183 -0.00946499 0)
(1.10938 -0.0123639 0)
(1.1097 -0.010777 0)
(1.08894 -0.00752575 0)
(1.07373 -0.00378631 0)
(1.06288 0.000444714 0)
(1.05497 0.00510167 0)
(1.04972 0.0100703 0)
(1.04814 0.0145169 0)
(1.05056 0.0177995 0)
(1.05691 0.0200849 0)
(1.0676 0.0216873 0)
(1.08437 0.0232007 0)
(1.09884 0.0239454 0)
(1.04465 0.0210007 0)
(0.810644 0.0119936 0)
(0.446303 0.00352532 0)
(0.0874389 0.000145714 0)
(0.0998005 -1.20103e-05 0)
(0.667291 -0.00261784 0)
(0.975555 -0.00738194 0)
(1.10867 -0.0100276 0)
(1.11479 -0.00847765 0)
(1.09438 -0.00513953 0)
(1.07879 -0.00125608 0)
(1.06757 0.00309425 0)
(1.05919 0.00780574 0)
(1.05334 0.0127125 0)
(1.05111 0.0169378 0)
(1.053 0.0199071 0)
(1.05903 0.0218448 0)
(1.06959 0.0230856 0)
(1.08638 0.0243377 0)
(1.09697 0.0246244 0)
(1.02857 0.02085 0)
(0.782677 0.0116194 0)
(0.425817 0.00343584 0)
(0.0827587 0.000146146 0)
(0.0991149 1.26693e-05 0)
(0.657187 -0.0016359 0)
(0.96505 -0.00530326 0)
(1.10812 -0.00752304 0)
(1.11997 -0.00591884 0)
(1.10007 -0.00244619 0)
(1.08405 0.00164627 0)
(1.07238 0.00618302 0)
(1.06344 0.0110176 0)
(1.05687 0.0159121 0)
(1.05385 0.0199366 0)
(1.0551 0.0225868 0)
(1.06074 0.0241677 0)
(1.07116 0.0250297 0)
(1.08787 0.0259836 0)
(1.0938 0.0257617 0)
(1.0109 0.0210911 0)
(0.754952 0.0115451 0)
(0.405785 0.00344262 0)
(0.0780906 0.000150368 0)
(0.0991575 3.49287e-05 0)
(0.650395 -0.000637015 0)
(0.956969 -0.00315568 0)
(1.10808 -0.00477577 0)
(1.12538 -0.00301261 0)
(1.10609 0.000653698 0)
(1.0896 0.00502919 0)
(1.07739 0.00983064 0)
(1.06778 0.0148581 0)
(1.06032 0.0197923 0)
(1.05636 0.0236371 0)
(1.05684 0.0259565 0)
(1.06201 0.027152 0)
(1.07225 0.0276177 0)
(1.08859 0.0282052 0)
(1.08915 0.0273717 0)
(0.991468 0.0217502 0)
(0.726937 0.0117529 0)
(0.385672 0.00353632 0)
(0.0733115 0.00015794 0)
(0.099964 7.14666e-05 0)
(0.646993 0.000389996 0)
(0.951629 -0.000866512 0)
(1.10891 -0.00170156 0)
(1.13123 0.000342147 0)
(1.11255 0.00428555 0)
(1.09556 0.00903275 0)
(1.0827 0.0141823 0)
(1.07225 0.0194761 0)
(1.06372 0.0244951 0)
(1.05863 0.0281644 0)
(1.0582 0.0301321 0)
(1.0628 0.0309237 0)
(1.07283 0.0309618 0)
(1.08842 0.0311318 0)
(1.08274 0.0295497 0)
(0.970016 0.0228588 0)
(0.698054 0.0122338 0)
(0.364982 0.00370937 0)
(0.0683133 0.000168319 0)
(0.101747 0.000101658 0)
(0.647367 0.00155338 0)
(0.949381 0.00164946 0)
(1.11104 0.00181123 0)
(1.13773 0.00423189 0)
(1.11961 0.00858418 0)
(1.10202 0.0138006 0)
(1.08838 0.0193967 0)
(1.07691 0.0250382 0)
(1.06709 0.0301883 0)
(1.06064 0.0336838 0)
(1.05914 0.0352621 0)
(1.06307 0.0356176 0)
(1.07281 0.0351936 0)
(1.08713 0.0348814 0)
(1.07431 0.0323831 0)
(0.946157 0.0244577 0)
(0.667679 0.0129853 0)
(0.343244 0.00395664 0)
(0.0629988 0.00018107 0)
(0.104561 0.000149404 0)
(0.651927 0.00299878 0)
(0.950721 0.00455446 0)
(1.11495 0.00586186 0)
(1.14509 0.00883931 0)
(1.12741 0.0137433 0)
(1.10913 0.0195473 0)
(1.09453 0.0256987 0)
(1.08181 0.0317683 0)
(1.07043 0.0370823 0)
(1.06236 0.0403712 0)
(1.05961 0.0414957 0)
(1.06274 0.0413866 0)
(1.07213 0.0404541 0)
(1.08451 0.0395942 0)
(1.06349 0.0359758 0)
(0.919379 0.026584 0)
(0.635137 0.0140008 0)
(0.320008 0.00426993 0)
(0.0572849 0.000195362 0)
(0.108686 0.000211975 0)
(0.66115 0.0046848 0)
(0.956102 0.00798664 0)
(1.12114 0.0106383 0)
(1.15361 0.0143633 0)
(1.13616 0.0199999 0)
(1.11705 0.026533 0)
(1.10127 0.03336 0)
(1.087 0.0399344 0)
(1.07372 0.0454199 0)
(1.06375 0.0484438 0)
(1.05956 0.0490479 0)
(1.06173 0.0484046 0)
(1.07069 0.0468873 0)
(1.08064 0.0454279 0)
(1.04982 0.0404352 0)
(0.889016 0.0292646 0)
(0.599698 0.0152643 0)
(0.29485 0.00463642 0)
(0.0511077 0.000210014 0)
(0.114459 0.000295817 0)
(0.675773 0.00677597 0)
(0.966155 0.0121452 0)
(1.13018 0.0163779 0)
(1.16364 0.0210647 0)
(1.14613 0.0276587 0)
(1.12596 0.035088 0)
(1.10868 0.0427213 0)
(1.0925 0.0498552 0)
(1.07692 0.0554777 0)
(1.06473 0.0581348 0)
(1.05881 0.0580846 0)
(1.05996 0.0568525 0)
(1.06845 0.0546981 0)
(1.07528 0.0525159 0)
(1.03268 0.0458435 0)
(0.854265 0.0325031 0)
(0.560611 0.0167382 0)
(0.267413 0.00503372 0)
(0.0444375 0.000223338 0)
(0.122386 0.000417143 0)
(0.696768 0.00951884 0)
(0.981759 0.0173394 0)
(1.14273 0.0234309 0)
(1.17565 0.0293488 0)
(1.1576 0.0371911 0)
(1.13605 0.0457075 0)
(1.11685 0.0542562 0)
(1.09828 0.0619472 0)
(1.07994 0.0675808 0)
(1.06517 0.0696845 0)
(1.05729 0.0688282 0)
(1.05733 0.0668804 0)
(1.06532 0.0640125 0)
(1.06809 0.060982 0)
(1.01127 0.0522661 0)
(0.814178 0.0362621 0)
(0.517144 0.018351 0)
(0.237459 0.00542759 0)
(0.0372927 0.000233084 0)
(0.133189 0.00058875 0)
(0.725371 0.0132814 0)
(1.00408 0.024045 0)
(1.15959 0.0323455 0)
(1.19026 0.0398228 0)
(1.17094 0.0492826 0)
(1.14748 0.0590667 0)
(1.12577 0.0685708 0)
(1.1042 0.0766968 0)
(1.0826 0.0820891 0)
(1.0649 0.08336 0)
(1.0549 0.0814967 0)
(1.05371 0.0786859 0)
(1.06101 0.0749473 0)
(1.05838 0.0709009 0)
(0.984563 0.0596936 0)
(0.767699 0.0404256 0)
(0.46868 0.0199802 0)
(0.204953 0.00576818 0)
(0.0297592 0.000236511 0)
(0.148129 0.000865685 0)
(0.763613 0.0186782 0)
(1.03478 0.0330529 0)
(1.18169 0.0440666 0)
(1.20823 0.0536002 0)
(1.18646 0.0649443 0)
(1.16029 0.0760986 0)
(1.13527 0.0864322 0)
(1.11002 0.0946616 0)
(1.08461 0.0993624 0)
(1.06367 0.0993823 0)
(1.05144 0.0962345 0)
(1.049 0.092402 0)
(1.05514 0.0878068 0)
(1.04545 0.0822905 0)
(0.951253 0.0679822 0)
(0.713772 0.044767 0)
(0.414899 0.0214414 0)
(0.170186 0.00599025 0)
(0.0220119 0.000230504 0)
(0.16941 0.00134447 0)
(0.81477 0.0268774 0)
(1.07643 0.0459326 0)
(1.21015 0.0604533 0)
(1.23014 0.0727396 0)
(1.20424 0.0858029 0)
(1.17424 0.0981306 0)
(1.14495 0.10878 0)
(1.11528 0.11644 0)
(1.08559 0.119734 0)
(1.0612 0.117916 0)
(1.04674 0.113133 0)
(1.04306 0.108102 0)
(1.0477 0.102621 0)
(1.02821 0.0951389 0)
(0.909738 0.0768083 0)
(0.6516 0.0489241 0)
(0.35611 0.022502 0)
(0.133948 0.00602338 0)
(0.0143368 0.000211565 0)
(0.200441 0.00240691 0)
(0.884589 0.0405884 0)
(1.1327 0.0665381 0)
(1.24543 0.085078 0)
(1.25575 0.0999755 0)
(1.22367 0.114221 0)
(1.18848 0.126759 0)
(1.15396 0.136593 0)
(1.11924 0.142567 0)
(1.08496 0.143442 0)
(1.05713 0.139034 0)
(1.04055 0.132184 0)
(1.03577 0.125732 0)
(1.03828 0.119175 0)
(1.00523 0.109135 0)
(0.858155 0.085534 0)
(0.581194 0.0523874 0)
(0.293967 0.022984 0)
(0.0979212 0.00585275 0)
(0.00722897 0.000179357 0)
(0.242724 0.00866831 4.63188e-20)
(0.977195 0.0679401 4.04551e-20)
(1.20135 0.101047 -1.41424e-20)
(1.28445 0.121536 0)
(1.28228 0.138886 -3.61305e-34)
(1.24261 0.152495 5.28278e-21)
(1.20148 0.163477 -9.51521e-21)
(1.1612 0.171089 0)
(1.12109 0.174294 1.95438e-34)
(1.08197 0.171951 -1.17664e-20)
(1.05048 0.164462 0)
(1.03166 0.155355 -1.39723e-20)
(1.02595 0.147613 -4.12197e-20)
(1.02556 0.140801 -1.94744e-20)
(0.972659 0.126786 -5.86045e-21)
(0.790559 0.0957276 -3.48207e-21)
(0.497325 0.055595 0)
(0.226778 0.0232778 2.43403e-21)
(0.062109 0.00577958 2.87356e-21)
(0.000658824 0.000155279 5.1818e-20)
(0.272358 0.024198 3.3582e-20)
(1.05363 0.110675 5.39424e-22)
(1.25799 0.150218 3.75714e-21)
(1.31928 0.17091 0)
(1.30552 0.188069 -1.82901e-20)
(1.25883 0.199486 -2.07936e-20)
(1.21179 0.208138 -9.59111e-21)
(1.16567 0.213244 -3.41469e-20)
(1.11995 0.213628 0)
(1.07555 0.208107 5.0063e-20)
(1.0399 0.197615 4.96427e-20)
(1.01853 0.186236 1.47429e-20)
(1.01078 0.176664 5.37717e-20)
(1.00245 0.167391 7.56038e-20)
(0.921647 0.147442 0)
(0.699646 0.106501 1.06473e-19)
(0.398942 0.0584491 1.52641e-19)
(0.157016 0.0228512 1.69471e-19)
(0.026254 0.00446729 -1.93711e-19)
(-0.0061005 -0.000494431 -3.64902e-21)
(0.273384 0.040054 0)
(1.10189 0.166058 5.83634e-21)
(1.29605 0.210718 0)
(1.34629 0.230853 -2.36018e-20)
(1.32371 0.244941 0)
(1.27113 0.252488 -4.07547e-20)
(1.21857 0.257397 1.9566e-20)
(1.16693 0.258891 -6.86359e-20)
(1.11585 0.2556 -1.58078e-21)
(1.06639 0.246285 2.58778e-20)
(1.02676 0.232366 1.091e-19)
(1.0029 0.21843 -2.29685e-22)
(0.992791 0.206841 -3.90493e-20)
(0.976348 0.194734 -7.11279e-20)
(0.875671 0.167939 8.41371e-20)
(0.63519 0.116734 -1.48944e-19)
(0.342434 0.0612085 -1.96532e-20)
(0.121878 0.0222496 0)
(0.00898501 0.00248748 -1.08291e-23)
(-0.00958648 -0.00135798 0)
(0.266932 0.05377 7.38166e-20)
(1.12783 0.224727 -3.63978e-20)
(1.31944 0.275666 -2.8469e-20)
(1.36415 0.295967 1.10781e-20)
(1.33546 0.306142 -1.86636e-20)
(1.27844 0.309158 8.53157e-20)
(1.22132 0.309643 4.07859e-20)
(1.16489 0.306887 0)
(1.10902 0.299375 -1.2958e-19)
(1.05493 0.285792 0)
(1.01155 0.268089 -5.72259e-20)
(0.985229 0.251349 -7.06758e-20)
(0.972746 0.237463 -4.25019e-20)
(0.949753 0.221924 -5.16295e-20)
(0.837985 0.188481 0)
(0.593889 0.128507 0)
(0.313491 0.0664327 -1.2784e-19)
(0.105314 0.0227692 2.52331e-20)
(-0.000236834 0.000527914 -1.47833e-20)
(-0.0120267 -0.00236706 -1.72906e-20)
(0.25923 0.0658803 -2.73996e-20)
(1.13911 0.283218 0)
(1.33219 0.341511 5.69439e-20)
(1.37382 0.36247 3.0891e-20)
(1.34085 0.36882 4.33425e-20)
(1.2806 0.367279 0)
(1.2199 0.363224 3.98052e-20)
(1.15953 0.356026 7.58568e-20)
(1.09953 0.344075 6.63157e-20)
(1.04126 0.326005 1.21874e-19)
(0.994389 0.304331 0)
(0.965649 0.284625 -1.52404e-19)
(0.950812 0.268304 -9.18045e-20)
(0.922897 0.249422 -5.42836e-20)
(0.806741 0.210072 3.32149e-19)
(0.567954 0.142518 3.94437e-20)
(0.300477 0.0740674 1.85195e-19)
(0.100769 0.0247111 -8.76569e-19)
(-0.00315429 -0.000839426 5.18176e-19)
(-0.0133283 -0.00331562 -6.24319e-19)
(0.2518 0.0767923 -1.04677e-20)
(1.14099 0.33967 4.88917e-21)
(1.33721 0.40634 -5.84567e-21)
(1.3769 0.428467 -3.03339e-20)
(1.34085 0.431225 -3.60404e-20)
(1.27818 0.425307 1.80284e-21)
(1.21465 0.416871 -4.3148e-20)
(1.15103 0.405306 7.83957e-20)
(1.08747 0.38894 -1.42754e-19)
(1.02548 0.36636 0)
(0.975373 0.340655 -6.90266e-20)
(0.94426 0.31788 -1.60567e-21)
(0.927135 0.299054 -1.00498e-19)
(0.895818 0.27692 0)
(0.779912 0.232541 -7.19933e-20)
(0.551151 0.158521 -1.70758e-19)
(0.297204 0.0840091 4.54362e-19)
(0.103721 0.028526 -4.47816e-19)
(-0.00104917 -0.000989069 6.35584e-19)
(-0.013373 -0.00399448 -6.60426e-19)
(0.245498 0.0868548 -4.16069e-22)
(1.137 0.393423 -7.9804e-22)
(1.33666 0.46916 -1.44742e-20)
(1.37482 0.492746 1.16693e-20)
(1.33651 0.492308 -1.80626e-20)
(1.27201 0.482307 0)
(1.20619 0.46975 -3.99745e-20)
(1.13985 0.454021 -8.20753e-20)
(1.07321 0.433395 -7.41808e-20)
(1.00789 0.406409 0)
(0.954782 0.376695 -7.16488e-20)
(0.921367 0.350863 -8.88146e-20)
(0.902075 0.329612 1.09101e-19)
(0.868364 0.304514 -6.62005e-20)
(0.755388 0.255481 -3.14869e-19)
(0.5384 0.176044 1.86796e-19)
(0.297847 0.0955318 5.53436e-20)
(0.110341 0.0340144 0)
(0.00433897 0.000294537 -6.15603e-19)
(-0.0123683 -0.00429116 -2.25914e-20)
(0.24044 0.0963806 1.74373e-21)
(1.12946 0.444296 -1.92817e-21)
(1.33203 0.529503 6.41011e-21)
(1.36881 0.554614 4.25278e-20)
(1.32877 0.551411 -6.57093e-20)
(1.26289 0.537699 7.98154e-20)
(1.19523 0.521326 8.6183e-20)
(1.12657 0.501699 -1.31189e-19)
(1.05722 0.477046 4.59251e-20)
(0.988851 0.445824 -3.00017e-19)
(0.932926 0.412215 -8.11149e-20)
(0.897329 0.383432 0)
(0.875997 0.359802 1.18485e-19)
(0.840526 0.331784 1.42099e-19)
(0.73151 0.278569 1.69894e-19)
(0.526474 0.194367 -2.03355e-19)
(0.299288 0.108057 -6.01245e-20)
(0.117811 0.0409306 7.06371e-20)
(0.0111962 0.00279427 0)
(-0.0107123 -0.00421724 -4.91381e-20)
(0.236547 0.105535 -4.13629e-20)
(1.12003 0.492399 1.97888e-20)
(1.32459 0.587213 -5.19327e-21)
(1.35991 0.613744 2.50526e-20)
(1.31847 0.60814 -2.90012e-20)
(1.25153 0.591086 -4.09163e-21)
(1.18235 0.571246 -9.43436e-20)
(1.1117 0.548037 -4.75145e-20)
(1.03991 0.519624 -1.29052e-19)
(0.968734 0.484389 3.20293e-22)
(0.910174 0.447056 -2.54229e-19)
(0.872519 0.415405 2.14726e-19)
(0.849302 0.389407 -1.3041e-19)
(0.81243 0.358606 1.56855e-19)
(0.707216 0.301324 0)
(0.513395 0.212857 -1.10755e-19)
(0.298806 0.120966 1.99834e-22)
(0.124314 0.0486798 -3.08924e-19)
(0.0181406 0.0061238 -4.53288e-20)
(-0.00873471 -0.00384585 0)
(0.233691 0.114465 0)
(1.10967 0.537956 2.4608e-20)
(1.31524 0.642574 3.84204e-22)
(1.34892 0.669992 -2.20577e-20)
(1.30628 0.662285 -3.76726e-20)
(1.23851 0.642247 0)
(1.16807 0.619285 -4.25587e-20)
(1.0957 0.592824 -1.04962e-21)
(1.0217 0.560957 2.76805e-19)
(0.947895 0.521966 -4.12351e-20)
(0.886822 0.481055 -1.83691e-19)
(0.847207 0.44655 1.11685e-19)
(0.822246 0.418207 -2.23665e-21)
(0.784055 0.384578 1.67034e-19)
(0.681691 0.323435 1.02797e-19)
(0.498518 0.230668 -2.39315e-19)
(0.295321 0.133597 2.83263e-19)
(0.128272 0.0564972 8.39042e-20)
(0.0238419 0.00974972 3.45714e-19)
(-0.00681045 -0.00330424 -9.2328e-19)
(0.23181 0.12331 -1.72624e-20)
(1.09905 0.581157 2.11342e-20)
(1.30461 0.69497 -1.24245e-20)
(1.33644 0.723326 1.54901e-20)
(1.29276 0.713746 0)
(1.22435 0.691049 -3.59992e-20)
(1.15287 0.665312 1.43561e-19)
(1.07896 0.635934 1.04229e-19)
(1.00292 0.600931 0)
(0.926607 0.55846 -5.9469e-19)
(0.863088 0.514085 4.97461e-19)
(0.821604 0.476751 0)
(0.795037 0.446076 1.52702e-19)
(0.755536 0.409518 -2.23896e-21)
(0.655459 0.344201 -3.29568e-19)
(0.4816 0.246958 1.28823e-19)
(0.288774 0.145173 0)
(0.12899 0.0635581 4.53112e-19)
(0.0275066 0.0129729 0)
(-0.00525774 -0.00276679 -4.3749e-19)
(0.230742 0.132148 2.17489e-20)
(1.08863 0.6222 3.04565e-20)
(1.29318 0.744503 -1.14797e-20)
(1.32298 0.77375 0)
(1.27838 0.762501 -3.08774e-20)
(1.20946 0.737453 0)
(1.1371 0.709257 -1.41237e-19)
(1.06182 0.677293 -4.82141e-20)
(0.983885 0.639486 4.88263e-20)
(0.90513 0.59382 -2.94324e-19)
(0.839162 0.546113 5.13741e-20)
(0.795849 0.505999 0)
(0.767776 0.472904 -3.26375e-19)
(0.726922 0.433127 2.18227e-21)
(0.62842 0.363238 0)
(0.462458 0.261277 1.23694e-21)
(0.279162 0.154814 4.14761e-19)
(0.126448 0.0690525 -3.91422e-19)
(0.0287782 0.015298 1.15492e-19)
(-0.00423014 -0.002373 0)
(0.230169 0.140865 0)
(1.07868 0.661179 3.86385e-20)
(1.28119 0.791327 2.15124e-20)
(1.30895 0.821315 -2.52348e-21)
(1.26351 0.808576 -9.30408e-21)
(1.19418 0.781454 -8.12542e-20)
(1.12108 0.751102 5.31938e-20)
(1.04457 0.71687 -5.71687e-20)
(0.964842 0.676584 2.1831e-19)
(0.883672 0.628033 -4.71014e-19)
(0.815202 0.577171 -4.03907e-21)
(0.770047 0.5343 -1.42852e-19)
(0.740472 0.498536 5.29952e-19)
(0.698171 0.455124 -2.59272e-21)
(0.600743 0.380164 -2.56147e-19)
(0.441497 0.2731 -4.55522e-19)
(0.26682 0.162255 0)
(0.121275 0.0726251 0)
(0.028124 0.0164715 1.24649e-19)
(-0.00368088 -0.00220263 -7.31296e-20)
(0.230282 0.149582 3.27887e-20)
(1.0693 0.697978 -8.98784e-20)
(1.26895 0.835536 -2.31637e-20)
(1.29467 0.866091 0)
(1.24843 0.852029 -1.51554e-21)
(1.1788 0.823081 -7.34625e-20)
(1.10508 0.790858 1.27925e-19)
(1.02745 0.754659 2.24684e-19)
(0.946014 0.712225 2.83844e-19)
(0.862433 0.661108 -3.85017e-19)
(0.791362 0.607319 -4.28507e-19)
(0.744245 0.561645 3.82267e-19)
(0.713105 0.522863 0)
(0.669272 0.475271 -1.16544e-19)
(0.572439 0.394684 -2.76942e-19)
(0.418702 0.282196 -3.27514e-19)
(0.252152 0.166999 -3.86767e-19)
(0.113719 0.0741327 1.14237e-19)
(0.0259209 0.0165416 -6.70805e-20)
(-0.00352546 -0.00224078 2.96164e-22)
(0.230507 0.158241 0)
(1.06062 0.733041 0)
(1.2567 0.877233 2.4932e-21)
(1.28035 0.908211 0)
(1.23338 0.892951 1.78905e-20)
(1.16352 0.862397 4.90731e-20)
(1.08929 0.828552 0)
(1.01065 0.790672 2.66024e-20)
(0.927589 0.74641 4.73988e-19)
(0.841594 0.693077 -8.85819e-19)
(0.767778 0.636623 0)
(0.718486 0.588039 -2.4627e-19)
(0.685615 0.545865 -3.04899e-21)
(0.64009 0.493435 -2.35669e-21)
(0.543541 0.406542 2.96422e-19)
(0.394522 0.288271 -1.10306e-22)
(0.235679 0.168948 -8.33187e-19)
(0.104322 0.0735734 2.45743e-19)
(0.0225256 0.015618 7.25954e-20)
(-0.00359894 -0.00240968 0)
(0.230857 0.16676 -1.36744e-19)
(1.05238 0.76645 -6.40416e-20)
(1.24451 0.916502 -7.7306e-20)
(1.26615 0.947799 5.59653e-20)
(1.21854 0.931416 1.65678e-20)
(1.14853 0.899467 0)
(1.07388 0.864231 7.71902e-20)
(0.994325 0.824934 -5.94466e-20)
(0.90972 0.779158 3.90972e-21)
(0.821321 0.723979 6.53467e-20)
(0.744574 0.665141 5.55659e-19)
(0.692798 0.613576 -8.64247e-20)
(0.65791 0.56764 -3.27026e-19)
(0.610488 0.509488 -1.35812e-19)
(0.514091 0.415402 1.60865e-19)
(0.369586 0.291057 7.15833e-23)
(0.21791 0.167992 2.24347e-19)
(0.093854 0.0710554 -5.28657e-19)
(0.0185379 0.0138773 6.24812e-19)
(-0.00381424 -0.00266811 9.11039e-20)
(0.231123 0.175019 5.2793e-20)
(1.04461 0.7983 -3.66588e-20)
(1.23253 0.953444 6.2339e-21)
(1.2522 0.984988 4.15884e-20)
(1.20404 0.967539 3.21325e-21)
(1.13395 0.934365 -8.50305e-20)
(1.05896 0.897947 2.2088e-20)
(0.978596 0.857469 -2.47839e-19)
(0.892541 0.810472 -5.23088e-19)
(0.801749 0.753827 -5.28617e-19)
(0.721885 0.692936 0)
(0.667221 0.638435 -3.79887e-19)
(0.629887 0.588359 4.71606e-19)
(0.580183 0.523296 0)
(0.483985 0.42086 -3.44642e-19)
(0.34446 0.290136 2.04904e-19)
(0.200162 0.163991 -2.41187e-19)
(0.0835723 0.0668986 -2.84368e-19)
(0.014659 0.0116931 -5.03122e-19)
(-0.0040686 -0.00297857 -3.92231e-19)
(0.231742 0.18315 -6.05265e-20)
(1.03713 0.82858 3.92432e-20)
(1.2208 0.988132 8.76404e-20)
(1.23858 1.01986 6.43662e-20)
(1.18998 1.00141 -2.67342e-21)
(1.11986 0.967181 -4.4677e-20)
(1.04464 0.929751 7.40812e-20)
(0.963553 0.888318 -2.54593e-19)
(0.876137 0.840377 -3.10101e-19)
(0.782999 0.782641 5.5383e-19)
(0.699836 0.720076 1.22214e-18)
(0.641829 0.662838 0)
(0.601428 0.608224 0)
(0.54881 0.534852 -1.5638e-19)
(0.452879 0.422534 0)
(0.319331 0.284696 4.4032e-19)
(0.183749 0.156148 5.18382e-19)
(0.0754632 0.0610606 0)
(0.0121359 0.00943383 0)
(-0.00423999 -0.00323147 4.21313e-19)
(0.232032 0.190857 6.97861e-20)
(1.02999 0.857282 5.61041e-20)
(1.2094 1.02069 6.41405e-20)
(1.22538 1.05253 -6.62188e-20)
(1.17642 1.03315 -1.00359e-20)
(1.10635 0.99799 4.38338e-20)
(1.03096 0.959705 -1.01593e-19)
(0.949261 0.917511 -5.00743e-22)
(0.860591 0.868879 -5.08421e-21)
(0.765166 0.810418 -4.66808e-21)
(0.678569 0.746621 6.29824e-19)
(0.616735 0.686989 0)
(0.572476 0.62747 4.78105e-19)
(0.515977 0.544354 3.33945e-19)
(0.420031 0.420275 8.03947e-19)
(0.293714 0.273498 2.37195e-19)
(0.170058 0.141844 -2.78874e-19)
(0.0737218 0.0505458 -1.6377e-19)
(0.0168574 0.00604708 0)
(-0.00232143 -0.00267483 4.52759e-19)
(0.23264 0.198581 -1.59338e-19)
(1.02313 0.884506 0)
(1.1983 1.05117 7.77418e-20)
(1.21261 1.08306 -5.77708e-20)
(1.16343 1.06285 2.18355e-20)
(1.09344 1.02688 -4.28987e-20)
(1.01798 0.987867 1.95925e-19)
(0.93576 0.945084 -2.08124e-20)
(0.845948 0.895991 0)
(0.748328 0.837136 -6.11838e-19)
(0.658224 0.772609 -1.37038e-18)
(0.592093 0.711052 5.61574e-20)
(0.543091 0.646364 6.6038e-19)
(0.481414 0.552263 0)
(0.384291 0.414538 5.42722e-19)
(0.265336 0.255582 0)
(0.157108 0.115385 0)
(0.082986 0.0213879 -1.76997e-19)
(0.049977 -0.00911182 0)
(0.0275241 0.0108817 1.21308e-19)
(0.23289 0.205721 -1.79778e-19)
(1.01652 0.910579 0)
(1.18752 1.07978 1.31353e-19)
(1.20024 1.11172 0)
(1.15095 1.09077 -1.5921e-20)
(1.08107 1.05414 0)
(1.00564 1.01455 9.36077e-21)
(0.922952 0.971374 3.5071e-20)
(0.832084 0.922071 3.8953e-20)
(0.732316 0.863176 -6.71382e-19)
(0.638613 0.798491 4.11321e-20)
(0.567662 0.735649 4.5243e-19)
(0.512861 0.66569 6.44583e-19)
(0.444239 0.559239 8.69064e-20)
(0.343712 0.406774 4.25563e-19)
(0.229254 0.231903 0)
(0.132753 0.0725289 5.87331e-19)
(0.0714078 -0.0236033 -3.42771e-19)
(0.042484 0.0434869 3.98829e-19)
(-0.0690874 0.437097 -4.70255e-19)
(0.233134 0.212674 1.49897e-19)
(1.0099 0.935279 2.28454e-19)
(1.17695 1.10683 0)
(1.18813 1.13893 4.97194e-21)
(1.13878 1.1175 5.21427e-20)
(1.06899 1.08044 3.84529e-20)
(0.993614 1.04055 6.69586e-20)
(0.910421 0.997313 0)
(0.818462 0.948202 2.57805e-19)
(0.716456 0.889837 -3.50073e-20)
(0.618819 0.825764 0)
(0.542183 0.762446 0)
(0.479835 0.686944 5.77984e-19)
(0.402099 0.565877 -2.68767e-19)
(0.295084 0.398886 -4.31542e-19)
(0.180616 0.205959 0)
(0.0773351 0.08036 2.96042e-19)
(0.00344183 0.438474 -3.41951e-19)
(0.0330945 1.89172 -1.87276e-19)
(0.0623545 2.81238 -2.39497e-19)
(0.233207 0.218811 -1.13809e-19)
(1.00347 0.958794 -2.95391e-19)
(1.16661 1.13231 7.93098e-20)
(1.17627 1.16457 6.14502e-20)
(1.12696 1.14279 0)
(1.05727 1.1055 1.56758e-20)
(0.982103 1.06555 8.96423e-20)
(0.898362 1.02247 -1.69353e-20)
(0.805353 0.973871 3.85423e-20)
(0.701131 0.916513 6.40324e-19)
(0.599444 0.853801 6.94191e-19)
(0.516575 0.791006 5.07973e-19)
(0.444854 0.710224 5.82072e-19)
(0.356558 0.571125 -6.32375e-19)
(0.243942 0.394619 -6.52265e-19)
(0.121678 0.248387 0)
(0.042844 0.827778 0)
(0.100336 2.55116 1.63559e-19)
(0.101534 3.20201 0)
(0.104812 3.38846 3.89751e-19)
(0.235826 0.224462 0)
(0.997806 0.981328 0)
(1.15628 1.15606 0)
(1.16445 1.18848 1.93135e-20)
(1.11513 1.1664 4.92644e-20)
(1.04568 1.1292 -1.70011e-21)
(0.970998 1.08945 5.69448e-20)
(0.886735 1.04675 -1.64959e-20)
(0.792727 0.998946 3.21753e-19)
(0.686378 0.943076 -9.04981e-21)
(0.58065 0.882515 1.37261e-18)
(0.49115 0.821129 -5.86679e-20)
(0.408092 0.736622 7.05777e-20)
(0.310249 0.572622 9.15882e-20)
(0.18072 0.406958 -5.27174e-21)
(0.0985482 0.960281 1.83879e-21)
(0.139184 2.7225 -8.64916e-19)
(0.147269 3.2927 -3.24052e-19)
(0.136427 3.42572 1.6745e-19)
(0.124042 3.44795 -1.86406e-19)
(0.154471 0.181661 6.83016e-20)
(0.986844 1.00563 0)
(1.14559 1.17829 -1.62431e-19)
(1.15318 1.21117 -1.71387e-19)
(1.10418 1.18916 1.2857e-19)
(1.03517 1.15222 7.11127e-21)
(0.960254 1.11233 -5.77152e-20)
(0.875652 1.07028 1.81478e-19)
(0.780756 1.0236 -2.63307e-19)
(0.672493 0.969707 0)
(0.562857 0.912115 6.74704e-19)
(0.46648 0.852677 -4.15351e-19)
(0.370804 0.768841 0)
(0.257007 0.571286 8.55641e-20)
(0.143272 0.741542 2.04685e-19)
(0.15489 2.49489 -2.37701e-19)
(0.211753 3.3223 2.66479e-19)
(0.191966 3.4382 1.4323e-19)
(0.15981 3.45994 1.60571e-19)
(0.138165 3.47036 2.55025e-19)
(0.278791 0.262595 -1.23947e-19)
(0.971611 1.01547 0)
(1.12753 1.2037 1.79417e-19)
(1.13838 1.24161 1.92224e-19)
(1.08688 1.2222 -1.50206e-19)
(1.01711 1.18564 -3.08393e-20)
(0.941273 1.14739 4.94005e-20)
(0.856169 1.10657 1.42684e-20)
(0.759978 1.06209 2.50872e-19)
(0.648997 1.01215 5.53674e-19)
(0.534134 0.961228 3.80576e-20)
(0.427148 0.906971 3.69864e-19)
(0.30276 0.807072 6.63308e-20)
(0.212714 0.919915 -8.43019e-20)
(0.229258 2.34272 -1.91026e-19)
(0.290938 3.32424 1.82511e-19)
(0.27391 3.46676 -2.01272e-19)
(0.238483 3.48893 -1.15964e-19)
(0.201401 3.51684 -9.72097e-20)
(0.149885 3.51116 -1.13773e-20)
(0.266685 0.259497 0)
(0.969281 1.03814 5.36207e-20)
(1.11924 1.22719 -3.75627e-20)
(1.1278 1.26526 -2.35578e-20)
(1.07611 1.2454 -1.07367e-19)
(1.00629 1.20907 3.53906e-20)
(0.930135 1.17096 -2.36875e-20)
(0.844838 1.13096 1.27453e-20)
(0.748135 1.08797 -2.61134e-19)
(0.635886 1.04092 -1.37761e-20)
(0.518247 0.994976 -1.22234e-18)
(0.406278 0.945127 5.28427e-20)
(0.284707 0.871937 -6.25899e-20)
(0.25507 1.47459 -7.79976e-20)
(0.330889 3.09756 1.81267e-20)
(0.350312 3.46401 2.8695e-22)
(0.309911 3.52068 2.90209e-19)
(0.272501 3.54773 1.40901e-19)
(0.223783 3.57149 -3.34357e-20)
(0.164728 3.56774 -5.28159e-20)
(0.250518 0.258013 1.37397e-19)
(0.965373 1.06348 3.67623e-19)
(1.11054 1.25277 -1.07938e-19)
(1.11664 1.29033 -8.88818e-20)
(1.06471 1.26995 0)
(0.995037 1.23368 8.14896e-20)
(0.918869 1.19581 -1.92279e-20)
(0.833657 1.15659 1.11064e-20)
(0.736762 1.11519 -2.9142e-20)
(0.623773 1.07131 -5.00946e-19)
(0.504196 1.03064 -5.64158e-19)
(0.388861 0.984669 -4.32296e-19)
(0.286737 0.999744 -4.74913e-19)
(0.325198 2.19402 4.90025e-19)
(0.418466 3.37279 4.0872e-19)
(0.395099 3.52162 0)
(0.349472 3.56722 0)
(0.311334 3.60859 -2.58773e-20)
(0.260316 3.66919 0)
(0.177309 3.64548 -2.55622e-20)
(0.239875 0.259948 -2.07553e-19)
(0.959526 1.08993 -3.14347e-19)
(1.1004 1.27954 0)
(1.1041 1.31611 5.95846e-21)
(1.05203 1.2951 -1.22652e-19)
(0.982654 1.25877 1.42322e-19)
(0.906812 1.22118 -3.53841e-21)
(0.821889 1.18267 6.0597e-21)