/*--------------------------------*- C++ -*----------------------------------*\
| =========                 |                                                 |
| \\      /  F ield         | OpenFOAM: The Open Source CFD Toolbox           |
|  \\    /   O peration     | Version:  2112                                  |
|   \\  /    A nd           | Website:  www.openfoam.com                      |
|    \\/     M anipulation  |                                                 |
\*---------------------------------------------------------------------------*/
FoamFile
{
    version     2.0;
    format      ascii;
    arch        "LSB;label=32;scalar=64";
    class       volScalarField;
    location    "43.5";
    object      p;
}
// * * * * * * * * * * * * * * * * * * * * * * * * * * * * * * * * * * * * * //

dimensions      [0 2 -2 0 0 0 0];

internalField   nonuniform List<scalar> 
8800
(
0.908415
0.860627
0.821934
0.792935
0.772064
0.757222
0.746612
0.739115
0.734272
0.732184
0.733415
0.737575
0.744196
0.753494
0.766261
0.783985
0.808756
0.842692
0.885238
0.943939
0.739672
0.74735
0.754818
0.758123
0.756615
0.751529
0.745033
0.73894
0.734195
0.731322
0.731007
0.733477
0.737936
0.743858
0.750611
0.756879
0.760511
0.75977
0.754344
0.745649
0.718088
0.724247
0.72837
0.731308
0.733349
0.733942
0.73282
0.730696
0.728653
0.72771
0.728631
0.730976
0.733747
0.735906
0.736496
0.735284
0.732932
0.729531
0.72497
0.721208
0.712305
0.714953
0.717699
0.720095
0.72172
0.722869
0.723593
0.723687
0.723361
0.72327
0.723977
0.725106
0.725912
0.72595
0.725319
0.724211
0.722383
0.719802
0.717394
0.715889
0.706959
0.708382
0.710155
0.712178
0.71395
0.715276
0.716244
0.717013
0.717592
0.718109
0.718707
0.719153
0.719212
0.718891
0.718167
0.716897
0.715184
0.713323
0.712009
0.711178
0.701928
0.702847
0.704082
0.705638
0.707257
0.708764
0.710025
0.711059
0.71198
0.712817
0.713442
0.713709
0.713616
0.713133
0.712218
0.71099
0.70964
0.708363
0.707532
0.706982
0.697079
0.697748
0.698703
0.699994
0.701388
0.702825
0.704237
0.705521
0.706668
0.707707
0.708449
0.708741
0.708591
0.708026
0.707174
0.70619
0.705147
0.704201
0.703607
0.703203
0.692369
0.692884
0.69366
0.694778
0.696038
0.697388
0.698801
0.700229
0.701596
0.70285
0.703757
0.704132
0.704021
0.703563
0.702901
0.702127
0.701311
0.7006
0.700157
0.699842
0.687727
0.688137
0.688786
0.689778
0.690964
0.692264
0.69367
0.695174
0.696723
0.69822
0.699343
0.699878
0.699932
0.699669
0.699208
0.698628
0.698004
0.697476
0.697141
0.696886
0.683073
0.683407
0.683967
0.684879
0.686014
0.687294
0.688728
0.690316
0.692033
0.693791
0.695196
0.695989
0.696289
0.696249
0.695992
0.695613
0.695165
0.694787
0.694536
0.694324
0.678325
0.678601
0.679099
0.679965
0.68108
0.68238
0.683877
0.685589
0.687509
0.689567
0.69133
0.692461
0.693054
0.693268
0.693231
0.693049
0.692772
0.692524
0.692338
0.692156
0.6734
0.673631
0.67409
0.674939
0.676073
0.677436
0.67904
0.680928
0.683115
0.685545
0.68775
0.689287
0.69022
0.69072
0.690923
0.690938
0.69083
0.690695
0.690563
0.690404
0.668216
0.668412
0.66885
0.669713
0.670909
0.672378
0.674144
0.676278
0.678816
0.681725
0.684465
0.686477
0.6878
0.688621
0.689089
0.689306
0.689368
0.68934
0.689255
0.689113
0.662684
0.662849
0.663284
0.66419
0.665489
0.667114
0.669105
0.67156
0.67454
0.678047
0.681439
0.684022
0.68581
0.686999
0.687765
0.688225
0.688456
0.688527
0.68848
0.688349
0.656696
0.656836
0.657283
0.65826
0.659707
0.661546
0.663836
0.666699
0.670234
0.674474
0.678664
0.68194
0.684282
0.685906
0.687011
0.687731
0.688148
0.688322
0.688312
0.68819
0.650137
0.650251
0.650722
0.6518
0.653443
0.655563
0.658237
0.661621
0.665855
0.670997
0.676162
0.680273
0.683276
0.68541
0.686906
0.687924
0.688555
0.688837
0.688863
0.688746
0.642839
0.642929
0.643439
0.644654
0.646548
0.649028
0.652197
0.656251
0.661365
0.667627
0.673972
0.67908
0.682861
0.685601
0.687568
0.688926
0.689794
0.690191
0.690252
0.690136
0.634596
0.634685
0.635246
0.636607
0.638821
0.641763
0.645561
0.650451
0.656664
0.664311
0.672085
0.678386
0.683093
0.686556
0.689097
0.690865
0.691998
0.692519
0.692617
0.692499
0.625112
0.625177
0.62582
0.627395
0.630026
0.63356
0.638151
0.644092
0.651656
0.660984
0.670503
0.678253
0.684078
0.688396
0.691611
0.693869
0.695322
0.695985
0.696118
0.695995
0.614033
0.614081
0.614817
0.616692
0.619852
0.624149
0.629762
0.637057
0.646354
0.657779
0.669383
0.678817
0.685941
0.691276
0.695267
0.698115
0.69993
0.700747
0.700915
0.700783
0.60082
0.600851
0.60173
0.604005
0.607866
0.613164
0.620111
0.62914
0.640592
0.654569
0.668674
0.68012
0.688779
0.695307
0.700229
0.703761
0.705993
0.706977
0.707176
0.707031
0.584729
0.58475
0.585836
0.588662
0.593476
0.600129
0.60886
0.620159
0.634348
0.651447
0.668509
0.68227
0.692692
0.700594
0.706615
0.710955
0.71366
0.714819
0.715041
0.714876
0.564611
0.564632
0.566048
0.569712
0.57592
0.584507
0.595713
0.610035
0.627707
0.648584
0.669069
0.68544
0.697844
0.707309
0.714522
0.719785
0.722998
0.724323
0.724551
0.724359
0.538648
0.538694
0.540693
0.545743
0.554136
0.565579
0.580271
0.59861
0.620629
0.645991
0.67039
0.689681
0.704253
0.715431
0.723987
0.730238
0.733957
0.735417
0.735629
0.735405
0.503803
0.50396
0.507169
0.51481
0.526945
0.54279
0.562493
0.586147
0.613533
0.644095
0.6728
0.695192
0.712052
0.725016
0.734999
0.742234
0.746385
0.747909
0.748077
0.747818
0.454309
0.455293
0.46174
0.474724
0.49339
0.516069
0.542684
0.573047
0.606755
0.643113
0.676417
0.702028
0.721218
0.736006
0.747435
0.755575
0.760016
0.761501
0.761593
0.761299
0.381247
0.388518
0.403524
0.426522
0.454917
0.486743
0.521831
0.559961
0.600736
0.643458
0.681768
0.710915
0.73273
0.74959
0.762653
0.771698
0.776445
0.777942
0.778015
0.777761
0.302448
0.319624
0.343972
0.377607
0.416156
0.4573
0.500974
0.547126
0.595449
0.645345
0.689752
0.723477
0.748748
0.768324
0.78351
0.793761
0.798766
0.800176
0.800285
0.800172
0.236907
0.257142
0.289274
0.331831
0.37932
0.429248
0.481246
0.535256
0.590976
0.647828
0.698047
0.736064
0.76456
0.78662
0.803563
0.814509
0.819577
0.82124
0.821411
0.821374
0.183211
0.205135
0.242747
0.29172
0.346247
0.403555
0.462907
0.52413
0.586794
0.650255
0.705952
0.747947
0.779337
0.80352
0.821903
0.833913
0.83985
0.841371
0.841575
0.841592
0.138397
0.161487
0.202871
0.256926
0.317154
0.380544
0.446195
0.513811
0.582809
0.652405
0.71322
0.758865
0.792858
0.819026
0.838878
0.851841
0.858245
0.859908
0.86021
0.860256
0.100175
0.123945
0.168176
0.226244
0.291246
0.359811
0.430933
0.504215
0.578948
0.654193
0.719727
0.768723
0.805099
0.83301
0.853996
0.867663
0.874474
0.876482
0.876866
0.876926
0.0665568
0.0907934
0.137275
0.198637
0.267649
0.340701
0.416665
0.495039
0.575003
0.655453
0.725364
0.777439
0.815939
0.845242
0.867025
0.88118
0.888384
0.890731
0.891192
0.891249
0.0360757
0.0607272
0.109049
0.173214
0.24568
0.322649
0.40294
0.485938
0.570722
0.656046
0.730088
0.785048
0.825423
0.855818
0.87812
0.892616
0.900093
0.902707
0.903249
0.903301
0.00779944
0.0328406
0.0827644
0.149309
0.22481
0.305246
0.389417
0.476639
0.565917
0.655873
0.733906
0.79164
0.833743
0.865074
0.887761
0.902529
0.910231
0.913007
0.913551
0.913576
-0.019043
0.00643084
0.0578453
0.126463
0.204652
0.288186
0.37586
0.466962
0.560454
0.654868
0.736841
0.797319
0.841076
0.873248
0.896324
0.911265
0.919084
0.921936
0.92249
0.922476
-0.0447735
-0.0188633
0.0336745
0.104367
0.18495
0.271268
0.362119
0.456793
0.554254
0.653003
0.738916
0.802168
0.847593
0.880614
0.904073
0.919178
0.927035
0.929885
0.930468
0.930448
-0.0697794
-0.0433031
0.0103101
0.0828105
0.16554
0.254361
0.3481
0.446064
0.547265
0.650232
0.740123
0.806253
0.853439
0.887395
0.911286
0.926534
0.9344
0.937198
0.937712
0.937654
-0.0941606
-0.0672541
-0.0124543
0.0616629
0.146333
0.237408
0.333757
0.434748
0.53946
0.646521
0.740443
0.809611
0.858728
0.893748
0.918132
0.933517
0.941325
0.944024
0.944442
0.944321
-0.118
-0.0905702
-0.0347305
0.0408609
0.127293
0.220389
0.319091
0.42284
0.530828
0.641832
0.739823
0.812242
0.863528
0.899783
0.924703
0.940158
0.947794
0.950307
0.950614
0.950444
-0.141396
-0.113383
-0.0565427
0.0204074
0.108412
0.203321
0.304129
0.410374
0.52138
0.636133
0.738196
0.814101
0.867887
0.905611
0.931112
0.946532
0.953867
0.956099
0.956292
0.956089
-0.164342
-0.135673
-0.0778901
0.000315246
0.0897388
0.186244
0.288927
0.397401
0.511146
0.629398
0.735489
0.815111
0.87179
0.911338
0.937525
0.952745
0.959558
0.961411
0.961479
0.961254
-0.186665
-0.157386
-0.098705
-0.0193786
0.0713122
0.16923
0.273547
0.383995
0.500185
0.621647
0.731632
0.81516
0.875163
0.917046
0.944185
0.959026
0.964954
0.966235
0.96616
0.965932
-0.208338
-0.178478
-0.118956
-0.0386139
0.053192
0.152337
0.258084
0.370237
0.488572
0.612905
0.726574
0.814112
0.877864
0.922727
0.951399
0.965863
0.970357
0.970621
0.97032
0.970144
-0.22942
-0.198908
-0.138612
-0.0573532
0.035444
0.13565
0.242623
0.356226
0.476398
0.603237
0.720272
0.811817
0.879661
0.928196
0.959378
0.974081
0.97674
0.975019
0.974038
0.974123
-0.249739
-0.218652
-0.157615
-0.0755328
0.0181281
0.119252
0.227256
0.342071
0.463775
0.592739
0.712723
0.80812
0.880259
0.933011
0.967901
0.984532
0.986247
0.981734
0.978477
0.977829
-0.269388
-0.237703
-0.175983
-0.0931829
0.00120816
0.103093
0.211925
0.32771
0.450631
0.581333
0.703791
0.802746
0.879322
0.936537
0.976077
0.997145
1.00105
0.995665
0.986341
0.971113
-0.288295
-0.25605
-0.193838
-0.110504
-0.0156089
0.0868358
0.196206
0.312651
0.436419
0.56837
0.692814
0.794878
0.876206
0.937832
0.981742
1.00883
1.01596
1.00455
0.985239
0.971653
-0.306287
-0.273841
-0.210989
-0.127273
-0.0319898
0.0708271
0.180326
0.297221
0.421449
0.55412
0.679897
0.784111
0.870238
0.935765
0.980189
1.00681
1.01754
0.996129
0.927593
0.89638
-0.322709
-0.292317
-0.227109
-0.142928
-0.0471873
0.0555701
0.164594
0.281647
0.405941
0.538714
0.665001
0.770201
0.860194
0.929836
0.966906
0.986583
0.981686
0.929901
0.860629
0.817795
-0.378837
-0.308591
-0.241804
-0.158551
-0.0627856
0.0396145
0.148943
0.265651
0.389531
0.521713
0.647556
0.752641
0.842459
0.919002
0.925101
0.933149
0.890348
0.823201
0.74742
0.705069
-0.340498
-0.324382
-0.263604
-0.180006
-0.0855663
0.0166817
0.125046
0.241088
0.363898
0.494445
0.617929
0.720844
0.802236
0.881462
0.873078
0.765702
0.663411
0.592172
0.519742
0.551962
-0.371825
-0.342399
-0.280671
-0.197838
-0.103376
-0.00134191
0.107285
0.222693
0.344421
0.47309
0.593605
0.692297
0.765446
0.807041
0.761239
0.617421
0.492414
0.40266
0.304541
0.356146
-0.396017
-0.363663
-0.300715
-0.217688
-0.123136
-0.021182
0.0873774
0.201965
0.322286
0.448503
0.565223
0.658034
0.722069
0.73087
0.62783
0.45775
0.307025
0.189486
0.0587126
0.0923821
-0.419704
-0.3858
-0.321696
-0.237808
-0.143104
-0.0412613
0.0668113
0.180454
0.299171
0.422588
0.534676
0.620778
0.66949
0.647602
0.492714
0.298541
0.109454
-0.0580295
-0.247292
-0.264451
-0.442776
-0.408428
-0.343455
-0.258826
-0.163932
-0.0622701
0.0451969
0.15778
0.274654
0.394919
0.501756
0.580607
0.611134
0.554162
0.364352
0.155696
-0.0607512
-0.249926
-0.492911
-0.797183
-0.466138
-0.431788
-0.366291
-0.281191
-0.186086
-0.0845472
0.0223919
0.133892
0.248824
0.365708
0.467093
0.537624
0.549078
0.441736
0.252936
0.0449583
-0.158292
-0.329948
-0.397316
-0.478801
-0.490733
-0.456327
-0.390551
-0.305241
-0.210064
-0.108735
-0.00241157
0.107838
0.22052
0.333518
0.429059
0.489078
0.476613
0.335671
0.15424
-0.034495
-0.195569
-0.287078
-0.310697
-0.326875
-0.516875
-0.48235
-0.416404
-0.331052
-0.23599
-0.135038
-0.0295645
0.0791378
0.189153
0.29762
0.386802
0.433593
0.403758
0.23718
0.0649047
-0.0984881
-0.223299
-0.261449
-0.274731
-0.276026
-0.544761
-0.510028
-0.44391
-0.35861
-0.263806
-0.163452
-0.0590763
0.0477484
0.154661
0.258002
0.339977
0.37294
0.325354
0.145768
-0.0173224
-0.16318
-0.238334
-0.255125
-0.256679
-0.256561
-0.57445
-0.539417
-0.473087
-0.387907
-0.293518
-0.193955
-0.0909375
0.0136673
0.117056
0.214718
0.288516
0.310121
0.227395
0.0617256
-0.0933035
-0.212894
-0.247928
-0.247228
-0.246882
-0.246384
-0.605657
-0.570344
-0.503826
-0.418847
-0.325025
-0.226475
-0.125099
-0.0230632
0.0763826
0.167862
0.233181
0.238094
0.136034
-0.0167579
-0.154007
-0.227932
-0.238086
-0.240576
-0.241221
-0.240994
-0.637826
-0.602347
-0.535864
-0.451192
-0.358125
-0.260837
-0.161384
-0.0622861
0.0328412
0.117736
0.174321
0.162868
0.0523174
-0.08381
-0.199367
-0.228685
-0.237801
-0.23931
-0.238932
-0.238491
-0.670505
-0.634893
-0.568747
-0.484539
-0.392457
-0.296695
-0.199482
-0.103676
-0.013247
0.0649816
0.11116
0.0887165
-0.0290561
-0.139512
-0.229464
-0.250246
-0.240568
-0.239389
-0.239419
-0.239063
-0.702811
-0.667281
-0.601619
-0.518273
-0.427458
-0.333545
-0.238902
-0.146692
-0.061355
0.0102813
0.0462159
0.0175245
-0.110069
-0.185825
-0.223825
-0.238928
-0.241585
-0.241
-0.240951
-0.241026
-0.733192
-0.698335
-0.633515
-0.551476
-0.46234
-0.370648
-0.278938
-0.190556
-0.110588
-0.0455836
-0.0150493
-0.0626001
-0.191786
-0.249557
-0.217083
-0.247851
-0.252036
-0.247323
-0.24585
-0.245501
-0.760094
-0.726289
-0.663306
-0.582971
-0.496045
-0.407028
-0.318649
-0.234304
-0.159589
-0.101364
-0.0737042
-0.142274
-0.284938
-0.382844
-0.335422
-0.316963
-0.294475
-0.280222
-0.273137
-0.270274
-0.781465
-0.749314
-0.689029
-0.611347
-0.527273
-0.441497
-0.356853
-0.276771
-0.206856
-0.155263
-0.131447
-0.204023
-0.363539
-0.650001
-0.684757
-0.495689
-0.389037
-0.349479
-0.332048
-0.323803
-0.795103
-0.765562
-0.708772
-0.634772
-0.554509
-0.472678
-0.392238
-0.316578
-0.250982
-0.204394
-0.182021
-0.224035
-0.326618
-0.536992
-0.613221
-0.446432
-0.390259
-0.372043
-0.364752
-0.362883
-0.79844
-0.772852
-0.720677
-0.651451
-0.576055
-0.499128
-0.423386
-0.352328
-0.290427
-0.246082
-0.215344
-0.175655
-0.0587506
0.0566201
-0.0509612
-0.223088
-0.311009
-0.332269
-0.338755
-0.340439
-0.789642
-0.768838
-0.72269
-0.659799
-0.590427
-0.519285
-0.44893
-0.382579
-0.324317
-0.281388
-0.235706
-0.138454
0.118832
0.429749
0.119619
-0.185658
-0.338404
-0.385952
-0.397736
-0.401343
-0.766368
-0.750347
-0.713044
-0.658633
-0.596616
-0.532081
-0.467578
-0.406049
-0.352362
-0.31092
-0.262247
-0.282613
-0.289497
-0.241892
-0.327679
-0.482306
-0.591608
-0.60182
-0.596642
-0.598421
-0.730706
-0.720132
-0.692189
-0.648039
-0.594519
-0.537136
-0.478435
-0.421671
-0.372225
-0.33769
-0.326293
-0.554782
-0.953433
-1.1887
-1.06724
-1.04422
-0.969198
-0.851871
-0.800313
-0.813516
-0.688661
-0.682616
-0.664649
-0.630536
-0.585787
-0.534905
-0.481253
-0.427652
-0.379335
-0.34728
-0.347215
-0.615095
-1.17752
-1.97696
-2.42223
-2.50121
-2.30014
-1.93274
-1.59302
-1.47408
-0.649158
-0.64566
-0.636275
-0.611314
-0.573298
-0.527225
-0.476534
-0.423214
-0.37156
-0.328546
-0.337095
-0.470065
-0.832368
-1.19765
-1.40034
-1.4445
-1.41055
-1.23056
-1.03449
-0.936487
-0.619346
-0.617221
-0.612577
-0.595117
-0.561896
-0.517559
-0.466629
-0.409707
-0.349782
-0.29231
-0.252263
-0.23399
-0.120977
0.146553
0.475953
0.778939
0.997944
1.13755
1.22018
1.25893
-0.595385
-0.59457
-0.593316
-0.583525
-0.554608
-0.509873
-0.455121
-0.391776
-0.321731
-0.241921
-0.155549
-0.0454243
0.224338
0.691545
1.18229
1.62127
1.91915
2.08659
2.16402
2.18637
-0.580498
-0.579929
-0.579551
-0.574972
-0.550955
-0.504846
-0.444318
-0.373206
-0.289975
-0.196448
-0.0898844
0.0255254
0.328104
0.800498
1.30304
1.74941
2.06998
2.25556
2.33873
2.36203
-0.571417
-0.570988
-0.570519
-0.569416
-0.55068
-0.503398
-0.436395
-0.357408
-0.265993
-0.164371
-0.056631
0.0466365
0.28193
0.722541
1.16538
1.55557
1.84408
2.00942
2.08277
2.10351
-0.566985
-0.565688
-0.563768
-0.56454
-0.553573
-0.505969
-0.432204
-0.345485
-0.250152
-0.14631
-0.0467357
0.0538973
0.206698
0.572785
0.941733
1.24593
1.47389
1.60319
1.6608
1.67696
-0.576443
-0.574218
-0.572807
-0.575641
-0.566464
-0.512458
-0.428518
-0.33376
-0.235728
-0.132288
-0.037945
0.0509482
0.169951
0.446705
0.719841
0.938915
1.10353
1.20004
1.24372
1.2554
-0.600575
-0.601273
-0.607698
-0.611256
-0.592934
-0.517967
-0.418545
-0.316683
-0.218304
-0.119161
-0.0319858
0.0452198
0.123965
0.308049
0.516532
0.677819
0.797836
0.86593
0.895565
0.903114
-0.603079
-0.612024
-0.625132
-0.62706
-0.590291
-0.497572
-0.389771
-0.288709
-0.196417
-0.106926
-0.0280154
0.0391752
0.102764
0.231285
0.372611
0.485767
0.571991
0.623562
0.647021
0.651628
-0.506048
-0.516427
-0.529163
-0.527986
-0.491932
-0.413854
-0.327073
-0.243679
-0.166796
-0.0915024
-0.0228023
0.0370326
0.0954506
0.177226
0.277182
0.356275
0.413705
0.446889
0.45973
0.461786
-0.314638
-0.321087
-0.329486
-0.331535
-0.314499
-0.277372
-0.23124
-0.180803
-0.127887
-0.0707496
-0.0155524
0.0363067
0.0843857
0.130248
0.192765
0.249027
0.293691
0.321389
0.33248
0.332204
-0.11834
-0.121529
-0.128141
-0.137012
-0.143153
-0.142188
-0.132368
-0.113652
-0.086454
-0.0502373
-0.0111878
0.0280244
0.0635102
0.0884827
0.12986
0.170561
0.202889
0.220518
0.226938
0.226203
0.0162256
0.014507
0.00844866
-0.00507199
-0.0247164
-0.043333
-0.0551637
-0.0576737
-0.049698
-0.0314153
-0.00704968
0.0164527
0.0382169
0.0508523
0.0744578
0.102876
0.12501
0.137398
0.141555
0.140204
0.0813616
0.0802069
0.0747815
0.0610761
0.0391568
0.0153644
-0.00459221
-0.017418
-0.0215369
-0.0167913
-0.00709148
0.00253878
0.0097393
0.014452
0.0303724
0.0492686
0.0634927
0.0707277
0.0724814
0.0709181
0.101466
0.100549
0.0962263
0.0850871
0.066709
0.0452957
0.0248722
0.00841755
-0.00226655
-0.0069885
-0.00897163
-0.0119337
-0.0174649
-0.0170174
-0.00502539
0.00798931
0.0163042
0.0190301
0.0192158
0.0181201
0.0997061
0.0990445
0.0959496
0.0878712
0.0741464
0.057136
0.0395158
0.0235457
0.0105344
0.000257523
-0.00991215
-0.0223757
-0.0350296
-0.0357377
-0.026419
-0.0182769
-0.0146661
-0.0143861
-0.0150534
-0.0158187
0.0893977
0.088959
0.0869024
0.0814389
0.0718465
0.0593417
0.045446
0.0316248
0.0187243
0.00626277
-0.00806224
-0.0257503
-0.0414504
-0.0406211
-0.0327961
-0.0283972
-0.0279333
-0.0296542
-0.0306495
-0.031188
0.0768572
0.076575
0.0752848
0.0718116
0.0654868
0.0568108
0.0466017
0.0357619
0.0246447
0.0126081
-0.00225333
-0.020618
-0.0354153
-0.0319111
-0.0256416
-0.0239221
-0.0256896
-0.0279823
-0.028916
-0.0293339
0.0648704
0.0646838
0.063924
0.0618914
0.0580502
0.0524861
0.0455718
0.0378575
0.0295857
0.0203722
0.00868706
-0.00540702
-0.0148696
-0.00954337
-0.00601752
-0.00689237
-0.00992848
-0.0123067
-0.0130862
-0.0134448
0.0545963
0.0544668
0.0540616
0.0530204
0.0509448
0.0477388
0.0435856
0.0388415
0.0338381
0.0287398
0.0235633
0.0176982
0.0157998
0.0215337
0.0222598
0.0192311
0.0158026
0.0139064
0.0133017
0.0128843
0.0462146
0.0461329
0.0459575
0.0455663
0.0446894
0.0431983
0.0411904
0.0390324
0.0373934
0.0372966
0.0398182
0.044034
0.0493487
0.0544672
0.0530967
0.049155
0.0461996
0.0452189
0.0448836
0.0443679
0.0393774
0.039331
0.0392917
0.0392764
0.0391636
0.038815
0.0383713
0.0382929
0.0395007
0.0439832
0.0541845
0.0690202
0.0837484
0.087221
0.0821078
0.0774139
0.0759637
0.0761269
0.0758727
0.0750764
0.033467
0.0334496
0.0334899
0.0336553
0.0339123
0.0342306
0.0348017
0.0361339
0.0393999
0.0470853
0.0628012
0.0852829
0.105424
0.106019
0.0990318
0.0962699
0.0964555
0.0978667
0.0977242
0.0968106
0.0278517
0.0278618
0.0279483
0.0281628
0.0285669
0.0291842
0.030231
0.0322685
0.0364371
0.045433
0.0627474
0.0874802
0.107797
0.107546
0.103707
0.10362
0.105858
0.108097
0.107671
0.106562
0.0219647
0.0219773
0.0220539
0.0222359
0.0226749
0.0233851
0.0245408
0.0266424
0.0307093
0.0389055
0.0539567
0.0748233
0.0910212
0.0900223
0.0886337
0.0922943
0.0985957
0.101951
0.10149
0.100298
0.0156268
0.0156298
0.0156851
0.0158226
0.0161392
0.0167688
0.0176971
0.0193942
0.0225739
0.0286668
0.0382438
0.0493107
0.0556169
0.0556178
0.0601844
0.0692687
0.0767595
0.0794017
0.0787592
0.0776965
0.00881768
0.00879907
0.0088312
0.00891521
0.00913368
0.0094469
0.010013
0.0110914
0.0129385
0.0160727
0.0200206
0.0200619
0.0145986
0.0169858
0.0265736
0.0369436
0.0445708
0.0465405
0.0455382
0.0446046
0.00193414
0.00189911
0.00189307
0.00191596
0.00180043
0.00167839
0.00183075
0.00217661
0.002505
0.00307569
0.00354961
0.00171289
-0.00071633
-0.000469887
0.0035059
0.00635429
0.00380989
0.00256644
0.00484815
0.00609109
-0.016177
0.152554
0.349931
0.521897
0.659799
0.769028
0.859667
0.93657
0.971234
0.947923
0.29106
0.413126
0.544458
0.658181
0.754263
0.833962
0.898478
0.944188
0.967077
0.979094
0.512734
0.596519
0.686284
0.765748
0.834157
0.891403
0.936898
0.970109
0.994073
1.01201
0.675272
0.735063
0.797739
0.85544
0.905704
0.948376
0.983402
1.01132
1.03427
1.05254
0.801962
0.845582
0.891998
0.936231
0.975313
1.00943
1.03862
1.06289
1.08338
1.1012
0.907039
0.940223
0.978634
1.01446
1.04734
1.07679
1.10251
1.12412
1.14204
1.15939
1.00007
1.02894
1.06312
1.09543
1.12554
1.15284
1.17669
1.19649
1.21205
1.22912
1.08896
1.11827
1.15241
1.18456
1.21427
1.24094
1.26387
1.28241
1.29582
1.31286
1.18445
1.21774
1.25446
1.28811
1.31822
1.34446
1.36645
1.38377
1.39566
1.41306
1.29956
1.33744
1.37613
1.41042
1.43981
1.46459
1.48499
1.5009
1.51239
1.53046
1.44457
1.48315
1.51932
1.55003
1.57574
1.59785
1.61693
1.63247
1.64491
1.66291
1.61971
1.65133
1.67753
1.7
1.71999
1.73873
1.75646
1.77294
1.7883
1.80637
1.80835
1.82555
1.8406
1.85684
1.87276
1.8873
1.90051
1.91444
1.93199
1.95214
1.99007
1.99962
2.01117
2.02198
2.03127
2.04086
2.05165
2.06302
2.07438
2.08974
2.19733
2.201
2.18605
2.17124
2.16496
2.17064
2.18913
2.21944
2.25162
2.27828
2.50364
2.36878
2.29215
2.24978
2.23236
2.23632
2.26372
2.32013
2.42276
2.64712
0.799013
0.796883
0.792398
0.783769
0.771539
0.759402
0.749162
0.741249
0.735606
0.732318
0.73192
0.734615
0.739684
0.746879
0.756247
0.767773
0.780414
0.791442
0.79755
0.800601
0.723476
0.729322
0.735656
0.740143
0.742605
0.742271
0.739521
0.735692
0.732155
0.729858
0.729666
0.731817
0.735442
0.739701
0.743487
0.745354
0.744406
0.740916
0.735747
0.729125
0.715071
0.717367
0.720768
0.723757
0.725824
0.727309
0.728048
0.72771
0.726657
0.725734
0.725857
0.727232
0.729005
0.730277
0.730431
0.729521
0.727957
0.72561
0.722339
0.719415
0.709587
0.710673
0.712502
0.714873
0.716887
0.718301
0.719303
0.72003
0.720398
0.720574
0.721006
0.721754
0.722302
0.722327
0.721883
0.72101
0.719522
0.717423
0.715327
0.71394
0.704418
0.705081
0.706185
0.707882
0.709652
0.711268
0.712542
0.713529
0.714371
0.715108
0.715769
0.716249
0.716381
0.716165
0.715558
0.714472
0.713019
0.711456
0.710125
0.709342
0.699487
0.699948
0.70073
0.702019
0.703492
0.704991
0.706431
0.707696
0.708785
0.709777
0.710609
0.71109
0.71116
0.710823
0.710075
0.709044
0.707887
0.706729
0.705799
0.705278
0.694714
0.695059
0.695666
0.696724
0.698003
0.699356
0.700767
0.702174
0.703492
0.704696
0.705706
0.706291
0.706373
0.706018
0.705354
0.704524
0.70363
0.702732
0.70204
0.701659
0.690048
0.690316
0.690805
0.691704
0.692857
0.69413
0.695492
0.696935
0.698412
0.699842
0.701069
0.701805
0.701987
0.701765
0.701288
0.700659
0.699955
0.699274
0.69876
0.698469
0.68541
0.685624
0.68603
0.686818
0.687889
0.689111
0.690458
0.69194
0.693536
0.695183
0.696668
0.697632
0.698021
0.698011
0.697741
0.697311
0.696796
0.696295
0.695916
0.695687
0.68072
0.680891
0.681238
0.681953
0.682978
0.684175
0.685543
0.687097
0.68883
0.690706
0.692498
0.693778
0.694454
0.694698
0.694652
0.694425
0.694098
0.693755
0.693486
0.693304
0.675893
0.676032
0.676337
0.677007
0.678013
0.67923
0.680658
0.682324
0.684247
0.686401
0.688568
0.690247
0.691267
0.691804
0.692006
0.69199
0.691846
0.691651
0.691475
0.691329
0.670848
0.670959
0.671236
0.671888
0.672911
0.674195
0.675727
0.677561
0.679741
0.682257
0.684893
0.687047
0.688466
0.689335
0.689812
0.690022
0.690059
0.690008
0.689911
0.689793
0.665502
0.66559
0.66585
0.666506
0.667583
0.668975
0.670665
0.672734
0.675248
0.678225
0.68144
0.684166
0.686057
0.687307
0.688093
0.688557
0.688792
0.688874
0.688847
0.688752
0.659759
0.659825
0.660077
0.66076
0.661927
0.663471
0.665379
0.667758
0.670699
0.674258
0.678186
0.681601
0.684055
0.685755
0.686895
0.687643
0.688091
0.688316
0.688354
0.688278
0.6535
0.653545
0.653796
0.654527
0.655824
0.657576
0.659773
0.662546
0.666021
0.670289
0.675085
0.679351
0.682492
0.684729
0.68628
0.687344
0.688043
0.688418
0.688521
0.688463
0.64659
0.646614
0.646869
0.647672
0.649142
0.651165
0.653736
0.657022
0.661184
0.666352
0.672218
0.677496
0.681443
0.684312
0.686344
0.687776
0.688758
0.689296
0.689466
0.689422
0.638857
0.638868
0.639126
0.640016
0.641713
0.644069
0.647116
0.651048
0.65607
0.662347
0.669521
0.676029
0.680942
0.68456
0.687176
0.689056
0.690358
0.691076
0.691315
0.691285
0.630003
0.629981
0.630293
0.631322
0.63329
0.636081
0.639741
0.644489
0.650586
0.65824
0.667013
0.674993
0.681064
0.685574
0.688881
0.691307
0.69298
0.693905
0.694219
0.6942
0.619765
0.619718
0.620072
0.62128
0.623599
0.62695
0.631383
0.637165
0.644614
0.653964
0.664682
0.674455
0.681902
0.687473
0.691604
0.694667
0.696787
0.697947
0.698341
0.698331
0.607668
0.607593
0.608024
0.609475
0.612255
0.616338
0.621785
0.628917
0.638107
0.649602
0.662683
0.674541
0.683592
0.690406
0.695506
0.699302
0.701942
0.703368
0.703845
0.70384
0.593088
0.592982
0.593531
0.595311
0.598708
0.603765
0.610546
0.619424
0.630807
0.644921
0.66085
0.675219
0.686164
0.694436
0.700692
0.705367
0.708613
0.710334
0.710893
0.710888
0.575091
0.574959
0.575697
0.577965
0.582232
0.588657
0.597283
0.608528
0.622791
0.640207
0.659531
0.676744
0.689817
0.699729
0.707301
0.712988
0.716917
0.718956
0.719587
0.71957
0.55222
0.552072
0.553142
0.556186
0.561785
0.570232
0.581485
0.595947
0.613914
0.635358
0.658662
0.679146
0.694614
0.706369
0.71538
0.722205
0.726873
0.729225
0.729908
0.729868
0.522126
0.522003
0.523685
0.528095
0.535947
0.547567
0.562701
0.581607
0.604353
0.630676
0.658547
0.682619
0.700665
0.714387
0.724961
0.733002
0.738403
0.741019
0.741716
0.741641
0.480667
0.480711
0.483757
0.491039
0.50309
0.519938
0.540849
0.565762
0.594471
0.626504
0.65944
0.687338
0.708074
0.723831
0.736036
0.745302
0.751324
0.754075
0.754729
0.754612
0.420145
0.421339
0.428841
0.442512
0.462271
0.487436
0.516478
0.549041
0.584812
0.623226
0.66156
0.693396
0.716842
0.734602
0.748395
0.758781
0.765266
0.767962
0.768458
0.7683
0.347902
0.349697
0.364072
0.387693
0.418285
0.453267
0.491222
0.532005
0.575427
0.620982
0.665697
0.702541
0.72966
0.750242
0.766104
0.777868
0.78494
0.787704
0.788252
0.788208
0.273226
0.279441
0.300689
0.334472
0.375353
0.419892
0.466738
0.515802
0.566976
0.619815
0.671131
0.713215
0.744167
0.767762
0.786052
0.799361
0.806864
0.809305
0.809671
0.809731
0.21225
0.220726
0.246603
0.287401
0.336249
0.388916
0.443772
0.500578
0.559147
0.618985
0.676607
0.723604
0.758098
0.784367
0.804622
0.81913
0.826814
0.829528
0.830304
0.830442
0.162579
0.171642
0.201071
0.24708
0.302025
0.361246
0.42285
0.486486
0.551789
0.618156
0.681703
0.733282
0.770989
0.799613
0.821654
0.837338
0.845932
0.849251
0.850204
0.850344
0.120846
0.130188
0.162065
0.21205
0.271987
0.33665
0.403971
0.473561
0.544898
0.617241
0.68629
0.742096
0.782734
0.813528
0.83721
0.853942
0.863331
0.867096
0.868221
0.868366
0.0846957
0.0941568
0.127879
0.181056
0.245092
0.314374
0.38668
0.461533
0.538305
0.616116
0.690234
0.749934
0.793252
0.825948
0.850897
0.868434
0.878496
0.882658
0.883864
0.884015
0.0524905
0.0620044
0.0971445
0.153011
0.220473
0.293721
0.370421
0.449994
0.531718
0.614569
0.693418
0.75675
0.802507
0.836791
0.862629
0.880688
0.891259
0.895758
0.897049
0.897211
0.022979
0.0325547
0.0688499
0.127029
0.197443
0.274154
0.354752
0.438592
0.524861
0.612433
0.695774
0.762579
0.810598
0.846257
0.872791
0.891233
0.902052
0.906825
0.908223
0.908389
-0.00467043
0.00496673
0.0423158
0.102464
0.175503
0.255276
0.339356
0.427066
0.517544
0.60958
0.697273
0.767476
0.817682
0.854586
0.881719
0.900458
0.911465
0.916418
0.917826
0.917977
-0.0310071
-0.0212736
0.0170498
0.0788819
0.154294
0.236797
0.324014
0.415257
0.509641
0.605931
0.697904
0.771511
0.823879
0.861987
0.889689
0.908702
0.919836
0.924823
0.926231
0.92632
-0.0564776
-0.0465581
-0.00738386
0.0560727
0.133577
0.218535
0.308588
0.403055
0.501081
0.601441
0.697646
0.774718
0.829315
0.868675
0.896985
0.916264
0.927497
0.932463
0.933828
0.933895
-0.0812859
-0.0711289
-0.0311857
0.0338515
0.113225
0.20038
0.292995
0.390407
0.491817
0.59607
0.696472
0.777111
0.834077
0.874813
0.903822
0.923392
0.934689
0.939589
0.940867
0.940918
-0.105501
-0.0951239
-0.0543512
0.0120644
0.09315
0.182294
0.277209
0.377297
0.481836
0.589782
0.694338
0.778683
0.838222
0.880515
0.910324
0.930189
0.94148
0.946235
0.947391
0.947384
-0.129241
-0.118556
-0.0770259
-0.00930339
0.0733301
0.164257
0.261235
0.36374
0.471149
0.582572
0.691188
0.779381
0.841767
0.885874
0.916603
0.936724
0.947895
0.952419
0.953396
0.953327
-0.152444
-0.141474
-0.099196
-0.0302577
0.0537824
0.146301
0.245118
0.34978
0.459791
0.574432
0.686974
0.779127
0.844686
0.890956
0.922791
0.94312
0.953984
0.95812
0.958891
0.95877
-0.175142
-0.163864
-0.120802
-0.0507726
0.0345398
0.128469
0.228909
0.335487
0.447818
0.565387
0.681652
0.777833
0.846897
0.895785
0.929053
0.949568
0.959858
0.963379
0.963885
0.963717
-0.197149
-0.185638
-0.141817
-0.0707906
0.0156584
0.110837
0.212677
0.320935
0.435305
0.555492
0.6752
0.775401
0.848273
0.900314
0.935561
0.956415
0.965779
0.968259
0.96836
0.968152
-0.218598
-0.206744
-0.162212
-0.090279
-0.00282338
0.0934471
0.196519
0.306205
0.42234
0.544826
0.66763
0.771727
0.848636
0.904376
0.942387
0.964177
0.97241
0.973122
0.972356
0.972076
-0.23932
-0.227154
-0.181953
-0.109188
-0.0208226
0.0763867
0.180514
0.291418
0.409032
0.533455
0.658986
0.766719
0.847776
0.907665
0.949333
0.973319
0.981079
0.979375
0.976466
0.975272
-0.259374
-0.24691
-0.200986
-0.127463
-0.038301
0.059725
0.164747
0.276653
0.395491
0.521517
0.649344
0.760297
0.845478
0.909744
0.955738
0.983604
0.993192
0.990418
0.98347
0.974346
-0.278677
-0.265973
-0.21941
-0.145263
-0.0554726
0.0431763
0.148873
0.261497
0.381253
0.508491
0.638151
0.751859
0.84118
0.910092
0.960641
0.993849
1.00867
1.00758
0.997344
0.990369
-0.297182
-0.284263
-0.237216
-0.162553
-0.072334
0.02674
0.132907
0.245932
0.366276
0.494264
0.625226
0.741053
0.834163
0.907923
0.961799
0.998938