/*--------------------------------*- C++ -*----------------------------------*\
| =========                 |                                                 |
| \\      /  F ield         | OpenFOAM: The Open Source CFD Toolbox           |
|  \\    /   O peration     | Version:  2112                                  |
|   \\  /    A nd           | Website:  www.openfoam.com                      |
|    \\/     M anipulation  |                                                 |
\*---------------------------------------------------------------------------*/
FoamFile
{
    version     2.0;
    format      ascii;
    arch        "LSB;label=32;scalar=64";
    class       surfaceScalarField;
    location    "43.5";
    object      phi;
}
// * * * * * * * * * * * * * * * * * * * * * * * * * * * * * * * * * * * * * //

dimensions      [0 3 -1 0 0 0 0];

oriented        oriented;

internalField   nonuniform List<scalar> 
17370
(
-0.0916069
0.0960073
0.28461
-0.0775912
0.0594151
0.364952
-0.0430371
0.0316176
0.427588
-0.0223129
0.0162591
0.505306
-0.011664
0.00878818
0.602278
-0.0065758
0.00509228
0.720541
-0.00386034
0.00298619
0.863781
-0.00221952
0.00164555
1.03602
-0.00111738
0.00069872
1.24292
-0.000289132
-0.000102305
1.49158
0.000488947
-0.000898642
1.4916
0.00130056
-0.0018042
1.24319
0.00235562
-0.00310174
1.03638
0.0039636
-0.00518818
0.864131
0.00666687
-0.00887181
0.721262
0.0117367
-0.0163156
0.603794
0.0223535
-0.0316417
0.508727
0.0430447
-0.0594122
0.432536
0.07759
-0.0960046
0.36519
0.0916201
0.197391
-0.127088
0.0880183
0.0390696
-0.364352
0.354025
-0.071479
0.0818054
-0.446655
0.454249
-0.0791708
0.0715771
-0.521009
0.529107
-0.0637273
0.05563
-0.612987
0.620758
-0.0482428
0.0404722
-0.72716
0.733681
-0.0338591
0.0273385
-0.86758
0.872424
-0.0221383
0.0172943
-1.03856
1.0419
-0.0136043
0.0102718
-1.24472
1.24712
-0.00772543
0.00532406
-1.49284
1.49485
-0.00336418
0.00135451
-1.49269
1.49451
0.000463912
-0.00228086
-1.24411
1.24602
0.00425195
-0.00616158
-1.03761
1.04009
0.00849699
-0.0109783
-0.866188
0.869824
0.014242
-0.0178782
-0.724594
0.729757
0.0226744
-0.0278368
-0.609066
0.615639
0.0343165
-0.040889
-0.515125
0.522463
0.048611
-0.0559488
-0.43988
0.447663
0.0639752
-0.0717581
-0.374711
0.377356
0.0792609
-0.0819065
-0.256902
0.224443
0.0715575
-0.039099
-0.0688028
0.0591882
0.00961463
-0.0521226
0.0589565
-0.374833
0.367999
-0.0581124
0.0542735
-0.453941
0.45778
-0.0487884
0.0442303
-0.52761
0.532168
-0.0396808
0.0357858
-0.620793
0.624688
-0.0315756
0.0275865
-0.734652
0.738641
-0.0232395
0.0193613
-0.873948
0.877826
-0.0153243
0.011873
-1.04335
1.04681
-0.00835918
0.00533133
-1.24864
1.25167
-0.00212782
-0.00084962
-1.49694
1.49992
0.00380715
-0.00695247
-1.49742
1.50056
0.00989703
-0.0132998
-1.25007
1.25347
0.0166409
-0.0205567
-1.04566
1.04957
0.0243338
-0.0285844
-0.877142
0.881392
0.0324948
-0.0366224
-0.738988
0.743115
0.0404439
-0.044918
-0.625979
0.630453
0.0494138
-0.0548388
-0.535023
0.540448
0.0586106
-0.0593752
-0.458083
0.458848
0.0524359
-0.0320554
-0.336775
0.316395
0.00967054
-0.0686709
0.0590003
-0.0533971
0.0492827
0.00411439
-0.0332629
0.0436953
-0.358546
0.348113
-0.047378
0.0467959
-0.459568
0.46015
-0.0438715
0.0406618
-0.536119
0.539328
-0.0369875
0.033636
-0.62838
0.631731
-0.030008
0.0267756
-0.742019
0.745251
-0.0233354
0.0201483
-0.881318
0.884505
-0.0165643
0.0132193
-1.05022
1.05357
-0.00952794
0.00613044
-1.25493
1.25833
-0.00234749
-0.00126294
-1.50327
1.50688
0.00484357
-0.00854091
-1.50407
1.50776
0.0118225
-0.0153579
-1.25704
1.26058
0.0185462
-0.021955
-1.05328
1.05669
0.0249927
-0.0282885
-0.884998
0.888294
0.0314034
-0.0349125
-0.746799
0.750308
0.0381591
-0.0417215
-0.634579
0.638141
0.0448339
-0.0476503
-0.544597
0.547413
0.0481223
-0.0442877
-0.456971
0.453137
0.0336704
-0.0163681
-0.297088
0.279786
0.00417534
-0.053154
0.0489787
-0.0461107
0.0435518
0.00255885
-0.0230701
0.0334314
-0.337512
0.327151
-0.0391759
0.0401322
-0.459894
0.458937
-0.0388879
0.0365648
-0.541979
0.544302
-0.0339281
0.0313879
-0.63469
0.63723
-0.0284208
0.0255851
-0.748331
0.751166
-0.0223619
0.01936
-0.887555
0.890557
-0.01602
0.0128956
-1.05674
1.05986
-0.00935046
0.00596141
-1.26171
1.2651
-0.00206205
-0.00172812
-1.51061
1.5144
0.00548
-0.00926511
-1.51155
1.51533
0.0125014
-0.015843
-1.26404
1.26738
0.0187639
-0.0218763
-1.0599
1.06301
0.0246788
-0.0277007
-0.891488
0.89451
0.0303707
-0.0331724
-0.753489
0.756291
0.0355702
-0.0380597
-0.641102
0.643592
0.040257
-0.0413361
-0.549257
0.550337
0.0402106
-0.0342207
-0.448024
0.442035
0.0235915
-0.0103597
-0.264614
0.251382
0.00263416
-0.0457393
0.0431051
-0.0414306
0.0396265
0.00180408
-0.0169701
0.0262693
-0.31727
0.307971
-0.0328795
0.0350101
-0.457368
0.455237
-0.0345844
0.0328925
-0.546323
0.548015
-0.0306714
0.0285505
-0.639532
0.641653
-0.026123
0.0237573
-0.75376
0.756126
-0.0209589
0.018227
-0.893404
0.896136
-0.0150583
0.0120382
-1.06289
1.06591
-0.00858871
0.00528758
-1.26841
1.27171
-0.00146267
-0.00227238
-1.51816
1.52189
0.00595894
-0.00964027
-1.51908
1.52276
0.0127478
-0.0159389
-1.27066
1.27385
0.0186984
-0.0215709
-1.06604
1.06891
0.0240397
-0.026573
-0.897298
0.899831
0.028723
-0.0309385
-0.758736
0.760952
0.0328796
-0.0349134
-0.645826
0.64786
0.0364255
-0.0366293
-0.550928
0.551132
0.0342411
-0.0272748
-0.435463
0.428497
0.0176185
-0.00745438
-0.239828
0.229664
0.00189596
-0.0409014
0.0390054
-0.0380739
0.0367179
0.00135599
-0.0129748
0.0209905
-0.299317
0.291302
-0.0277773
0.030715
-0.452672
0.449734
-0.0309357
0.0298223
-0.549445
0.550559
-0.0278321
0.0259152
-0.643701
0.645617
-0.0237171
0.0215911
-0.758358
0.760484
-0.0191017
0.0166494
-0.898669
0.901121
-0.0137465
0.0109079
-1.06879
1.07163
-0.00759856
0.00440223
-1.27493
1.27812
-0.000691948
-0.00291841
-1.52554
1.52916
0.00646866
-0.00999973
-1.52637
1.5299
0.0129541
-0.0159397
-1.27698
1.27997
0.0184514
-0.0209825
-1.07163
1.07417
0.0231046
-0.0252589
-0.902144
0.904298
0.0271093
-0.0290362
-0.763
0.764927
0.0307269
-0.0324958
-0.64974
0.651509
0.0333494
-0.0328195
-0.550977
0.550447
0.0295153
-0.0222432
-0.421322
0.41405
0.0137714
-0.00574628
-0.220672
0.212647
0.00146783
-0.0373522
0.0358843
-0.0355341
0.0344883
0.00104578
-0.0101517
0.0169439
-0.283924
0.277132
-0.0234851
0.0268914
-0.446545
0.443139
-0.0276978
0.0270239
-0.551445
0.552119
-0.0252766
0.0235094
-0.647495
0.649262
-0.0214656
0.0194774
-0.762539
0.764527
-0.0171378
0.0148408
-0.903429
0.905726
-0.0121399
0.00949268
-1.0743
1.07695
-0.00637791
0.00333377
-1.2812
1.28425
0.000229588
-0.00369861
-1.53267
1.53614
0.00709558
-0.0104376
-1.53335
1.53669
0.0131847
-0.0159036
-1.28285
1.28556
0.0181514
-0.0203932
-1.07656
1.07881
0.0222741
-0.0241843
-0.906333
0.908243
0.0258202
-0.0275238
-0.766722
0.768425
0.0290121
-0.0304564
-0.653128
0.654573
0.0308042
-0.0295714
-0.549578
0.548345
0.0256631
-0.0184871
-0.406805
0.399629
0.0111248
-0.00460827
-0.205449
0.198932
0.00118165
-0.0345782
0.0333965
-0.03357
0.0327535
0.000816519
-0.00805978
0.0137802
-0.270907
0.265187
-0.0198501
0.0234683
-0.439622
0.436004
-0.0247646
0.0243428
-0.552704
0.553125
-0.0228706
0.0212157
-0.651021
0.652676
-0.0192734
0.0173827
-0.766462
0.768352
-0.0151557
0.0129665
-0.907897
0.910087
-0.0103881
0.00786671
-1.07945
1.08197
-0.00491095
0.0020232
-1.28716
1.29005
0.00135498
-0.00464147
-1.5395
1.54278
0.00783927
-0.0109499
-1.53992
1.54303
0.0134735
-0.0159429
-1.28818
1.29065
0.0179736
-0.0199886
-1.08096
1.08297
0.0216675
-0.0233649
-0.910061
0.911759
0.0248188
-0.0263385
-0.770022
0.771542
0.0276453
-0.0287279
-0.655814
0.656897
0.0287188
-0.0268351
-0.546795
0.544911
0.0225533
-0.0156743
-0.392598
0.385719
0.0092484
-0.00381438
-0.193009
0.187575
0.000981926
-0.0323292
0.0313473
-0.0320357
0.0313963
0.000639367
-0.00644705
0.0112495
-0.259956
0.255153
-0.0167375
0.0203695
-0.432384
0.428752
-0.0220072
0.0218276
-0.553466
0.553646
-0.0206095
0.0190327
-0.654338
0.655915
-0.0171631
0.0153339
-0.770202
0.772032
-0.0131768
0.0110569
-0.912161
0.914281
-0.00856312
0.0061301
-1.08437
1.08681
-0.00328758
0.000526845
-1.29282
1.29558
0.00268474
-0.00578912
-1.54594
1.54905
0.00878388
-0.0116681
-1.54602
1.5489
0.0139893
-0.0162455
-1.29304
1.2953
0.0180862
-0.0198988
-1.08491
1.08673
0.0213966
-0.0229016
-0.913376
0.914881
0.0241855
-0.0255219
-0.772964
0.774301
0.0266769
-0.0273567
-0.657757
0.658437
0.0269896
-0.0245702
-0.54278
0.540361
0.0200746
-0.0135683
-0.379037
0.37253
0.00789714
-0.00325059
-0.182576
0.17793
0.000840897
-0.0304491
0.0296082
-0.030837
0.0303407
0.000496308
-0.00514977
0.00915966
-0.250776
0.246766
-0.0140173
0.0175094
-0.425204
0.421712
-0.0193403
0.0193587
-0.553773
0.553755
-0.0183453
0.0168095
-0.657532
0.659068
-0.0149718
0.0131706
-0.773832
0.775633
-0.0110531
0.00898263
-0.916286
0.918356
-0.00655767
0.00419991
-1.08911
1.09147
-0.00145256
-0.00120157
-1.29822
1.30087
0.00426512
-0.00719527
-1.55203
1.55496
0.00999258
-0.0126578
-1.55167
1.55433
0.0147752
-0.0168043
-1.29747
1.2995
0.0184392
-0.0200332
-1.08846
1.09005
0.0213438
-0.022665
-0.916316
0.917637
0.0238012
-0.0249858
-0.775567
0.776752
0.0259719
-0.0262992
-0.658912
0.659239
0.0255665
-0.022718
-0.537747
0.534899
0.0181238
-0.0119972
-0.366236
0.360109
0.00692017
-0.00284958
-0.173607
0.169537
0.000741881
-0.02883
0.0280881
-0.0299123
0.0295366
0.000375638
-0.00406281
0.00737497
-0.243132
0.23982
-0.0115891
0.0148342
-0.418364
0.415119
-0.0167422
0.0169342
-0.553709
0.553517
-0.0160249
0.0145793
-0.660636
0.662081
-0.012756
0.0109562
-0.777413
0.779212
-0.00884057
0.00677826
-0.920316
0.922378
-0.00437479
0.00205281
-1.09371
1.09603
0.000626781
-0.00319835
-1.30342
1.30599
0.00613552
-0.00890883
-1.55776
1.56053
0.0115211
-0.0139742
-1.55688
1.55933
0.0158941
-0.0177098
-1.30145
1.30327
0.0191555
-0.0205507
-1.09158
1.09297
0.0216893
-0.0228334
-0.918895
0.920039
0.0238167
-0.0248262
-0.777868
0.778878
0.0255564
-0.0256008
-0.65942
0.659465
0.0244846
-0.0212677
-0.531882
0.528665
0.0166313
-0.0108451
-0.354182
0.348396
0.00622415
-0.00257061
-0.165708
0.162055
0.000675072
-0.027393
0.026718
-0.0292212
0.0289538
0.000267383
-0.00310447
0.0057821
-0.236849
0.234171
-0.00934552
0.0122527
-0.412069
0.409162
-0.0141178
0.0144129
-0.553338
0.553043
-0.0135749
0.0122043
-0.663569
0.66494
-0.0103869
0.00856888
-0.780991
0.782809
-0.0064269
0.00434506
-0.924333
0.926414
-0.00193363
-0.00037339
-1.09824
1.10055
0.00302445
-0.00553619
-1.30845
1.31097
0.00837423
-0.0110183
-1.5632
1.56584
0.0134662
-0.0157138
-1.56167
1.56391
0.0174342
-0.0190278
-1.30501
1.3066
0.0202747
-0.0214598
-1.09431
1.09549
0.0224149
-0.0233723
-0.921127
0.922084
0.0241959
-0.0250156
-0.779816
0.780636
0.0254839
-0.0252622
-0.659349
0.659127
0.0237474
-0.0201959
-0.525309
0.521757
0.015539
-0.0100315
-0.34279
0.337282
0.00574785
-0.0023868
-0.158582
0.155221
0.000633615
-0.0260786
0.025445
-0.0287423
0.0285774
0.000164962
-0.00221316
0.00429155
-0.231811
0.229733
-0.00719639
0.00969281
-0.406489
0.403992
-0.0114023
0.0117122
-0.552823
0.552513
-0.0108979
0.00954811
-0.666401
0.667751
-0.00769775
0.00583108
-0.784614
0.786481
-0.00363908
0.00152165
-0.928378
0.930495
0.00091216
-0.00323368
-1.10275
1.10507
0.00586907
-0.00834005
-1.31337
1.31584
0.0110869
-0.0135943
-1.56836
1.57087
0.0158627
-0.0178921
-1.56604
1.56807
0.0194021
-0.020755
-1.30811
1.30946
0.0217765
-0.0227159
-1.09661
1.09755
0.0234573
-0.0242081
-0.922978
0.923728
0.0248704
-0.0255433
-0.781388
0.782061
0.0257273
-0.0251963
-0.658686
0.658155
0.0233053
-0.0194594
-0.518108
0.514263
0.0147847
-0.00948726
-0.331934
0.326636
0.00544202
-0.00227614
-0.151997
0.148831
0.000611371
-0.0248396
0.0242282
-0.0284683
0.0284055
6.27678e-05
-0.00134502
0.00283685
-0.227961
0.22647
-0.00506649
0.00708838
-0.401763
0.399741
-0.0085467
0.0088039
-0.552331
0.552074
-0.0079858
0.00663937
-0.669226
0.670572
-0.00473646
0.00280105
-0.788336
0.790271
-0.000522255
-0.00167507
-0.932493
0.934691
0.00418949
-0.00656475
-1.10727
1.10965
0.00922996
-0.011688
-1.31821
1.32067
0.0143654
-0.016747
-1.57325
1.57563
0.0188403
-0.0206487
-1.56996
1.57177
0.021943
-0.0230545
-1.31073
1.31184
0.0238614
-0.0245679
-1.09844
1.09914
0.0250865
-0.0255927
-0.924432
0.924938
0.0260547
-0.0265286
-0.782612
0.783086
0.0264069
-0.0255156
-0.657353
0.656462
0.0232268
-0.0190723
-0.510334
0.50618
0.0143483
-0.00918222
-0.321471
0.316305
0.00528569
-0.00223102
-0.145764
0.14271
0.000607493
-0.0236381
0.0230307
-0.028402
0.0284487
-4.67821e-05
-0.000454454
0.00134871
-0.225286
0.224392
-0.00286543
0.00433696
-0.398022
0.396551
-0.00543207
0.00555153
-0.552005
0.551886
-0.0046826
0.00330088
-0.672079
0.673461
-0.00132658
-0.000711235
-0.792194
0.794232
0.00311998
-0.0054315
-0.936773
0.939085
0.0080567
-0.0105085
-1.11191
1.11436
0.0132257
-0.0156957
-1.32302
1.32549
0.0183339
-0.0206143
-1.57789
1.58017
0.0225402
-0.0241182
-1.57343
1.57501
0.0251708
-0.0259983
-1.31285
1.31368
0.0265396
-0.0269594
-1.09978
1.1002
0.0272259
-0.0274775
-0.92541
0.925661
0.0277342
-0.0279278
-0.78329
0.783484
0.027552
-0.0261999
-0.655254
0.653902
0.0234874
-0.0190153
-0.501978
0.497506
0.014207
-0.00909192
-0.31125
0.306135
0.00526098
-0.00224267
-0.139726
0.136708
0.000618834
-0.0224408
0.0218219
-0.0285548
0.0287205
-0.000165721
0.000500505
-0.000242861
-0.223817
0.223559
-0.000511587
0.0013574
-0.395411
0.394566
-0.00197306
0.00185408
-0.552041
0.55216
-0.000847366
-0.00066346
-0.675077
0.676588
0.00277764
-0.00496098
-0.796267
0.79845
0.00752537
-0.00996733
-0.941268
0.94371
0.0127218
-0.0152761
-1.1167
1.11925
0.0180758
-0.020577
-1.32785
1.33035
0.0231782
-0.0253374
-1.58231
1.58447
0.0270654
-0.0283798
-1.57641
1.57772
0.0291703
-0.0296797
-1.31438
1.31489
0.0299228
-0.0300205
-1.10055
1.10064
0.0300013
-0.0299625
-0.925869
0.92583
0.0299838
-0.0298592
-0.783324
0.783199
0.0291784
-0.0273112
-0.652272
0.650405
0.0241531
-0.0193259
-0.493017
0.48819
0.0143698
-0.00921354
-0.301104
0.295948
0.00536482
-0.0023101
-0.133733
0.130678
0.00064546
-0.0212164
0.0205709
-0.0289677
0.0292792
-0.000311436
0.00153525
-0.00193204
-0.22365
0.224047
0.00204454
-0.00193686
-0.394058
0.39395
0.00192163
-0.00236961
-0.552667
0.553115
0.00356501
-0.005226
-0.678387
0.680048
0.00751591
-0.00988319
-0.800623
0.80299
0.0126671
-0.0153114
-0.946025
0.948669
0.0182761
-0.0209945
-1.1217
1.12442
0.023926
-0.0264875
-1.33274
1.3353
0.0290712
-0.0311223
-1.58648
1.58853
0.0326458
-0.0336598
-1.57884
1.57985
0.0341518
-0.0343048
-1.31525
1.3154
0.0342224
-0.0339756
-1.10062
1.10038
0.0336447
-0.0332758
-0.9257
0.925331
0.0330218
-0.0324702
-0.782632
0.78208
0.0313864
-0.0289253
-0.648328
0.645867
0.0252601
-0.0200138
-0.483357
0.478111
0.0148381
-0.00954524
-0.290849
0.285556
0.00559491
-0.0024321
-0.12764
0.124477
0.000687128
-0.0199348
0.0192476
-0.0296602
0.0301498
-0.000489637
0.00285094
-0.00403059
-0.224852
0.226031
0.00504001
-0.00574763
-0.394184
0.394892
0.00645793
-0.00733498
-0.554073
0.554951
0.00877531
-0.0106341
-0.682051
0.68391
0.013171
-0.0157971
-0.805354
0.80798
0.0188851
-0.0217996
-0.951201
0.954116
0.0250337
-0.0279591
-1.12704
1.12996
0.0310586
-0.0337017
-1.33775
1.3404
0.036273
-0.0381942
-1.59041
1.59233
0.0394793
-0.0401458
-1.58062
1.58129
0.0402791
-0.0400304
-1.31537
1.31512
0.0395724
-0.0389274
-1.09995
1.09931
0.0382436
-0.0374961
-0.924806
0.924058
0.0369046
-0.0358317
-0.780998
0.779925
0.0342323
-0.0310953
-0.643256
0.640119
0.0268608
-0.0211254
-0.472881
0.467146
0.0156407
-0.0100996
-0.280295
0.274753
0.00595558
-0.00260862
-0.121307
0.11796
0.000742806
-0.0185672
0.0178244
-0.0307112
0.0314198
-0.000708623
0.00435696
-0.00643002
-0.227632
0.229706
0.00853685
-0.0101635
-0.396019
0.397645
0.0117121
-0.0131742
-0.556527
0.557989
0.0150487
-0.0172447
-0.686217
0.688413
0.0201528
-0.0231141
-0.810599
0.81356
0.026556
-0.0297735
-0.9569
0.960117
0.0333098
-0.0364727
-1.13277
1.13594
0.0397693
-0.04251
-1.34292
1.34566
0.0450649
-0.0468254
-1.59406
1.59582
0.0478189
-0.048087
-1.58168
1.58195
0.0477859
-0.0470685
-1.31462
1.3139
0.0461601
-0.0450334
-1.09839
1.09726
0.0439317
-0.0427526
-0.923072
0.921893
0.0417066
-0.040121
-0.778298
0.776713
0.0378941
-0.0340041
-0.636897
0.633007
0.0291034
-0.0227488
-0.461425
0.45507
0.0168273
-0.0109016
-0.269204
0.263278
0.00645811
-0.00284329
-0.114575
0.11096
0.00081366
-0.0170843
0.0162706
-0.0321995
0.0331958
-0.000996346
0.00625697
-0.00943178
-0.232221
0.235396
0.0127842
-0.0154609
-0.399806
0.402483
0.0179612
-0.020101
-0.560331
0.562471
0.0225271
-0.0251688
-0.691156
0.693798
0.02857
-0.0319725
-0.816514
0.819916
0.0358812
-0.039503
-0.963217
0.966838
0.0434447
-0.0469187
-1.139
1.14247
0.05046
-0.0533029
-1.34826
1.3511
0.0558005
-0.0573274
-1.59733
1.59886
0.0579376
-0.0577017
-1.58189
1.58165
0.0569052
-0.0556267
-1.31283
1.31155
0.0542224
-0.0525565
-1.09577
1.0941
0.0509804
-0.049286
-0.920375
0.91868
0.0477088
-0.0455171
-0.77453
0.772338
0.042564
-0.0377786
-0.629055
0.62427
0.0320707
-0.0249419
-0.448726
0.441598
0.0184331
-0.0119619
-0.257304
0.250833
0.00709908
-0.00312793
-0.107281
0.10331
0.000894672
-0.0154594
0.0145647
-0.0342587
0.0356487
-0.00139
0.00873685
-0.0132326
-0.238976
0.243471
0.0180556
-0.0219518
-0.405871
0.409767
0.025565
-0.0285147
-0.565732
0.568681
0.0316342
-0.0348457
-0.697077
0.700288
0.0388826
-0.04286
-0.82331
0.827288
0.0473805
-0.0515233
-0.970376
0.974519
0.055965
-0.059796
-1.14585
1.14969
0.0635866
-0.0665023
-1.35378
1.35669
0.0688877
-0.0701125
-1.6001
1.60133
0.070248
-0.0693831
-1.58103
1.58016
0.0679798
-0.0660257
-1.30981
1.30785
0.0640431
-0.0617878
-1.09195
1.08969
0.059693
-0.0574385
-0.916533
0.914278
0.0552126
-0.0522972
-0.769489
0.766574
0.048471
-0.042623
-0.619439
0.613591
0.0359447
-0.0278369
-0.434484
0.426376
0.02054
-0.0133184
-0.244268
0.237046
0.00788922
-0.00345992
-0.0992443
0.094815
0.00098232
-0.0136747
0.0126924
-0.0370843
0.0390366
-0.00195229
0.0120898
-0.0182582
-0.24833
0.254498
0.0248471
-0.0301711
-0.414679
0.420003
0.0351155
-0.0390995
-0.573097
0.577081
0.0431676
-0.0471877
-0.70429
0.70831
0.0520942
-0.05681
-0.831266
0.835981
0.0620623
-0.0667846
-0.978589
0.983311
0.0717344
-0.0758834
-1.15339
1.15754
0.0798342
-0.0827034
-1.35937
1.36224
0.0848008
-0.0855317
-1.60216
1.60289
0.0850093
-0.0833538
-1.57882
1.57716
0.0812062
-0.0784508
-1.30537
1.30261
0.0757962
-0.0728673
-1.08678
1.08385
0.0702139
-0.0673628
-0.911428
0.908577
0.0644468
-0.0606852
-0.762962
0.7592
0.0558674
-0.0487853
-0.607714
0.600632
0.0409259
-0.0315669
-0.41828
0.408921
0.0232238
-0.0149966
-0.229677
0.22145
0.00883012
-0.00383482
-0.0902626
0.0852673
0.00107435
-0.0117184
0.010644
-0.0409892
0.0437982
-0.00280903
0.0169281
-0.0252864
-0.260963
0.269321
0.0340381
-0.0410668
-0.426867
0.433896
0.0476049
-0.052844
-0.582973
0.588212
0.0581888
-0.0633383
-0.713306
0.718456
0.0693409
-0.0749082
-0.840686
0.846253
0.0809315
-0.0861993
-0.987925
0.993193
0.0915632
-0.0959026
-1.16147
1.16581
0.0998327
-0.102459
-1.36474
1.36737
0.104025
-0.104024
-1.60308
1.60308
0.102627
-0.0999893
-1.57491
1.57227
0.0969525
-0.0932556
-1.29923
1.29553
0.0897887
-0.0860627
-1.08014
1.07641
0.0827836
-0.079277
-0.904935
0.901428
0.0756861
-0.0709481
-0.754608
0.74987
0.064961
-0.0563952
-0.593476
0.584911
0.0470877
-0.0361513
-0.399574
0.388637
0.0264537
-0.016936
-0.213043
0.203525
0.00986663
-0.00422282
-0.0801415
0.0744977
0.00116137
-0.00958621
0.00842484
-0.0465278
0.0507856
-0.00425776
0.0244512
-0.0357847
-0.277977
0.28931
0.0473283
-0.0565926
-0.443434
0.452699
0.0650403
-0.0717056
-0.595943
0.602608
0.0785795
-0.0851776
-0.724578
0.731176
0.0923515
-0.0987225
-0.851772
0.858142
0.105401
-0.111055
-0.99827
1.00392
0.116587
-0.120838
-1.16978
1.17404
0.124392
-0.126416
-1.36944
1.37146
0.127041
-0.125943
-1.60233
1.60124
0.123344
-0.119438
-1.56886
1.56496
0.115332
-0.110567
-1.29111
1.28634
0.106231
-0.10168
-1.07178
1.06723
0.0977286
-0.0934095
-0.896876
0.892557
0.0890805
-0.0831864
-0.744112
0.738218
0.0757727
-0.0653967
-0.576152
0.565776
0.0543282
-0.0414406
-0.377707
0.364819
0.0300548
-0.0189811
-0.193869
0.182795
0.0108884
-0.00457168
-0.068773
0.0624563
0.00122796
-0.00729575
0.00606779
-0.0547542
0.0620739
-0.00731977
0.0378227
-0.0535359
-0.301477
0.31719
0.068983
-0.0812388
-0.465905
0.478161
0.0916765
-0.0996994
-0.612382
0.620405
0.108098
-0.115913
-0.738387
0.746202
0.123981
-0.130784
-0.864293
0.871096
0.137607
-0.143113
-1.00916
1.01466
0.148193
-0.151748
-1.17763
1.18119
0.154264
-0.155075
-1.37262
1.37343
0.154165
-0.151471
-1.59911
1.59642
0.147272
-0.1418
-1.56011
1.55464
0.136398
-0.130386
-1.28077
1.27476
0.125044
-0.11956
-1.06163
1.05614
0.114906
-0.109825
-0.886932
0.881851
0.104598
-0.097191
-0.731003
0.723596
0.0880527
-0.07545
-0.555004
0.542401
0.0621946
-0.0469976
-0.351879
0.336682
0.0336947
-0.0209446
-0.171795
0.159044
0.0117951
-0.00484078
-0.056244
0.0492897
0.00125655
-0.00490154
0.003645
-0.0689313
0.073007
-0.00407569
0.0288423
-0.0424145
-0.335448
0.34902
0.0560841
-0.0671825
-0.495586
0.506684
0.0770747
-0.0863796
-0.631937
0.641242
0.0968039
-0.1061
-0.753659
0.762956
0.116377
-0.125497
-0.87707
0.886191
0.135117
-0.14354
-1.01924
1.02766
0.152114
-0.159197
-1.18361
1.19069
0.16582
-0.170592
-1.37301
1.37778
0.174008
-0.175055
-1.59242
1.59346
0.173663
-0.170349
-1.54801
1.5447
0.166069
-0.160559
-1.26785
1.26234
0.155406
-0.14939
-1.0495
1.04348
0.144277
-0.138508
-0.874928
0.869159
0.132104
-0.121903
-0.714535
0.704334
0.108791
-0.0912061
-0.529013
0.511429
0.0733527
-0.0533617
-0.321165
0.301174
0.0367766
-0.0218122
-0.146763
0.131798
0.0117248
-0.00458415
-0.042968
0.0358274
0.00111798
-0.00251495
0.00139697
-0.0801216
0.0782459
0.00187568
0.00715452
-0.0160502
-0.365466
0.374361
0.0264195
-0.0343046
-0.522525
0.53041
0.0422701
-0.0503005
-0.652888
0.660919
0.0599441
-0.0687547
-0.771981
0.780792
0.078032
-0.0864598
-0.894804
0.903232
0.0952977
-0.102689
-1.03578
1.04318
0.110381
-0.116363
-1.19755
1.20353
0.12187
-0.125493
-1.38217
1.38579
0.127375
-0.12708
-1.59353
1.59323
0.124357
-0.119669
-1.54038
1.53569
0.113965
-0.106921
-1.25605
1.24901
0.100296
-0.0928955
-1.03631
1.02891
0.0861003
-0.0784613
-0.859695
0.852056
0.0711026
-0.0620613
-0.690106
0.681064
0.0521831
-0.0401735
-0.491972
0.479962
0.0292756
-0.0188849
-0.281016
0.270626
0.0116609
-0.00622145
-0.117589
0.11215
0.00311003
-0.00119931
-0.0291938
0.027283
0.000349575
-0.00029498
-5.45955e-05
-0.0814868
0.0786058
0.00288099
-0.00189383
-0.00321571
-0.385688
0.390797
0.0102323
-0.0160967
-0.542429
0.548293
0.0221952
-0.0291392
-0.670882
0.677826
0.0375073
-0.0451758
-0.788757
0.796425
0.0534773
-0.0608493
-0.910945
0.918317
0.0683282
-0.0749384
-1.05039
1.057
0.0816181
-0.0869049
-1.20907
1.21436
0.091328
-0.0939879
-1.38874
1.3914
0.0951768
-0.0940784
-1.59221
1.59111
0.0906059
-0.0852068
-1.53035
1.52495
0.0789689
-0.0715235
-1.24171
1.23427
0.0640562
-0.055793
-1.02046
1.01219
0.048053
-0.0394886
-0.842145
0.83358
0.0320496
-0.0241629
-0.668211
0.660324
0.0166646
-0.00863959
-0.466084
0.458059
0.00313264
0.000378459
-0.259342
0.255831
-0.00170666
0.00180562
-0.105856
0.105757
-0.00127447
0.000563824
-0.0249693
0.02568
-0.000116552
0.000367379
-0.000250828
-0.0802245
0.0775178
0.00270671
-0.0053789
0.0029441
-0.399133
0.401568
0.00152439
-0.00600693
-0.557348
0.56183
0.0112367
-0.0170819
-0.685782
0.691627
0.0242628
-0.0308759
-0.803505
0.810118
0.0380123
-0.0443679
-0.925187
0.931543
0.0512039
-0.0568647
-1.0632
1.06886
0.0627887
-0.0670409
-1.21927
1.22352
0.0708782
-0.0730628
-1.39387
1.39605
0.073609
-0.0717394
-1.58954
1.58767
0.0678876
-0.0621246
-1.51887
1.5131
0.055586
-0.047538
-1.22643
1.21838
0.0399591
-0.0317045
-1.00331
0.995058
0.0240062
-0.0160423
-0.823793
0.815829
0.00888982
-0.00201726
-0.648779
0.641907
-0.00368913
0.00848146
-0.448456
0.443664
-0.0103388
0.00998158
-0.249706
0.250063
-0.00843311
0.00596962
-0.104377
0.10684
-0.00375328
0.00164032
-0.0257661
0.0278791
-0.000406277
0.000164596
0.000241681
-0.0787613
0.0763885
0.0023728
-0.00638674
0.00549608
-0.408111
0.409001
-0.00220824
-0.00105812
-0.569383
0.572649
0.00536098
-0.010666
-0.698304
0.703609
0.0167086
-0.0225503
-0.816057
0.821898
0.0287823
-0.0343631
-0.937491
0.943071
0.0403152
-0.0454592
-1.07444
1.07958
0.050595
-0.0546211
-1.22769
1.23172
0.0579922
-0.0598153
-1.39791
1.39973
0.0600355
-0.0579409
-1.58559
1.5835
0.0539777
-0.0480439
-1.5066
1.50067
0.0416636
-0.0340822
-1.2103
1.20272
0.0269324
-0.0190788
-0.986533
0.978679
0.0119939
-0.00440331
-0.806838
0.799248
-0.0022345
0.00839327
-0.631849
0.62569
-0.0128557
0.01598
-0.436438
0.433314
-0.0163503
0.0142658
-0.24708
0.249164
-0.0114314
0.00803042
-0.107953
0.111354
-0.00502619
0.00224415
-0.0293746
0.0321566
-0.000631798
-0.000643284
0.00127508
-0.0774455
0.0754305
0.00201494
-0.0061747
0.00573958
-0.414319
0.414754
-0.00379513
0.00113497
-0.578689
0.581349
0.00307542
-0.00762135
-0.708941
0.713487
0.0128478
-0.0179597
-0.826965
0.832077
0.0235666
-0.0286396
-0.948357
0.95343
0.0342062
-0.0388381
-1.08451
1.08914
0.0436008
-0.0473458
-1.23552
1.23926
0.0504253
-0.05207
-1.40134
1.40299
0.0522094
-0.0506045
-1.58138
1.57978
0.0469809
-0.0418369
-1.49451
1.48937
0.0361918
-0.029492
-1.19528
1.18858
0.0233367
-0.0160459
-0.970891
0.963601
0.00924923
-0.00182379
-0.790863
0.783438
-0.00481455
0.011109
-0.616635
0.610341
-0.015141
0.0176384
-0.427585
0.425087
-0.01737
0.0149498
-0.247772
0.250192
-0.0119714
0.00836363
-0.113422
0.117029
-0.00522363
0.00238706
-0.0341019
0.0369384
-0.000705138
-0.00175087
0.00245601
-0.0764905
0.0749361
0.00155434
-0.00523749
0.00509409
-0.418996
0.41914
-0.00350206
0.00146814
-0.586858
0.588892
0.00250237
-0.0066345
-0.718188
0.72232
0.0116286
-0.0160845
-0.836808
0.841264
0.0210916
-0.0256852
-0.958525
0.963119
0.0310821
-0.0354075
-1.09386
1.09818
0.0397693
-0.0434256
-1.24288
1.24654
0.0467825
-0.0484373
-1.40472
1.40637
0.0489067
-0.047675
-1.57796
1.57673
0.0450479
-0.0405955
-1.48439
1.47993
0.0360152
-0.0303984
-1.18212
1.1765
0.0247939
-0.0181663
-0.956445
0.949817
0.0115007
-0.00391494
-0.775102
0.767517
-0.00247673
0.00863423
-0.601786
0.595628
-0.0125307
0.014618
-0.420172
0.418085
-0.0146366
0.0128487
-0.249435
0.251223
-0.0103036
0.00719196
-0.118981
0.122093
-0.00450266
0.00208217
-0.0387317
0.0411522
-0.000632604
-0.00288947
0.00352207
-0.0760503
0.0748392
0.00121111
-0.00414878
0.00410537
-0.422781
0.422824
-0.00266305
0.000714238
-0.594027
0.595976
0.00313768
-0.00687832
-0.726552
0.730293
0.0112093
-0.0155553
-0.845679
0.850025
0.0202563
-0.0250526
-0.96757
0.972366
0.029806
-0.0340159
-1.10264
1.10685
0.0385734
-0.0420616
-1.25012
1.2536
0.0450611
-0.0472841
-1.40801
1.41024
0.0482166
-0.0476595
-1.57575
1.5752
0.0456771
-0.042299
-1.47598
1.4726
0.0384009
-0.0333436
-1.17078
1.16572
0.0281559
-0.0217061
-0.94297
0.93652
0.0151729
-0.00792229
-0.759462
0.752211
0.00146138
0.00425392
-0.587763
0.582047
-0.00777626
0.00980062
-0.413539
0.411514
-0.0101886
0.0090444
-0.250313
0.251458
-0.00733988
0.00517351
-0.123281
0.125448
-0.00327843
0.00153527
-0.0423957
0.0441389
-0.000482808
-0.00381568
0.00429849
-0.0761337
0.0751253
0.00100832
-0.00289728
0.00260224
-0.426218
0.426513
-0.00130715
-0.000722537
-0.600642
0.602672
0.00427345
-0.00791679
-0.734412
0.738056
0.0121119
-0.0161001
-0.854174
0.858162
0.0209663
-0.0250263
-0.976629
0.980689
0.0297872
-0.0338469
-1.11124
1.1153
0.0383226
-0.0420475
-1.2571
1.26083
0.0454127
-0.0475531
-1.41229
1.41444
0.0490403
-0.0491338
-1.57473
1.57482
0.0480159
-0.0450952
-1.46926
1.46634
0.0416414
-0.0368721
-1.16076
1.15599
0.0318979
-0.0255818
-0.92971
0.923394
0.0194221
-0.0124849
-0.744428
0.737491
0.00653237
-0.00109344
-0.575047
0.569608
-0.00243296
0.00437308
-0.407134
0.405194
-0.00508846
0.00472809
-0.250019
0.250379
-0.00395209
0.002767
-0.125764
0.126949
-0.0017511
0.000862769
-0.0446518
0.0455402
-0.000287213
-0.00443184
0.00471905
-0.0764877
0.0757879
0.000699844
-0.0017957
0.00110047
-0.429776
0.430472
-2.76678e-05
-0.00229829
-0.60652
0.608846
0.00553068
-0.00908275
-0.741804
0.745356
0.0131384
-0.0172839
-0.862025
0.86617
0.0215708
-0.0258082
-0.984976
0.989213
0.0305414
-0.0343988
-1.11979
1.12364
0.0389707
-0.0426744
-1.26437
1.26808
0.0461566
-0.0489076
-1.41703
1.41979
0.0510029
-0.0514764
-1.57504
1.57552
0.050628
-0.048321
-1.4636
1.46129
0.0452371
-0.0406142
-1.15101
1.14639
0.0357347
-0.0299196
-0.916909
0.911094
0.0238529
-0.0176805
-0.730212
0.72404
0.012334
-0.0073045
-0.563559
0.558529
0.00396143
-0.00152167
-0.400664
0.398224
0.000317865
0.000281021
-0.248422
0.247823
-0.000434036
0.000411356
-0.126276
0.126299
-0.00037131
0.000261995
-0.0453507
0.04546
-0.000121964
-0.00468074
0.0048027
-0.0772396
0.0766889
0.000550714
-0.000878515
0.000306383
-0.433547
0.434119
0.0015152
-0.00361734
-0.612669
0.614771
0.00700905
-0.010461
-0.74876
0.752212
0.0143875
-0.0181574
-0.869999
0.873769
0.0225827
-0.026511
-0.993466
0.997394
0.0311839
-0.0354584
-1.12795
1.13222
0.0396693
-0.0437094
-1.27183
1.27587
0.0476421
-0.0505331
-1.42248
1.42537
0.0530403
-0.0542725
-1.57624
1.57747
0.0537607
-0.0518805
-1.4588
1.45692
0.0488035
-0.0444576
-1.1417
1.13735
0.0399193
-0.0343647
-0.904852
0.899297
0.0289241
-0.0232559
-0.717376
0.711708
0.0183764
-0.0135617
-0.552841
0.548026
0.0100461
-0.0072204
-0.39386
0.391034
0.00521504
-0.00370697
-0.245064
0.243556
0.00256386
-0.00150442
-0.124678
0.123619
0.000721225
-0.000169928
-0.0445616
0.0440103
-1.72555e-05
-0.00455559
0.00457285
-0.0782425
0.0778684
0.00037415
9.77789e-05
-0.000926132
-0.43738
0.438208
0.00257658
-0.00498588
-0.618376
0.620786
0.00831891
-0.0116312
-0.755525
0.758837
0.0156526
-0.0192813
-0.877522
0.88115
0.0235531
-0.0275918
-1.0018
1.00584
0.0321478
-0.0363696
-1.13634
1.14056
0.0407886
-0.0448582
-1.27984
1.28391
0.0489926
-0.0526367
-1.42857
1.43221
0.0555665
-0.0570078
-1.57862
1.58006
0.0570265
-0.0552634
-1.45484
1.45308
0.0525762
-0.0486489
-1.13287
1.12894
0.0441885
-0.0390122
-0.893478
0.888302
0.0340072
-0.0286404
-0.705681
0.700314
0.024135
-0.019373