/*--------------------------------*- C++ -*----------------------------------*\
| =========                 |                                                 |
| \\      /  F ield         | OpenFOAM: The Open Source CFD Toolbox           |
|  \\    /   O peration     | Version:  2112                                  |
|   \\  /    A nd           | Website:  www.openfoam.com                      |
|    \\/     M anipulation  |                                                 |
\*---------------------------------------------------------------------------*/
FoamFile
{
    version     2.0;
    format      ascii;
    arch        "LSB;label=32;scalar=64";
    class       volVectorField;
    location    "43.5";
    object      U;
}
// * * * * * * * * * * * * * * * * * * * * * * * * * * * * * * * * * * * * * //

dimensions      [0 1 -1 0 0 0 0];

internalField   nonuniform List<vector> 
8800
(
(0.98015 -0.091521 0)
(1.00234 -0.0587248 0)
(0.999599 -0.0321253 0)
(0.999992 -0.0165168 0)
(1.00007 -0.00883245 0)
(1.00007 -0.00508512 0)
(1.00004 -0.00298953 0)
(1.00002 -0.00168878 0)
(0.999997 -0.000792781 0)
(1.00006 -9.76582e-05 0)
(0.999988 0.000606285 0)
(0.999996 0.00135699 0)
(1.00001 0.00238323 0)
(1.00002 0.00399308 0)
(1.00003 0.00674563 0)
(0.999986 0.0120489 0)
(0.99979 0.0230947 0)
(0.999031 0.0431584 0)
(1.00723 0.0790274 0)
(0.775023 0.0478396 0)
(0.358979 -0.014749 0)
(1.04649 -0.0724913 0)
(1.08848 -0.066029 0)
(1.04945 -0.0509228 0)
(1.02554 -0.0377021 0)
(1.01272 -0.0258942 0)
(1.00655 -0.0167054 0)
(1.00361 -0.0102294 0)
(1.00218 -0.00560702 0)
(1.00151 -0.00202257 0)
(1.00138 0.00118461 0)
(1.00173 0.00448823 0)
(1.0027 0.00837565 0)
(1.00473 0.0136951 0)
(1.00896 0.0213868 0)
(1.01794 0.0318877 0)
(1.03578 0.0446626 0)
(1.0674 0.0581059 0)
(1.0947 0.0699648 0)
(0.84564 0.0555062 0)
(0.217768 -0.00138169 0)
(1.07566 -0.0506652 0)
(1.09941 -0.0489515 0)
(1.06438 -0.0400378 0)
(1.03988 -0.0325784 0)
(1.02377 -0.0253672 0)
(1.01399 -0.0181627 0)
(1.0085 -0.0115531 0)
(1.00565 -0.00580517 0)
(1.00448 -0.000523608 0)
(1.00479 0.00458164 0)
(1.00664 0.00986543 0)
(1.01056 0.0158383 0)
(1.01787 0.0226086 0)
(1.03049 0.0297295 0)
(1.05048 0.0368221 0)
(1.08003 0.0445985 0)
(1.10565 0.0519266 0)
(0.943287 0.0410055 0)
(0.217213 0.00140453 0)
(0.176612 -0.000629354 0)
(1.01936 -0.0354786 0)
(1.10569 -0.0414336 0)
(1.07796 -0.0364223 0)
(1.05241 -0.0303794 0)
(1.03517 -0.02451 0)
(1.02333 -0.0187321 0)
(1.01553 -0.0127466 0)
(1.01093 -0.00666178 0)
(1.0089 -0.000436545 0)
(1.00944 0.00571086 0)
(1.01252 0.0116217 0)
(1.01847 0.0173948 0)
(1.02805 0.0229853 0)
(1.04226 0.028552 0)
(1.06309 0.0343428 0)
(1.09386 0.0402321 0)
(1.09444 0.0417626 0)
(0.830252 0.0227687 0)
(0.175662 0.000647474 0)
(0.154688 -0.000463197 0)
(0.958099 -0.0257091 0)
(1.10436 -0.0351482 0)
(1.08804 -0.0327084 0)
(1.0612 -0.0282088 0)
(1.04315 -0.0232606 0)
(1.03078 -0.0179792 0)
(1.0222 -0.0124518 0)
(1.01666 -0.00655828 0)
(1.01402 -0.000120218 0)
(1.01467 0.0063292 0)
(1.01846 0.012195 0)
(1.02524 0.0175202 0)
(1.03537 0.0225489 0)
(1.05012 0.0273886 0)
(1.07206 0.0318407 0)
(1.10103 0.0357249 0)
(1.06973 0.0339425 0)
(0.742652 0.0144399 0)
(0.153269 0.000483544 0)
(0.139987 -0.000335258 0)
(0.901025 -0.0193484 0)
(1.09672 -0.0302642 0)
(1.09614 -0.0294011 0)
(1.06887 -0.0256315 0)
(1.05003 -0.0215646 0)
(1.03709 -0.0168908 0)
(1.02812 -0.0116653 0)
(1.0222 -0.00596672 0)
(1.01924 0.000367739 0)
(1.01987 0.00672551 0)
(1.02388 0.0123667 0)
(1.0309 0.0173518 0)
(1.04141 0.0218405 0)
(1.0568 0.0258077 0)
(1.0796 0.0293413 0)
(1.10336 0.0320705 0)
(1.03802 0.0280855 0)
(0.675935 0.0102871 0)
(0.137992 0.000359357 0)
(0.129229 -0.000254122 0)
(0.851068 -0.0149567 0)
(1.08431 -0.0261799 0)
(1.10178 -0.0265507 0)
(1.07566 -0.0232506 0)
(1.05631 -0.0196231 0)
(1.04294 -0.0154583 0)
(1.03361 -0.0106233 0)
(1.02742 -0.00515591 0)
(1.02424 0.000979365 0)
(1.02478 0.00710852 0)
(1.02882 0.0124611 0)
(1.036 0.0170293 0)
(1.04679 0.0209258 0)
(1.06257 0.0242969 0)
(1.08583 0.0273587 0)
(1.10265 0.0291984 0)
(1.00346 0.0235211 0)
(0.624031 0.00787688 0)
(0.126533 0.0002834 0)
(0.12102 -0.000195439 0)
(0.808475 -0.0117747 0)
(1.0689 -0.0225967 0)
(1.10523 -0.0239465 0)
(1.08184 -0.0211132 0)
(1.06204 -0.0177202 0)
(1.04841 -0.0138426 0)
(1.03882 -0.00934559 0)
(1.03237 -0.00417425 0)
(1.02897 0.0017161 0)
(1.02937 0.00757528 0)
(1.03338 0.0125688 0)
(1.04063 0.0166784 0)
(1.05154 0.0201017 0)
(1.06756 0.0230733 0)
(1.09122 0.0258272 0)
(1.09906 0.0267642 0)
(0.968553 0.0199119 0)
(0.582469 0.00629768 0)
(0.117472 0.000230999 0)
(0.114648 -0.000150999 0)
(0.772531 -0.00939298 0)
(1.05193 -0.0194427 0)
(1.10749 -0.0215386 0)
(1.08762 -0.0190898 0)
(1.06741 -0.0158644 0)
(1.05352 -0.0121722 0)
(1.04376 -0.00789907 0)
(1.03709 -0.00298828 0)
(1.03346 0.00261123 0)
(1.03367 0.00813185 0)
(1.03758 0.0127332 0)
(1.04477 0.016435 0)
(1.05572 0.0194875 0)
(1.072 0.0221298 0)
(1.09539 0.024558 0)
(1.09274 0.0247128 0)
(0.934683 0.0170956 0)
(0.548257 0.00520606 0)
(0.110061 0.000194292 0)
(0.109662 -0.000115837 0)
(0.742321 -0.00754513 0)
(1.03446 -0.0166386 0)
(1.10876 -0.0192764 0)
(1.09308 -0.0171703 0)
(1.07257 -0.0140681 0)
(1.05842 -0.0104874 0)
(1.04847 -0.00635456 0)
(1.0416 -0.00164137 0)
(1.03772 0.00368257 0)
(1.03769 0.00886108 0)
(1.04141 0.01309 0)
(1.04849 0.0164433 0)
(1.05944 0.0191743 0)
(1.07596 0.0215131 0)
(1.09831 0.0235645 0)
(1.08407 0.0229826 0)
(0.902474 0.0149164 0)
(0.519363 0.0044317 0)
(0.103814 0.00016866 0)
(0.105774 -8.69186e-05 0)
(0.717033 -0.00605551 0)
(1.01733 -0.0141156 0)
(1.10915 -0.0170707 0)
(1.09838 -0.0152567 0)
(1.07762 -0.0121831 0)
(1.06317 -0.00867018 0)
(1.05301 -0.00465224 0)
(1.04592 -9.62174e-05 0)
(1.04175 0.00497655 0)
(1.04141 0.00981683 0)
(1.04487 0.013676 0)
(1.05179 0.0166577 0)
(1.06276 0.0190472 0)
(1.07948 0.0211244 0)
(1.09992 0.0228081 0)
(1.07346 0.0215432 0)
(0.872113 0.0132557 0)
(0.494359 0.00388121 0)
(0.098392 0.000151272 0)
(0.102792 -6.20495e-05 0)
(0.696033 -0.0048055 0)
(1.00117 -0.0118093 0)
(1.10883 -0.0149169 0)
(1.10351 -0.0133364 0)
(1.08262 -0.0102615 0)
(1.06785 -0.00675824 0)
(1.05744 -0.00277709 0)
(1.05007 0.00167498 0)
(1.04556 0.00653043 0)
(1.04484 0.0110509 0)
(1.04799 0.0145582 0)
(1.05471 0.0171995 0)
(1.06566 0.0192714 0)
(1.08257 0.0210712 0)
(1.10058 0.0223332 0)
(1.06126 0.0204131 0)
(0.843504 0.0120177 0)
(0.472192 0.00349711 0)
(0.0935396 0.000140544 0)
(0.100594 -3.89359e-05 0)
(0.678863 -0.00370109 0)
(0.986429 -0.009633 0)
(1.10795 -0.0126872 0)
(1.10836 -0.0112725 0)
(1.08763 -0.00819772 0)
(1.07253 -0.0046567 0)
(1.06181 -0.00066133 0)
(1.05408 0.00372424 0)
(1.04913 0.00841408 0)
(1.04795 0.0126497 0)
(1.05072 0.015796 0)
(1.05723 0.0180781 0)
(1.06816 0.0198151 0)
(1.08516 0.0213177 0)
(1.10022 0.0222069 0)
(1.04768 0.0195733 0)
(0.816414 0.0111277 0)
(0.452063 0.0032406 0)
(0.0890643 0.000135125 0)
(0.0991189 -1.64444e-05 0)
(0.665224 -0.00267477 0)
(0.973502 -0.00752174 0)
(1.10687 -0.0103327 0)
(1.11309 -0.00897563 0)
(1.09274 -0.00584624 0)
(1.07725 -0.00222356 0)
(1.06617 0.001812 0)
(1.05802 0.00616896 0)
(1.05254 0.0107071 0)
(1.05079 0.014636 0)
(1.05311 0.0173999 0)
(1.05934 0.0192741 0)
(1.0702 0.0206252 0)
(1.08726 0.0218521 0)
(1.09877 0.0223319 0)
(1.03288 0.0190086 0)
(0.790533 0.0105234 0)
(0.433344 0.00308389 0)
(0.0848152 0.000133642 0)
(0.0983462 6.96611e-06 0)
(0.654966 -0.0016778 0)
(0.962694 -0.00540892 0)
(1.10591 -0.00781612 0)
(1.11785 -0.00645608 0)
(1.098 -0.00325537 0)
(1.08208 0.000513256 0)
(1.07058 0.00467491 0)
(1.06191 0.00907788 0)
(1.05576 0.0134964 0)
(1.05333 0.0171205 0)
(1.05511 0.0194975 0)
(1.06098 0.0209808 0)
(1.07178 0.0219376 0)
(1.08886 0.0228045 0)
(1.09619 0.0227971 0)
(1.01694 0.0187486 0)
(0.765506 0.0101755 0)
(0.41552 0.0030149 0)
(0.0806632 0.000136477 0)
(0.0983083 2.85175e-05 0)
(0.648103 -0.000662499 0)
(0.954337 -0.00320909 0)
(1.10536 -0.00502401 0)
(1.12271 -0.00357295 0)
(1.1035 -0.000261799 0)
(1.08715 0.00371915 0)
(1.07512 0.00805861 0)
(1.0658 0.012545 0)
(1.05885 0.0168955 0)
(1.05558 0.0202305 0)
(1.05669 0.022175 0)
(1.06215 0.0231761 0)
(1.07281 0.0236785 0)
(1.08965 0.0241402 0)
(1.09223 0.0236052 0)
(0.999829 0.0187819 0)
(0.740967 0.0100589 0)
(0.398147 0.00302302 0)
(0.076499 0.000142518 0)
(0.0990407 6.60491e-05 0)
(0.644777 0.000403289 0)
(0.948804 -0.000845197 0)
(1.10566 -0.00187468 0)
(1.12791 -0.00017225 0)
(1.10933 0.00335409 0)
(1.09246 0.00759315 0)
(1.07979 0.0121427 0)
(1.06968 0.0167623 0)
(1.06174 0.0210449 0)
(1.05745 0.0240406 0)
(1.05775 0.0255106 0)
(1.06271 0.0259702 0)
(1.07325 0.0259527 0)
(1.08955 0.0259642 0)
(1.08677 0.0247907 0)
(0.981494 0.019158 0)
(0.716508 0.0101719 0)
(0.380801 0.00310669 0)
(0.0722153 0.000151943 0)
(0.100757 9.53679e-05 0)
(0.64532 0.00158303 0)
(0.946405 0.00172393 0)
(1.10722 0.00168059 0)
(1.13367 0.00370261 0)
(1.11559 0.00752868 0)
(1.09812 0.0121364 0)
(1.08471 0.0170277 0)
(1.07363 0.0218585 0)
(1.06445 0.0261056 0)
(1.05893 0.0287647 0)
(1.05828 0.0296768 0)
(1.06261 0.0295534 0)
(1.07294 0.0289741 0)
(1.08837 0.0284155 0)
(1.07969 0.0264437 0)
(0.961706 0.0198885 0)
(0.691683 0.0105143 0)
(0.363072 0.00326423 0)
(0.0677083 0.000164722 0)
(0.103511 0.00014348 0)
(0.650215 0.00307686 0)
(0.947645 0.00470035 0)
(1.11044 0.00580993 0)
(1.14007 0.00827847 0)
(1.12244 0.012537 0)
(1.10433 0.0176427 0)
(1.09 0.0229715 0)
(1.07772 0.0280779 0)
(1.06707 0.0322989 0)
(1.06002 0.0345419 0)
(1.05819 0.0348297 0)
(1.06177 0.034021 0)
(1.0718 0.0328112 0)
(1.08587 0.0315614 0)
(1.07071 0.0286005 0)
(0.940259 0.0210271 0)
(0.666032 0.0111033 0)
(0.34455 0.00349715 0)
(0.062882 0.00018011 0)
(0.107587 0.000204286 0)
(0.659834 0.00476695 0)
(0.953024 0.00817516 0)
(1.1159 0.010651 0)
(1.14744 0.0138303 0)
(1.13006 0.0187354 0)
(1.11117 0.0244171 0)
(1.09566 0.0302407 0)
(1.08187 0.0356663 0)
(1.06938 0.0398555 0)
(1.06049 0.0416067 0)
(1.05731 0.0411465 0)
(1.05999 0.0395226 0)
(1.06965 0.0375525 0)
(1.08189 0.0355742 0)
(1.05956 0.0314443 0)
(0.916776 0.0226688 0)
(0.638962 0.011969 0)
(0.324774 0.00381035 0)
(0.0576318 0.000198455 0)
(0.113313 0.000287444 0)
(0.674921 0.00689769 0)
(0.963133 0.0123691 0)
(1.12414 0.0163899 0)
(1.15621 0.0204599 0)
(1.13869 0.0262239 0)
(1.11876 0.0326632 0)
(1.10183 0.0391527 0)
(1.0862 0.0449796 0)
(1.07147 0.0490692 0)
(1.06043 0.0501657 0)
(1.05557 0.0488133 0)
(1.05711 0.0462756 0)
(1.06632 0.04346 0)
(1.0764 0.0405934 0)
(1.04589 0.035102 0)
(0.890725 0.0248799 0)
(0.609809 0.0131298 0)
(0.303271 0.00419762 0)
(0.051876 0.000217179 0)
(0.121205 0.000405326 0)
(0.696368 0.00963796 0)
(0.978749 0.0175232 0)
(1.13569 0.0233595 0)
(1.16675 0.028533 0)
(1.14866 0.0354078 0)
(1.12743 0.0428418 0)
(1.10865 0.0501533 0)
(1.09067 0.0563895 0)
(1.07321 0.0602975 0)
(1.05961 0.0605845 0)
(1.05281 0.0581226 0)
(1.05304 0.054555 0)
(1.06162 0.0507974 0)
(1.06909 0.0468955 0)
(1.02923 0.0397551 0)
(0.861512 0.0277991 0)
(0.577761 0.0146382 0)
(0.279517 0.00465923 0)
(0.0455612 0.000234201 0)
(0.132012 0.000579947 0)
(0.725472 0.0133176 0)
(1.001 0.0240826 0)
(1.15131 0.0321053 0)
(1.17964 0.0387835 0)
(1.16033 0.0471768 0)
(1.13729 0.0558026 0)
(1.11601 0.0639557 0)
(1.09504 0.0704618 0)
(1.07431 0.0739047 0)
(1.05777 0.0730583 0)
(1.04882 0.0692572 0)
(1.0476 0.0644598 0)
(1.05535 0.059618 0)
(1.0596 0.0545404 0)
(1.00902 0.0456344 0)
(0.828307 0.031575 0)
(0.541807 0.0165346 0)
(0.252929 0.00518961 0)
(0.0386519 0.000248866 0)
(0.146938 0.000853727 0)
(0.764079 0.0185725 0)
(1.03142 0.0328173 0)
(1.17208 0.0435008 0)
(1.19587 0.0522473 0)
(1.17411 0.062481 0)
(1.14843 0.0723783 0)
(1.1239 0.0812305 0)
(1.09928 0.0877193 0)
(1.0747 0.090292 0)
(1.05481 0.0879493 0)
(1.04346 0.0825225 0)
(1.04074 0.0762612 0)
(1.04748 0.0701128 0)
(1.04751 0.0638602 0)
(0.984613 0.0528979 0)
(0.790118 0.036257 0)
(0.500858 0.0187712 0)
(0.223032 0.00574849 0)
(0.031158 0.000258915 0)
(0.168102 0.0013251 0)
(0.815201 0.0265712 0)
(1.07257 0.0453137 0)
(1.199 0.0593333 0)
(1.216 0.0707865 0)
(1.19006 0.0827295 0)
(1.16057 0.0937714 0)
(1.13181 0.102927 0)
(1.10274 0.10881 0)
(1.07377 0.109851 0)
(1.05027 0.105434 0)
(1.03639 0.098033 0)
(1.03215 0.090168 0)
(1.03769 0.0827266 0)
(1.03241 0.0749754 0)
(0.955048 0.061508 0)
(0.745832 0.0417462 0)
(0.454043 0.0211929 0)
(0.189763 0.00626372 0)
(0.0231989 0.000260882 0)
(0.198854 0.0023771 0)
(0.884445 0.0401069 0)
(1.12757 0.0654542 0)
(1.23235 0.0831622 0)
(1.23977 0.0972664 0)
(1.2077 0.110388 0)
(1.1731 0.121738 0)
(1.13914 0.130156 0)
(1.10495 0.134347 0)
(1.0712 0.132859 0)
(1.04394 0.125611 0)
(1.02757 0.115798 0)
(1.0218 0.106097 0)
(1.02573 0.0973242 0)
(1.01364 0.087767 0)
(0.919264 0.0712566 0)
(0.69435 0.0476253 0)
(0.401526 0.0235756 0)
(0.154194 0.00667809 0)
(0.0151877 0.000247863 0)
(0.240754 0.00860052 5.59129e-20)
(0.975861 0.0673271 4.86444e-20)
(1.19417 0.0994808 -1.68899e-20)
(1.2693 0.11874 0)
(1.26453 0.135524 -4.18627e-34)
(1.22508 0.148077 6.08789e-21)
(1.18454 0.157986 -1.07825e-20)
(1.14469 0.16424 0)
(1.10491 0.165639 2.1717e-34)
(1.06601 0.160813 -1.29464e-20)
(1.03469 0.150224 0)
(1.01559 0.13776 -1.51824e-20)
(1.00806 0.126205 -4.46539e-20)
(1.00995 0.116386 -2.10591e-20)
(0.989056 0.105342 -6.31614e-21)
(0.872882 0.0846348 -3.74897e-21)
(0.629795 0.0552479 0)
(0.340716 0.0265665 2.6253e-21)
(0.117091 0.00769135 3.10082e-21)
(0.00762049 0.000391406 5.58225e-20)
(0.269936 0.0239985 4.33087e-20)
(1.05111 0.109902 5.21539e-22)
(1.24866 0.148184 4.62012e-21)
(1.30283 0.167609 0)
(1.28636 0.184192 -2.16556e-20)
(1.23997 0.194702 -2.43675e-20)
(1.19339 0.202351 -1.0986e-20)
(1.14747 0.206146 -3.85309e-20)
(1.10173 0.204778 0)
(1.05696 0.196812 5.53146e-20)
(1.02057 0.183183 5.45253e-20)
(0.997866 0.168228 1.6147e-20)
(0.988018 0.154627 5.85021e-20)
(0.985334 0.142588 8.18473e-20)
(0.951641 0.128181 0)
(0.811086 0.101806 1.15221e-19)
(0.554466 0.0647318 1.6541e-19)
(0.278057 0.0303565 1.83802e-19)
(0.0827215 0.00862922 -2.10251e-19)
(0.000846123 0.000183065 -3.94843e-21)
(0.27082 0.0396936 0)
(1.09844 0.165225 8.1936e-21)
(1.28542 0.208156 0)
(1.32901 0.227203 -2.97973e-20)
(1.30352 0.24059 0)
(1.25115 0.247354 -4.86113e-20)
(1.19889 0.25136 2.26306e-20)
(1.14726 0.251707 -7.82853e-20)
(1.09587 0.246919 -1.56443e-21)
(1.04555 0.235472 2.88041e-20)
(1.00433 0.218679 1.19951e-19)
(0.977935 0.201269 -2.93434e-22)
(0.965014 0.185689 -4.2545e-20)
(0.957466 0.171382 -7.7318e-20)
(0.916249 0.153478 9.15551e-20)
(0.766696 0.1208 -1.62023e-19)
(0.5137 0.0761271 -2.14133e-20)
(0.253722 0.0360343 0)
(0.0735684 0.0102254 -4.11757e-25)
(-0.000822654 -6.89206e-05 0)
(0.264539 0.05332 1.2073e-19)
(1.12378 0.223897 -5.69254e-20)
(1.30824 0.272824 -4.11248e-20)
(1.34629 0.291934 1.44593e-20)
(1.31449 0.301255 -2.41461e-20)
(1.25757 0.303636 1.02402e-19)
(1.20065 0.303407 4.75053e-20)
(1.14413 0.299811 0)
(1.08769 0.291163 -1.46071e-19)
(1.03219 0.275748 0)
(0.986348 0.255182 -6.32429e-20)
(0.956392 0.234799 -7.74784e-20)
(0.940441 0.217232 -4.64182e-20)
(0.929358 0.201577 -5.6238e-20)
(0.883637 0.181098 0)
(0.73533 0.142676 0)
(0.495197 0.0916931 -1.40041e-19)
(0.252603 0.0456337 2.76992e-20)
(0.0778489 0.0138706 -1.62278e-20)
(0.000259496 5.93567e-05 -1.89739e-20)
(0.257266 0.0654412 -5.80694e-20)
(1.13487 0.282493 0)
(1.32084 0.338535 8.91462e-20)
(1.3556 0.35804 4.19569e-20)
(1.31936 0.363413 5.50702e-20)
(1.25913 0.361419 0)
(1.19861 0.356977 4.71426e-20)
(1.13805 0.349349 8.72945e-20)
(1.07719 0.336645 7.52972e-20)
(1.01691 0.316991 1.35886e-19)
(0.966667 0.292588 0)
(0.933453 0.26955 -1.67384e-19)
(0.915219 0.250567 -1.00479e-19)
(0.901585 0.233886 -5.92962e-20)
(0.852784 0.210271 3.63641e-19)
(0.710975 0.167173 4.33068e-20)
(0.488319 0.110839 2.03822e-19)
(0.260952 0.0583542 -9.63733e-19)
(0.0889863 0.0198812 5.71534e-19)
(0.00354215 0.000820215 -6.88823e-19)
(0.250439 0.0764429 -3.99762e-20)
(1.13699 0.339163 1.09247e-20)
(1.32595 0.403353 -1.08391e-20)
(1.35848 0.423689 -4.64262e-20)
(1.31908 0.425431 -4.88322e-20)
(1.25645 0.419293 1.77253e-21)
(1.1931 0.410886 -5.10244e-20)
(1.12919 0.399317 9.07874e-20)
(1.06446 0.382569 -1.62123e-19)
(0.999901 0.358807 0)
(0.945764 0.331131 -7.61027e-20)
(0.909681 0.306243 -1.61402e-21)
(0.889288 0.286209 -1.09872e-19)
(0.872718 0.267694 0)
(0.821962 0.240048 -7.88099e-20)
(0.689609 0.193035 -1.87372e-19)
(0.485257 0.132057 5.01793e-19)
(0.271469 0.0733746 -4.93818e-19)
(0.101353 0.0275954 7.01299e-19)
(0.00741273 0.00210928 -7.28714e-19)
(0.244833 0.0866799 -4.1101e-22)
(1.1336 0.39324 -7.32473e-21)
(1.3257 0.466278 -3.59735e-20)
(1.3564 0.487726 2.03621e-20)
(1.3147 0.486288 -2.49131e-20)
(1.25033 0.476374 0)
(1.18473 0.464268 -4.84842e-20)
(1.11796 0.448911 -9.53381e-20)
(1.04988 0.428266 -8.45606e-20)
(0.981653 0.400731 0)
(0.924231 0.370305 -7.92234e-20)
(0.885614 0.343776 -9.74577e-20)
(0.862663 0.322108 1.19132e-19)
(0.842502 0.300681 -7.22123e-20)
(0.790607 0.26925 -3.43754e-19)
(0.668963 0.219478 2.05027e-19)
(0.481271 0.154549 6.1375e-20)
(0.279581 0.0895034 0)
(0.111797 0.0361394 -6.77839e-19)
(0.0109049 0.00366471 -2.48517e-20)
(0.2405 0.0964571 -2.51071e-21)
(1.12694 0.444518 5.06497e-21)
(1.32161 0.526807 1.79308e-20)
(1.35063 0.549458 7.01876e-20)
(1.30717 0.545303 -9.50824e-20)
(1.24154 0.532022 1.02945e-19)
(1.17409 0.516481 1.04252e-19)
(1.10487 0.497518 -1.52364e-19)
(1.0339 0.473206 5.1408e-20)
(0.962583 0.442217 -3.3427e-19)
(0.902381 0.409111 -8.91832e-20)
(0.861348 0.380354 0)
(0.835472 0.35602 1.29026e-19)
(0.811683 0.331105 1.54293e-19)
(0.759915 0.2967 1.84697e-19)
(0.647981 0.245045 -2.22477e-19)
(0.474469 0.176559 -6.58442e-20)
(0.283162 0.105227 7.74223e-20)
(0.118542 0.0443735 0)
(0.0133969 0.00516331 -5.38468e-20)
(0.237295 0.105919 3.99627e-21)
(1.11853 0.493088 -1.00948e-20)
(1.31501 0.58521 -1.74298e-20)
(1.34218 0.608536 4.4687e-20)
(1.29729 0.602039 -4.4703e-20)
(1.23071 0.585757 -4.05949e-21)
(1.16172 0.567044 -1.13443e-19)
(1.0904 0.544711 -5.4995e-20)
(1.01696 0.517001 -1.4664e-19)
(0.942975 0.48277 2.45397e-22)
(0.880258 0.446678 -2.79527e-19)
(0.836809 0.414882 2.3395e-19)
(0.807867 0.387188 -1.41338e-19)
(0.780891 0.358946 1.69555e-19)
(0.730025 0.322363 0)
(0.626465 0.26897 -1.20321e-19)
(0.464526 0.197124 -4.27366e-22)
(0.281898 0.119471 -3.36484e-19)
(0.120898 0.0514209 -4.95389e-20)
(0.0147596 0.00637473 0)
(0.235063 0.115181 0)
(1.10926 0.539141 -7.18571e-21)
(1.30653 0.640672 -2.57329e-20)
(1.33186 0.664796 -4.29684e-20)
(1.28573 0.65624 -5.42349e-20)
(1.21838 0.637272 0)
(1.14809 0.615634 -5.27881e-20)
(1.07498 0.590211 -1.15348e-21)
(0.9994 0.559411 3.13831e-19)
(0.923007 0.52205 -4.60075e-20)
(0.857836 0.482571 -2.01526e-19)
(0.811941 0.44716 1.21853e-19)
(0.780164 0.415927 -2.11385e-21)
(0.75078 0.3849 1.80114e-19)
(0.701053 0.34666 1.10936e-19)
(0.603731 0.291307 -2.59497e-19)
(0.451356 0.215565 3.07577e-19)
(0.275943 0.131326 9.09653e-20)
(0.119237 0.0566105 3.7508e-19)
(0.0150361 0.00714856 -1.00353e-18)
(0.233735 0.124362 -7.06732e-21)
(1.09971 0.582863 4.28133e-21)
(1.297 0.693232 1.39705e-21)
(1.32025 0.718193 3.76316e-20)
(1.27304 0.707767 0)
(1.20504 0.686375 -4.98471e-20)
(1.13363 0.662074 1.75679e-19)
(1.05897 0.633873 1.20807e-19)
(0.981493 0.600295 0)
(0.902794 0.559884 -6.59568e-19)
(0.83512 0.516729 5.43727e-19)
(0.786797 0.47745 0)
(0.752575 0.442783 1.6446e-19)
(0.72152 0.409333 -2.07629e-21)
(0.672859 0.369362 -3.53649e-19)
(0.580071 0.31123 1.38603e-19)
(0.434895 0.230928 0)
(0.265628 0.140201 4.8989e-19)
(0.114115 0.0595786 0)
(0.0142347 0.00734056 -4.73613e-19)
(0.23312 0.133532 1.09777e-20)
(1.09031 0.624369 1.26259e-20)
(1.28652 0.742951 3.2247e-21)
(1.30779 0.7687 0)
(1.25961 0.756585 -4.93242e-20)
(1.19104 0.732992 0)
(1.11867 0.706286 -1.75372e-19)
(1.04268 0.675643 -5.70552e-20)
(0.963468 0.639602 5.56563e-20)
(0.882475 0.596242 -3.25958e-19)
(0.81218 0.54931 5.62527e-20)
(0.76145 0.506144 0)
(0.725158 0.468184 -3.50813e-19)
(0.692921 0.432375 2.07942e-21)
(0.644994 0.39021 0)
(0.555374 0.328584 1.91674e-21)
(0.415467 0.242994 4.46488e-19)
(0.251532 0.14574 -4.2268e-19)
(0.10609 0.0604544 1.24497e-19)
(0.0127191 0.00710314 0)
(0.232905 0.142539 0)
(1.08128 0.66377 1.98212e-20)
(1.27549 0.789996 6.00528e-21)
(1.29485 0.816361 -2.41662e-21)
(1.24577 0.802705 -1.92217e-20)
(1.17671 0.777112 -1.11675e-19)
(1.10352 0.748273 6.50516e-20)
(1.02636 0.715524 -6.63642e-20)
(0.945525 0.677321 2.46969e-19)
(0.862185 0.631178 -5.20117e-19)
(0.789126 0.580539 -3.54997e-21)
(0.735976 0.533577 -1.54258e-19)
(0.697866 0.492399 5.68115e-19)
(0.664709 0.454095 -2.43121e-21)
(0.617126 0.409205 -2.73286e-19)
(0.529405 0.343361 -4.88309e-19)
(0.393395 0.251769 0)
(0.234146 0.147966 0)
(0.0957694 0.0592294 1.34421e-19)
(0.0107927 0.00646853 -7.8737e-20)
(0.233249 0.151532 2.08198e-20)
(1.07261 0.700958 -5.01551e-20)
(1.26421 0.834418 -6.78457e-21)
(1.28168 0.861268 0)
(1.23178 0.846184 -1.58284e-21)
(1.16228 0.818775 -1.05596e-19)
(1.08842 0.788077 1.59348e-19)
(1.01023 0.753548 2.63673e-19)
(0.927834 0.713479 3.21406e-19)
(0.842083 0.664776 -4.24961e-19)
(0.766105 0.610642 -4.65444e-19)
(0.71044 0.560015 4.12226e-19)
(0.670627 0.515575 0)
(0.63666 0.474462 -1.24e-19)
(0.589103 0.426238 -2.95328e-19)
(0.502329 0.355355 -3.50194e-19)
(0.368908 0.256956 -4.1554e-19)
(0.214134 0.146828 1.22841e-19)
(0.0836285 0.055876 -7.2273e-20)
(0.00847745 0.00543059 2.59135e-22)
(0.233669 0.160412 0)
(1.0645 0.73638 0)
(1.25281 0.876313 2.61851e-21)
(1.26844 0.90351 0)
(1.21782 0.887112 5.06569e-20)
(1.14797 0.85806 7.44654e-20)
(1.07356 0.825762 0)
(0.994456 0.789758 3.17286e-20)
(0.910549 0.748104 5.36744e-19)
(0.822333 0.697129 -9.75833e-19)
(0.743271 0.63981 0)
(0.684916 0.585664 -2.64769e-19)
(0.643335 0.537803 -2.95162e-21)
(0.608537 0.493407 -2.3693e-21)
(0.560763 0.441092 3.15178e-19)
(0.47423 0.364271 -3.48847e-22)
(0.342131 0.25834 -8.93466e-19)
(0.192032 0.142257 2.64001e-19)
(0.0707841 0.0508604 7.80051e-20)
(0.00608329 0.00415174 0)
(0.234124 0.169117 -9.69594e-20)
(1.05669 0.770091 -4.19011e-20)
(1.24139 0.915754 -4.11187e-20)
(1.25528 0.943196 -2.20683e-21)
(1.20403 0.925565 7.391e-20)
(1.13392 0.895053 0)
(1.05907 0.861405 9.78281e-20)
(0.979161 0.8242 -7.015e-20)
(0.893799 0.781233 3.86161e-21)
(0.803098 0.728317 7.15921e-20)
(0.720786 0.668195 6.01605e-19)
(0.659478 0.610709 -9.29125e-20)
(0.615896 0.559219 -3.48965e-19)
(0.580079 0.510895 -1.44002e-19)
(0.531882 0.453521 1.71209e-19)
(0.44521 0.369762 -1.62393e-22)
(0.314174 0.255826 2.40544e-19)
(0.169219 0.134757 -5.67364e-19)
(0.0579557 0.0446441 6.70641e-19)
(0.00377062 0.00275598 9.77908e-20)
(0.23445 0.177531 3.88298e-20)
(1.04922 0.802194 -2.50418e-20)
(1.23007 0.952844 6.27171e-21)
(1.24231 0.980449 1.11172e-20)
(1.19054 0.961661 -8.92855e-21)
(1.12025 0.929847 -1.3214e-19)
(1.04508 0.89508 2.94336e-20)
(0.964452 0.856911 -2.92978e-19)
(0.877701 0.812883 -5.92029e-19)
(0.784519 0.758383 -5.81382e-19)
(0.698814 0.695908 0)
(0.634219 0.635316 -4.06398e-19)
(0.588231 0.58001 5.01794e-19)
(0.550977 0.526964 0)
(0.50213 0.46324 -3.66213e-19)
(0.415341 0.371323 2.18752e-19)
(0.285788 0.24917 -2.5822e-19)
(0.146954 0.124743 -3.0507e-19)
(0.0460438 0.0377958 -5.39781e-19)
(0.0017129 0.00138038 -4.20806e-19)
(0.235098 0.185795 -4.58849e-20)
(1.04195 0.832676 2.68405e-20)
(1.2189 0.987652 5.76589e-20)
(1.22961 1.01535 2.39766e-20)
(1.17743 0.995498 2.27959e-20)
(1.10704 0.962547 -7.41751e-20)
(1.03165 0.926854 9.72605e-20)
(0.950402 0.887938 -3.02021e-19)
(0.862333 0.843086 -3.5056e-19)
(0.766723 0.787367 6.0837e-19)
(0.677506 0.723024 1.31898e-18)
(0.60926 0.659642 0)
(0.560303 0.600413 0)
(0.520876 0.541798 -1.65594e-19)
(0.470938 0.469981 0)
(0.384455 0.368073 4.70403e-19)
(0.258017 0.237603 5.55255e-19)
(0.127124 0.112358 0)
(0.0363097 0.0309104 0)
(6.25296e-05 0.000202639 4.51902e-19)
(0.23539 0.193607 5.43759e-20)
(1.03493 0.861536 4.33523e-20)
(1.20797 1.0203 4.29884e-20)
(1.21722 1.04803 -3.24199e-20)
(1.16476 1.02719 1.68065e-20)
(1.09437 0.993244 8.01544e-20)
(1.01885 0.956799 -1.34006e-19)
(0.937066 0.917313 -2.89206e-23)
(0.847772 0.871852 -5.01081e-21)
(0.749813 0.815276 -5.28482e-21)
(0.657029 0.749584 6.78798e-19)
(0.584761 0.683816 0)
(0.53216 0.620709 5.05965e-19)
(0.489453 0.555755 3.52754e-19)
(0.437407 0.473771 8.52715e-19)
(0.351741 0.358874 2.52916e-19)
(0.231752 0.218977 -2.99017e-19)
(0.113441 0.0956147 -1.75616e-19)
(0.0335997 0.0232273 0)
(0.000374878 -0.000197922 4.85246e-19)
(0.235986 0.201421 -1.27108e-19)
(1.02813 0.888872 0)
(1.19726 1.05085 5.56099e-20)
(1.2052 1.07856 -3.11226e-20)
(1.15258 1.05683 -6.28045e-21)
(1.08225 1.02203 -9.22543e-20)
(1.00671 0.984975 2.63956e-19)
(0.924474 0.94507 -2.44789e-20)
(0.834059 0.899195 0)
(0.733872 0.842094 -6.7149e-19)
(0.637533 0.77559 -1.47463e-18)
(0.560917 0.707949 5.98318e-20)
(0.503974 0.641181 6.95615e-19)
(0.456535 0.569364 0)
(0.400417 0.475261 5.74403e-19)
(0.314924 0.343105 0)
(0.205137 0.188914 0)
(0.109334 0.0625401 -1.89997e-19)
(0.0577019 0.00367472 0)
(0.0274352 0.0112373 1.29991e-19)
(0.236208 0.208631 -1.4584e-19)
(1.02153 0.915041 0)
(1.18679 1.0795 9.66876e-20)
(1.19349 1.1072 0)
(1.14085 1.08469 -1.53984e-21)
(1.07064 1.0492 0)
(0.995168 1.01169 1.369e-20)
(0.912533 0.971544 4.15546e-20)
(0.821087 0.92548 4.38307e-20)
(0.718758 0.868211 -7.3679e-19)
(0.618876 0.801471 4.43955e-20)
(0.537555 0.732629 4.79836e-19)
(0.475439 0.662515 6.77687e-19)
(0.421397 0.583461 9.1155e-20)
(0.358117 0.476086 4.49322e-19)
(0.269419 0.322208 0)
(0.16678 0.145332 6.30478e-19)
(0.0865903 0.00646538 -3.69369e-19)
(0.0433742 0.0443974 4.28229e-19)
(-0.0692226 0.432626 -5.05199e-19)
(0.236414 0.21564 1.22975e-19)
(1.01488 0.939814 1.83989e-19)
(1.17649 1.10657 0)
(1.18198 1.13437 5.18866e-21)
(1.1294 1.11135 1.46602e-20)
(1.05928 1.07544 1.25143e-19)
(0.983923 1.03775 9.35317e-20)
(0.900852 0.997672 0)
(0.808348 0.951796 2.92802e-19)
(0.703826 0.894921 -3.87126e-20)
(0.600161 0.828666 0)
(0.513507 0.759564 0)
(0.444971 0.686419 6.05377e-19)
(0.38217 0.599301 -2.81025e-19)
(0.307482 0.478731 -4.53843e-19)
(0.210336 0.301015 0)
(0.0967984 0.138428 3.17264e-19)
(0.00582559 0.438323 -3.67619e-19)
(0.0346894 1.88246 -2.02236e-19)
(0.0643482 2.80739 -2.57961e-19)
(0.236453 0.221811 -9.49701e-20)
(1.0084 0.963379 -2.41051e-19)
(1.16636 1.13204 6.03635e-20)
(1.17065 1.15993 4.14335e-20)
(1.11826 1.13658 0)
(1.04824 1.10046 7.53698e-20)
(0.973162 1.06283 1.30502e-19)
(0.889608 1.02302 -2.03044e-20)
(0.796098 0.977626 4.35284e-20)
(0.689451 0.921616 7.02684e-19)
(0.581992 0.856524 7.44263e-19)
(0.489743 0.788359 5.35425e-19)
(0.413551 0.712759 6.07072e-19)
(0.340643 0.61569 -6.56981e-19)
(0.254445 0.486202 -6.8315e-19)
(0.138877 0.332087 0)
(0.048383 0.829408 0)
(0.104608 2.54671 1.75785e-19)
(0.105549 3.19797 0)
(0.10856 3.38672 4.2246e-19)
(0.239047 0.22745 0)
(1.00268 0.985922 0)
(1.1562 1.15578 0)
(1.15929 1.18369 1.40803e-20)
(1.10713 1.16016 1.71635e-20)
(1.0373 1.12413 4.1071e-20)
(0.962779 1.08684 8.48328e-20)
(0.878757 1.04748 -1.99248e-20)
(0.784303 1.00283 3.67627e-19)
(0.675664 0.948158 -9.6213e-21)
(0.564524 0.884942 1.47011e-18)
(0.466637 0.818869 -6.14424e-20)
(0.381512 0.742463 7.35171e-20)
(0.299339 0.630104 9.46513e-20)
(0.192026 0.503178 -3.11873e-21)
(0.106969 0.962506 1.80865e-21)
(0.144719 2.70942 -9.16311e-19)
(0.154219 3.29031 -3.46272e-19)
(0.142246 3.42608 1.80774e-19)
(0.128556 3.44859 -2.01749e-19)
(0.156931 0.183959 5.8237e-20)
(0.991627 1.01018 0)
(1.14567 1.17803 -1.29866e-19)
(1.14847 1.2061 -1.21503e-19)
(1.09684 1.18289 6.6099e-20)
(1.02738 1.14713 -3.73825e-20)
(0.952733 1.10982 -8.8616e-20)
(0.868425 1.07116 2.27377e-19)
(0.77316 1.02755 -3.02152e-19)
(0.662772 0.974682 0)
(0.548151 0.914118 7.2317e-19)
(0.444788 0.850973 -4.36352e-19)
(0.349335 0.77854 0)
(0.255342 0.646539 8.79452e-20)
(0.157299 0.792146 2.10471e-19)
(0.159481 2.47645 -2.48992e-19)
(0.220193 3.32306 2.80597e-19)
(0.198821 3.44069 1.52204e-19)
(0.164967 3.46229 1.72437e-19)
(0.142484 3.47256 2.76085e-19)
(0.282184 0.266064 -1.04682e-19)
(0.976286 1.02001 0)
(1.12713 1.20305 1.46167e-19)
(1.13373 1.23806 1.44941e-19)
(1.08004 1.21588 -8.92954e-20)
(1.0102 1.18069 1.23073e-20)
(0.934816 1.14515 9.12407e-20)
(0.850044 1.10778 1.76938e-20)
(0.753381 1.0661 2.91095e-19)
(0.640103 1.0166 6.10805e-19)
(0.520234 0.96167 4.10344e-20)
(0.4077 0.904905 3.87875e-19)
(0.292422 0.834302 6.86539e-20)
(0.217404 0.962376 -8.64657e-20)
(0.233575 2.32575 -1.98179e-19)
(0.296189 3.3268 1.92485e-19)
(0.279367 3.47178 -2.14105e-19)
(0.243421 3.49334 -1.2426e-19)
(0.205639 3.52082 -1.0686e-19)
(0.153718 3.51439 -1.25344e-20)
(0.270103 0.262938 0)
(0.973857 1.04268 4.58412e-20)
(1.11889 1.22638 -3.12977e-20)
(1.12345 1.26146 -1.85653e-20)
(1.06963 1.23904 -6.89573e-20)
(0.99997 1.20417 -5.87151e-21)
(0.924348 1.16891 -5.02815e-20)
(0.839426 1.13236 1.60329e-20)
(0.742261 1.092 -3.04735e-19)
(0.627777 1.04504 -1.41328e-20)
(0.505445 0.994508 -1.31083e-18)
(0.388943 0.943115 5.51194e-20)
(0.281135 0.902467 -6.49444e-20)
(0.258012 1.48443 -8.02851e-20)
(0.333725 3.09313 1.7773e-20)
(0.355274 3.47001 7.62112e-22)
(0.314391 3.52704 3.15846e-19)
(0.276627 3.55268 1.56527e-19)
(0.227542 3.5761 -4.26258e-20)
(0.168013 3.57186 -6.04329e-20)
(0.25374 0.261341 1.19427e-19)
(0.969832 1.06798 3.16639e-19)
(1.11015 1.25183 -9.03825e-20)
(1.11258 1.28627 -7.01483e-20)
(1.05867 1.26357 0)
(0.989307 1.22884 2.5653e-20)
(0.913744 1.19396 -5.74319e-20)
(0.828936 1.15818 1.42617e-20)
(0.731582 1.11921 -3.37653e-20)
(0.616411 1.075 -5.57255e-19)
(0.49242 1.02918 -6.06924e-19)
(0.373711 0.983705 -4.54787e-19)
(0.281411 1.03227 -4.91295e-19)
(0.326291 2.18239 5.0669e-19)
(0.420086 3.37714 4.28078e-19)
(0.399382 3.52904 0)
(0.353304 3.57339 0)
(0.314984 3.61431 -3.36051e-20)
(0.263139 3.67498 0)
(0.180066 3.65065 -4.09919e-20)
(0.242903 0.263198 -1.82654e-19)
(0.963831 1.09437 -2.73545e-19)
(1.09997 1.27845 0)
(1.10034 1.31185 6.16726e-21)
(1.04643 1.2887 -8.81165e-20)
(0.97752 1.25403 6.2653e-20)
(0.902351 1.21955 -2.77887e-20)
(0.817855 1.18443 9.14756e-21)
(0.720552 1.14677 -2.19997e-19)
(0.605094 1.10527 2.82904e-20)