/*--------------------------------*- C++ -*----------------------------------*\
| =========                 |                                                 |
| \\      /  F ield         | OpenFOAM: The Open Source CFD Toolbox           |
|  \\    /   O peration     | Version:  2112                                  |
|   \\  /    A nd           | Website:  www.openfoam.com                      |
|    \\/     M anipulation  |                                                 |
\*---------------------------------------------------------------------------*/
FoamFile
{
    version     2.0;
    format      ascii;
    arch        "LSB;label=32;scalar=64";
    class       volScalarField;
    location    "49";
    object      p;
}
// * * * * * * * * * * * * * * * * * * * * * * * * * * * * * * * * * * * * * //

dimensions      [0 2 -2 0 0 0 0];

internalField   nonuniform List<scalar> 
1600
(
-4.9081015e-08
-0.0046835975
-0.0087607492
-0.013602369
-0.01892659
-0.024507006
-0.030005275
-0.034409478
-0.040339802
-0.034075932
-0.043341592
-0.044034521
-0.038985773
-0.03710885
-0.034283358
-0.031084601
-0.027519861
-0.023413209
-0.018216818
-0.012936351
-0.0073972071
-0.0016950424
0.0040351824
0.0096246268
0.015000912
0.020523613
0.025521403
0.024115238
0.019463234
0.018613605
0.01792259
0.017276092
0.016833411
0.016558981
0.016383907
0.016181909
0.015769386
0.0149649
0.013263987
0.0092463518
-0.0024338207
-0.0077567153
-0.012152145
-0.017314183
-0.02284206
-0.028455124
-0.03377025
-0.037457346
-0.04300769
-0.033747255
-0.044600118
-0.046136566
-0.041190369
-0.039984185
-0.037694957
-0.035066923
-0.031961112
-0.028261109
-0.023435264
-0.018418411
-0.012851019
-0.0069082189
-0.0007496716
0.0053850891
0.01134123
0.017377861
0.022536999
0.02135301
0.017348686
0.016634422
0.01606265
0.015596479
0.015421199
0.015492096
0.015701849
0.015864258
0.015718494
0.015017073
0.013187193
0.0085771291
-0.0053953459
-0.011366914
-0.01611067
-0.021598016
-0.027297445
-0.032832384
-0.037709929
-0.040512193
-0.044752159
-0.032438657
-0.044885911
-0.047784933
-0.043032198
-0.042180483
-0.040379671
-0.038268727
-0.035644538
-0.032418219
-0.028488392
-0.023473551
-0.018123402
-0.012271992
-0.0060354809
0.00033679868
0.0066900302
0.013266944
0.018960778
0.018285104
0.014636054
0.014102125
0.013696872
0.01347732
0.013651358
0.014166571
0.014874827
0.015521907
0.015763302
0.015268326
0.013351805
0.0082750073
-0.0087655304
-0.015256214
-0.020290894
-0.02601922
-0.031778203
-0.037084869
-0.041330877
-0.043110154
-0.045926797
-0.030698854
-0.044901805
-0.049001482
-0.044464635
-0.043992036
-0.042721968
-0.041196224
-0.039190491
-0.03658791
-0.033261877
-0.02898739
-0.024016746
-0.018517149
-0.01243864
-0.0059979228
0.00067354304
0.0078081023
0.014151421
0.014280846
0.011130293
0.010654734
0.010428087
0.010554196
0.011222721
0.012364141
0.013780522
0.015133872
0.015975937
0.015875169
0.014009031
0.0085425863
-0.012589473
-0.019555485
-0.024859206
-0.030763941
-0.036465733
-0.041370946
-0.044775333
-0.045331498
-0.046632704
-0.028533372
-0.044784776
-0.049915149
-0.045608215
-0.04554983
-0.044825019
-0.043914684
-0.042587332
-0.040688849
-0.038101446
-0.034733899
-0.030099717
-0.025264447
-0.019584614
-0.013312265
-0.0065398316
0.00096100256
0.0078321949
0.0089877714
0.0066378501
0.0061850253
0.0061710176
0.0067564382
0.0080818338
0.010055108
0.012421279
0.0147425
0.016442255
0.016962363
0.015318135
0.0095404094
-0.016879671
-0.024317121
-0.029896124
-0.035919999
-0.041438049
-0.045748152
-0.048084269
-0.04720622
-0.046854251
-0.025866697
-0.044527365
-0.05057218
-0.046459558
-0.046803432
-0.046608797
-0.046307207
-0.045674125
-0.044529375
-0.042739776
-0.040231939
-0.037041703
-0.032388813
-0.027269511
-0.021442805
-0.014865828
-0.0073135211
-0.00017504479
0.0021476892
0.00092743485
0.00052863241
0.00080788319
0.0019993659
0.0041745859
0.007219123
0.01081803
0.014419496
0.017292897
0.018719228
0.017520143
0.011530162
-0.021649385
-0.02958576
-0.035453108
-0.041520837
-0.046695399
-0.050183805
-0.051207945
-0.048693778
-0.046574513
-0.022858496
-0.043896045
-0.050961118
-0.046999702
-0.047702841
-0.048008688
-0.048293291
-0.04834932
-0.047978027
-0.047027369
-0.045389864
-0.043000644
-0.039618529
-0.035251468
-0.030136655
-0.024084268
-0.016877585
-0.0098400456
-0.0063070147
-0.0061038567
-0.0063701793
-0.0056813768
-0.0037121676
-0.00047154333
0.0039087925
0.0090567849
0.014296928
0.018721036
0.021407608
0.020946667
0.014874878
-0.026935915
-0.035449579
-0.041619396
-0.047623904
-0.05224606
-0.05464244
-0.054090556
-0.049754138
-0.045826565
-0.019172462
-0.04316393
-0.05107865
-0.047233146
-0.048227112
-0.048991261
-0.049826258
-0.050546166
-0.050944616
-0.050858211
-0.050153995
-0.048734239
-0.046485661
-0.043181745
-0.038995828
-0.033796704
-0.027368833
-0.020855465
-0.016181347
-0.014355494
-0.014360079
-0.013116599
-0.010185847
-0.0056580995
0.00032770915
0.0073525347
0.014616191
0.021018173
0.025388233
0.02603625
0.020052421
-0.032818481
-0.042055443
-0.048532808
-0.054316784
-0.058111434
-0.059092777
-0.056677762
-0.050336206
-0.044646185
-0.014806057
-0.042313047
-0.050956814
-0.04713185
-0.04835669
-0.049537342
-0.050869183
-0.052206004
-0.053340105
-0.05410043
-0.054344526
-0.053945445
-0.05279221
-0.050771324
-0.047505464
-0.043480423
-0.038222129
-0.032625216
-0.026974064
-0.023444152
-0.023023983
-0.02106222
-0.016985561
-0.010957965
-0.00311195
0.0061022227
0.015777629
0.024616259
0.031155002
0.033357522
0.027704257
-0.039447383
-0.049632487
-0.05638963
-0.061712032
-0.064312277
-0.063490802
-0.058904933
-0.05035375
-0.042270111
-0.010721949
-0.04133844
-0.050578334
-0.04669427
-0.04809065
-0.049621117
-0.051387175
-0.053287399
-0.055089915
-0.056636236
-0.057791369
-0.058377112
-0.058297443
-0.057447648
-0.055776404
-0.052686503
-0.04876578
-0.04433735
-0.037913786
-0.032713203
-0.031673427
-0.028814825
-0.023412687
-0.01568974
-0.0057562341
0.00592542
0.018385674
0.030133034
0.03937865
0.043654288
0.038680595
-0.047091178
-0.058529978
-0.065461547
-0.069943473
-0.070856231
-0.067766715
-0.060682198
-0.049775872
-0.039373839
-0.0063483266
-0.040179675
-0.049907883
-0.045910446
-0.047416445
-0.049236653
-0.051368202
-0.053735478
-0.056133497
-0.058406342
-0.060398011
-0.061846943
-0.06279369
-0.06299837
-0.062378284
-0.060744109
-0.058237987
-0.05504744
-0.048044927
-0.0412888
-0.039405352
-0.035450707
-0.028542466
-0.018945153
-0.0067306796
0.0076729493
0.023275395
0.038413233
0.050960725
0.057924848
0.054087289
-0.056215738
-0.069272341
-0.076112767
-0.079153748
-0.077713899
-0.071809953
-0.061900646
-0.048523799
-0.036057845
-0.0017895309
-0.038796083
-0.048883507
-0.044752598
-0.046316935
-0.048373156
-0.050805436
-0.053565536
-0.056458572
-0.059319918
-0.061993475
-0.064312762
-0.06617356
-0.067271043
-0.067618075
-0.067106596
-0.065935838
-0.063845364
-0.056387237
-0.048195073
-0.04522721
-0.039940229
-0.031324124
-0.019672271
-0.0049910904
0.012396668
0.031510869
0.050554676
0.067088197
0.077500741
0.075424475
-0.067624906
-0.082638273
-0.088808886
-0.089461803
-0.084778578
-0.075439116
-0.062417157
-0.046550963
-0.032232517
0.0026514375
-0.037139386
-0.047415675
-0.043176673
-0.044768008
-0.047018656
-0.049694546
-0.052772446
-0.056065703
-0.059407822
-0.062642047
-0.065605726
-0.068141909
-0.070068446
-0.07124359
-0.07158974
-0.071282578
-0.069929799
-0.062087883
-0.052482312
-0.048222332
-0.041343396
-0.030794114
-0.016873869
0.00071918364
0.021354861
0.044398787
0.067948858
0.089302904
0.10417199
0.10482411
-0.082730863
-0.099767495
-0.10409254
-0.10088095
-0.091800248
-0.078361184
-0.062011746
-0.043753646
-0.027975425
0.0066918636
-0.035118134
-0.045388456
-0.041124287
-0.042737281
-0.045158249
-0.048033909
-0.05136155
-0.054963417
-0.058672221
-0.062327787
-0.065761278
-0.068802588
-0.07126816
-0.072960327
-0.073805693
-0.074183679
-0.07347275
-0.064803973
-0.053529166
-0.04764451
-0.038990595
-0.026264448
-0.010024975
0.01178933
0.035833495
0.063424226
0.092352334
0.11965456
0.1404121
0.1454947
-0.1041301
-0.1222955
-0.12246387
-0.11315564
-0.098269304
-0.080113395
-0.060366293
-0.040059474
-0.023319878
0.010079729
-0.032599599
-0.042668465
-0.038530814
-0.040189184
-0.042775875
-0.045824776
-0.049347923
-0.053175462
-0.057137434
-0.061069356
-0.064795233
-0.068128774
-0.070865736
-0.072779942
-0.073763963
-0.07415416
-0.073147436
-0.063797811
-0.051039839
-0.043061651
-0.032288766
-0.016915932
0.002796847
0.027226947
0.055826792
0.089468968
0.12544669
0.16084173
0.18975019
0.20247337
-0.13681402
-0.15249844
-0.14410411
-0.12552216
-0.10327423
-0.07997794
-0.057160606
-0.035333225
-0.017977249
0.012676015
-0.029429947
-0.039137524
-0.035352692
-0.037106327
-0.03986998
-0.043081818
-0.046761743
-0.050746172
-0.054859475
-0.058929697
-0.062770225
-0.066177071
-0.068925227
-0.070760643
-0.071512987
-0.071429199
-0.06975297
-0.059355186
-0.044857868
-0.034687211
-0.021560024
-0.0033425022
0.019904536
0.048466038
0.082634348
0.1224622
0.16705755
0.21536634
0.25682438
0.28364487
-0.19023845
-0.19310177
-0.16850872
-0.13663142
-0.10555717
-0.077145598
-0.051982312
-0.029495938
-0.012631922
0.014424972
-0.025450858
-0.034744181
-0.03160834
-0.033523244
-0.036484869
-0.039863623
-0.043678126
-0.047769246
-0.051952059
-0.056042357
-0.0598386
-0.063116526
-0.065627738
-0.067091136
-0.067259918
-0.066229789
-0.063412582
-0.051938168
-0.035787565
-0.023363437
-0.0078252996
0.013317899
0.04026181
0.073535761
0.11399707
0.16242148
0.21903554
0.28269125
0.34605113
0.40205764
-0.2839173
-0.24551268
-0.19265846
-0.14379297
-0.10338769
-0.070553054
-0.044323515
-0.022522074
-0.0068674392
0.015768237
-0.02041198
-0.029475926
-0.027318145
-0.029456353
-0.032647846
-0.03622366
-0.04018501
-0.044374755
-0.048595426
-0.052645261
-0.056302691
-0.059318987
-0.061417796
-0.062290669
-0.061619455
-0.059294759
-0.054929045
-0.042603233
-0.025532285
-0.011081213
0.0066410026
0.030402426
0.060811558
0.098817921
0.14606572
0.20477937
0.27749551
0.36416717
0.46086927
0.585415
-0.47456585
-0.30658872
-0.20200063
-0.13654562
-0.091267354
-0.057277831
-0.032754482
-0.013542902
0.0001714946
0.01820925
-0.013874946
-0.023258697
-0.022278502
-0.024642256
-0.02808818
-0.031916706
-0.036085921
-0.040438528
-0.044765804
-0.04884753
-0.052440574
-0.055270045
-0.057027536
-0.057370112
-0.055919851
-0.052350815
-0.046375704
-0.033839179
-0.017311252
-0.0016323086
0.017487065
0.04272498
0.075163502
0.11627805
0.16869485
0.2366747
0.32667356
0.44580779
0.61069014
0.88837597
-0.86236835
-0.36599471
-0.16949623
-0.097435061
-0.057032662
-0.034001282
-0.016911884
-0.0025770277
0.0083413372
0.023057242
-0.0066972982
-0.016921756
-0.016845686
-0.01933295
-0.022970273
-0.02703035
-0.031417972
-0.03597693
-0.04049857
-0.044757606
-0.048503968
-0.051452994
-0.053280912
-0.053621057
-0.052055471
-0.04809698
-0.041330842
-0.029860902
-0.015295817
0.00013440574
0.019037311
0.043617887
0.075195255
0.11544268
0.16735188
0.23654795
0.3346598
0.48677968
0.76510244
1.3293936
0.0098653028
0.0094950642
0.0089160594
0.0083115529
0.0077695752
0.0073287195
0.0070042287
0.0068057898
0.0067284338
0.0067726534
0.007311006
0.0077258699
0.007999669
0.0084017708
0.0089663444
0.0097286905
0.010708906
0.011935824
0.013407225
0.015128575
0.017086123
0.019241387
0.021524098
0.023805697
0.025925567
0.0274518
0.028409626
0.026504371
0.026221289
0.026967003
0.026489166
0.026026631
0.025267276
0.024445192
0.023612041
0.022852489
0.022225365
0.021786382
0.021558485
0.021598048
0.0098461819
0.0095217521
0.0090109367
0.0084707086
0.0079818284
0.007582648
0.007290183
0.0071174322
0.0070572311
0.0070848552
0.0076450391
0.0080748957
0.0083553245
0.0087720559
0.0093397279
0.010092386
0.011040851
0.012217158
0.01363485
0.01529211
0.017173983
0.019244254
0.021436357
0.023626233
0.025667678
0.027128178
0.028119496
0.026300018
0.025963427
0.026671277
0.026224875
0.025800887
0.025088731
0.024316348
0.023532006
0.02281758
0.02222977
0.021816542
0.021595769
0.021622628
0.0098723154
0.009576543
0.0091229177
0.0086392848
0.0081990101
0.0078386149
0.0075757498
0.0074253426
0.00737161
0.0073723161
0.0079863262
0.0084332398
0.0087045331
0.0091256491
0.0096901077
0.010426032
0.011347441
0.012486939
0.013851238
0.01544209
0.017246691
0.0192309
0.021331962
0.023431146
0.025397659
0.026798262
0.027846374
0.02607437
0.02567567
0.026368852
0.025952353
0.025567913
0.024903562
0.02418044
0.023444123
0.022773342
0.022221393
0.021832507
0.021619249
0.021639344
0.0099625194
0.0096681763
0.0092531538
0.0088124844
0.0084116959
0.0080838892
0.0078460302
0.0077125233
0.0076533478
0.0076278841
0.0083167919
0.0087927186
0.0090436394
0.0094572346
0.010014503
0.010734216
0.011627132
0.01272832
0.014041369
0.015569414
0.017301294
0.019205175
0.021222055
0.023239597
0.025139818
0.02649348
0.027606922
0.025835632
0.02536669
0.026073322
0.02568729
0.025338441
0.024719496
0.024041129
0.023348392
0.022716447
0.022195709
0.021827232
0.021621388
0.021637252
0.01012573
0.0098053052
0.0094127819
0.0090042723
0.0086355202
0.0083351889
0.0081185223
0.0079967451
0.0079229929
0.0078759198
0.0086465301
0.0091597322
0.0093867123
0.00978449
0.01033197
0.011039391
0.011897321
0.012957562
0.014219736
0.015686461
0.017347762
0.019174267
0.021110559
0.023051781
0.024889043
0.02620433
0.027382553
0.02556971
0.025022327
0.025766141
0.025413406
0.025097658
0.024523923
0.023888368
0.023237355
0.02264192
0.022149908
0.021798868
0.021599456
0.021607597
0.010369257
0.0099951382
0.0096078203
0.0092199093
0.008874388
0.0085948778
0.0083939506
0.0082768891
0.008180499
0.0081162233
0.008963669
0.0095167201
0.0097211772
0.010098038
0.010630919
0.011305743
0.012147431
0.01316945
0.014382522
0.01579041
0.017384284
0.019137275
0.020997372
0.022868091
0.02464543
0.02593145
0.027172789
0.025275989
0.024639619
0.025442541
0.025127972
0.024843496
0.024314799
0.023720179
0.023108766
0.022547137
0.022080509
0.021743302
0.021547239
0.021539625
0.010690987
0.010241527
0.0098404836
0.0094597418
0.0091263559
0.0088585584
0.0086652764
0.008543391
0.0084165161
0.0083370327
0.0092455666
0.0098351236
0.010022304
0.010376888
0.01089447
0.011548432
0.01236377
0.013349548
0.014517603
0.015871654
0.017404014
0.019090222
0.020881512
0.022690218
0.024412864
0.025681638
0.026983918
0.024959811
0.024221956
0.025104175
0.024834329
0.024579222
0.024094329
0.023537654
0.022962161
0.022429865
0.021983713
0.021654944
0.021456303
0.021421756
0.011096284
0.010544371
0.010109067
0.0097207219
0.0093864354
0.0091187728
0.0089220592
0.0087831544
0.0086173127
0.0085201064
0.0094624231
0.010078224
0.010256603
0.01059247
0.011096078
0.011734231
0.012524465
0.013479347
0.014609167
0.015917403
0.017397436
0.019026949
0.020760331
0.022518475
0.024194508
0.025461226
0.026821254
0.024627483
0.02377499
0.024753485
0.024536105
0.024308362
0.023864854
0.023341983
0.022797108
0.022288024
0.021855319
0.021527525
0.021317126
0.021242234
0.011568558
0.010895243
0.010405296
0.0099934988
0.0096434854
0.0093616631
0.0091469038
0.0089755981
0.0087601702
0.008636345
0.0095724431
0.010196457
0.010377506
0.010704278
0.01119917
0.011826741
0.012600237
0.013533379
0.014635373
0.015909653
0.017350501
0.018937402
0.020627858
0.022350238
0.023991484
0.025274862
0.026688821
0.024286021
0.023306579
0.024393974
0.024237231
0.024034723
0.023628892
0.023134506
0.022613268
0.022119379
0.021690933
0.021356501
0.021121769
0.020987362
0.012086292
0.011275475
0.010710737
0.010258367
0.0098756509
0.009561993
0.009310143
0.0090867757
0.0088069576
0.0086397234
0.0095158958
0.01012217
0.010320805
0.010655503
0.011153426
0.011781448
0.012550818
0.013475997
0.014565492
0.015822655
0.01724243
0.018805769
0.020473257
0.022178877
0.023802311
0.025125336
0.026589865
0.023943255
0.0228271
0.024031176
0.023942658
0.023762902
0.023389532
0.022916936
0.022410547
0.021921783
0.021485984
0.021129886
0.020871633
0.020643203
0.012615638
0.011652325
0.01099264
0.010480553
0.01004506
0.0096773481
0.0093635729
0.0090624523
0.0086967878
0.0084602317
0.0092087849
0.0097641558
0.010000013
0.010368744
0.010889706
0.011536569
0.01232098
0.013258623
0.014357496
0.015620757
0.017043795
0.018608784
0.020279294
0.021992577
0.023621994
0.025012956
0.026526839
0.02360753
0.022349201
0.023672949
0.023658459
0.023498173
0.023150255
0.022691139
0.022188888
0.02169294
0.021236453
0.020845791
0.020541069
0.020213214
0.013106264
0.011974049
0.011198862
0.010604631
0.010091527
0.0096411862
0.009232849
0.008819647
0.0083372116
0.0079953524
0.0085355943
0.0090013362
0.0093017504
0.0097417845
0.010316273
0.011010191
0.011837786
0.012817163
0.013955807
0.01525649
0.016714864
0.018314221
0.02002092
0.021773152
0.02344094
0.024934816
0.026501502
0.023287671
0.021887435
0.023329329
0.023391503
0.023245921
0.022914348
0.022458556
0.021947795
0.021430168
0.020937304
0.020495422
0.020115342
0.019685916
0.013487109
0.012164021
0.011252413
0.010548714
0.0099257225
0.0093550849
0.008808942
0.008237453
0.007594875
0.0071012318
0.0073421709
0.0076770041
0.0080807688
0.0086434648
0.0093153226
0.010097621
0.011008016
0.01206971
0.013289448
0.01466912
0.016204422
0.017879791
0.01966415
0.021495003
0.023243971
0.024884513
0.026515902
0.022994229
0.021458492
0.023012204
0.023148785
0.02301062
0.022683815
0.02221918
0.021685509
0.021129853
0.020582809
0.020072509
0.019606124
0.019048548
0.013661205
0.012115202
0.0110468
0.010198492
0.0094224129
0.0086814593
0.0079403528
0.0071490397
0.006287632
0.0055855652
0.0054302948
0.0055945335
0.0061558225
0.0069098287
0.0077392408
0.0086684559
0.0097155349
0.010914468
0.012270541
0.013783618
0.015449079
0.017252672
0.019165837
0.021125184
0.023010563
0.02485324
0.026575096
0.022743473
0.021082888
0.022734989
0.022936276
0.022794101
0.02245749
0.02196983
0.021397556
0.020786319
0.020165781
0.019566554
0.018990376
0.018259472
0.013500617
0.011689607
0.010439877
0.009402419
0.008416338
0.0074387556
0.0064277402
0.0053364036
0.004180286
0.0032049093
0.0025552748
0.0025160105
0.0033072888
0.0043396451
0.0054057114
0.0065659799
0.007820883
0.0092289441
0.010793611
0.012510837
0.014374951
0.016372812
0.01847811
0.020627602
0.022717351
0.024831149
0.026690215
0.022564543
0.02078769
0.022511686
0.022756588
0.022592478
0.022227863
0.021701347
0.021074608
0.020390587
0.019677493
0.018967914
0.018256274
0.017323838
0.012842831
0.010717742
0.0092564041
0.0079725561
0.0067008896
0.0053984557
0.0040201332
0.0025276038
0.00098454839
-0.00033207578
-0.0015661285
-0.0018318733
-0.00072169266
0.0006937965
0.0021044887
0.0036249365
0.0051665625
0.0068728963
0.0087395989
0.010754601
0.012907585
0.015183356
0.017555846
0.019964088
0.022331888
0.024797872
0.026874363
0.022507084
0.020606877
0.022351585
0.022602622
0.022389691
0.021975329
0.021394148
0.020699492
0.019928796
0.019107065
0.018266661
0.017388273
0.016204994
0.011500954
0.0090183133
0.0073092889
0.0056999679
0.0040362601
0.0022859301
0.0004103639
-0.0016078961
-0.0036382791
-0.005352719
-0.0072381838
-0.0077398752
-0.0062122043
-0.0043009607
-0.0024488237
-0.00051035984
0.0015190116
0.0036693521
0.0059659496
0.0084008301
0.010953529
0.013603335
0.016323852
0.019062257
0.021787627
0.024706765
0.027139803
0.022661633
0.020589924
0.022250686
0.022446134
0.022146196
0.021658386
0.021011195
0.020243473
0.01938173
0.018443831
0.01745698
0.016375409
0.014870893
0.0092674017
0.0064214031
0.0044234463
0.0023748243
0.00016728646
-0.0022015877
-0.0047452516
-0.0074330703
-0.010022622
-0.012133847
-0.014688203
-0.015428067
-0.013383404
-0.010877669
-0.0084966359
-0.0060526958
-0.0033509624
-0.00065268155
0.0021935384
0.0051859206
0.0082869307
0.011465179
0.01468408
0.017890497
0.021095957
0.02457962
0.027560364
0.02327432
0.020888246
0.022216991
0.022243191
0.021796571
0.021205232
0.020486433
0.019655585
0.018718973
0.017678954
0.016546594
0.015226384
0.013317707
0.0059191713
0.0027027465
0.00024882407
-0.0025138216
-0.0055703487
-0.0088459206
-0.012278197
-0.015749012
-0.018735093
-0.020935304
-0.024189554
-0.025225755
-0.022649192
-0.019591484
-0.016703429
-0.013635623
-0.010089392
-0.0066175333
-0.0028783316
0.0010456645
0.005077904
0.0091409371
0.013144999
0.01699545
0.020704597
0.024642549
0.028254624
0.024943672
0.021863468
0.022308698
0.021946852
0.021254489
0.020505702
0.01969977
0.018825921
0.017863907
0.016789547
0.015574252
0.014017918
0.011636105
0.0026578946
-0.0011532762
-0.0044064454
-0.0082234455
-0.012432135
-0.016844699
-0.021229399
-0.025407762
-0.028773261
-0.029399297
-0.034447433
-0.035962224
-0.03216016
-0.028528732
-0.02498296
-0.021132753
-0.016986569
-0.012079878
-0.00729852
-0.0024244961
0.0024961253
0.0073453581
0.011993338
0.016303653
0.020261595
0.024345364
0.028475174
0.027444622
0.02300625
0.021983068
0.021058592
0.020097977
0.019217334
0.018385935
0.01757661
0.016746523
0.01583805
0.014764136
0.013125056
0.010197238
)
;

boundaryField
{
    movingWall
    {
        type            zeroGradient;
    }
    fixedWalls
    {
        type            zeroGradient;
    }
    front
    {
        type            empty;
    }
    back
    {
        type            empty;
    }
}


// ************************************************************************* //
