/*--------------------------------*- C++ -*----------------------------------*\
| =========                 |                                                 |
| \\      /  F ield         | OpenFOAM: The Open Source CFD Toolbox           |
|  \\    /   O peration     | Version:  2112                                  |
|   \\  /    A nd           | Website:  www.openfoam.com                      |
|    \\/     M anipulation  |                                                 |
\*---------------------------------------------------------------------------*/
FoamFile
{
    version     2.0;
    format      ascii;
    arch        "LSB;label=32;scalar=64";
    class       volVectorField;
    location    "49";
    object      U;
}
// * * * * * * * * * * * * * * * * * * * * * * * * * * * * * * * * * * * * * //

dimensions      [0 1 -1 0 0 0 0];

internalField   nonuniform List<vector> 
1600
(
(-0.00092759391 0.024977299 0)
(-0.0027161211 0.071597059 -7.3005297e-22)
(-0.0075610987 0.11264795 5.6417538e-22)
(-0.014006803 0.14735321 -6.4817643e-22)
(-0.021702665 0.17503656 0)
(-0.029696221 0.19522587 6.0242936e-21)
(-0.036598292 0.20770111 -7.1004017e-22)
(-0.03999519 0.21260422 -6.0886783e-23)
(-0.040562182 0.21143951 -9.6534479e-21)
(-0.027094472 0.20481703 -9.2255684e-24)
(-0.01758067 0.20514854 -7.9349034e-21)
(-0.023576985 0.20358291 0)
(-0.034722505 0.2003592 -8.9341625e-21)
(-0.044961424 0.19534993 2.566428e-22)
(-0.057029268 0.18782757 -8.2578998e-21)
(-0.070152401 0.17753941 0)
(-0.084237859 0.1643667 -5.0944489e-21)
(-0.098869863 0.14835904 5.096988e-21)
(-0.11338031 0.12948562 -2.9519923e-21)
(-0.12704541 0.10805209 1.59744e-21)
(-0.13939932 0.084566053 2.2135917e-22)
(-0.14968656 0.059655804 0)
(-0.15721908 0.034073452 1.2694722e-22)
(-0.16142367 0.0086986456 -1.8982265e-21)
(-0.16185564 -0.01553256 0)
(-0.15775234 -0.037788798 0)
(-0.14860766 -0.057642162 0)
(-0.13950086 -0.076941867 -1.4684983e-22)
(-0.1368685 -0.095530568 -6.3163935e-21)
(-0.13697301 -0.11336506 3.5006473e-21)
(-0.13370552 -0.12900791 1.6645619e-21)
(-0.12729741 -0.14200233 2.803738e-21)
(-0.11767412 -0.15149438 -4.7032767e-21)
(-0.10462665 -0.15622973 -4.6935987e-22)
(-0.088275004 -0.15469583 2.7384345e-21)
(-0.06920744 -0.14536896 -2.4304117e-21)
(-0.048616405 -0.12707207 7.2914167e-23)
(-0.028298404 -0.099449831 -2.4611192e-21)
(-0.01100784 -0.06340107 2.1511637e-21)
(-0.0020736916 -0.021446832 -7.0603184e-23)
(-0.0012432912 0.02600706 0)
(-0.0033177932 0.07445785 0)
(-0.0085681951 0.11685123 6.8212931e-22)
(-0.015346086 0.1522589 2.9245638e-21)
(-0.02327978 0.17990863 4.8146338e-21)
(-0.031276878 0.19931809 8.0707347e-22)
(-0.03782811 0.21036411 6.2498741e-21)
(-0.040307378 0.21343599 -5.369932e-23)
(-0.039724749 0.210272 0)
(-0.023926581 0.20224404 6.1655216e-21)
(-0.013148784 0.20259615 1.2462076e-20)
(-0.018905122 0.2020225 0)
(-0.029572567 0.19968014 0)
(-0.039228428 0.19555731 0)
(-0.050833064 0.18913951 6.9783811e-21)
(-0.06360483 0.18009428 0)
(-0.0775839 0.16823473 0)
(-0.092474872 0.15354012 -1.0153155e-20)
(-0.10750261 0.13600962 4.4235517e-21)
(-0.12233233 0.11551822 0)
(-0.13629525 0.0925385 0)
(-0.14864011 0.067524369 8.0495857e-23)
(-0.15860729 0.041058411 -3.4405463e-22)
(-0.1654572 0.01388798 -2.8543304e-22)
(-0.16851398 -0.013141337 -1.5289438e-21)
(-0.16671342 -0.039221101 -2.2571824e-21)
(-0.15963358 -0.063622021 7.8782005e-22)
(-0.153102 -0.086362822 -1.4968797e-21)
(-0.15216833 -0.10699294 4.3936842e-21)
(-0.15345033 -0.12744086 -4.306466e-21)
(-0.15101405 -0.14610461 1.7167013e-21)
(-0.14494287 -0.16212821 5.3156049e-22)
(-0.13503989 -0.17435688 3.9751666e-21)
(-0.12098961 -0.18123564 -4.6309353e-21)
(-0.10284786 -0.18088352 2.8081819e-22)
(-0.081223443 -0.17135086 2.3063882e-21)
(-0.057466551 -0.15103692 2.3609706e-21)
(-0.033708038 -0.11925801 -2.3181637e-21)
(-0.013240146 -0.076811369 0)
(-0.0023842115 -0.026500876 -1.358674e-21)
(-0.0014307228 0.027321331 -1.383274e-24)
(-0.003706203 0.077721421 2.4619115e-21)
(-0.0094375372 0.12141819 7.7039683e-22)
(-0.016653773 0.15737674 0)
(-0.024927599 0.18476451 -4.9087072e-21)
(-0.032993652 0.2031147 -1.3113333e-20)
(-0.039170678 0.21243719 8.8791516e-23)
(-0.040718884 0.21345125 -6.0921444e-23)
(-0.038728584 0.20811789 8.82267e-21)
(-0.020152466 0.19874613 1.1431882e-22)
(-0.0076369243 0.19909359 -9.5946546e-21)
(-0.013461287 0.19957267 0)
(-0.023932339 0.19813754 0)
(-0.033154906 0.19489774 8.62588e-21)
(-0.044301655 0.18958457 0)
(-0.056698998 0.18180831 0)
(-0.07044458 0.17134349 0)
(-0.085311033 0.15807856 5.7734426e-21)
(-0.10077921 0.14196018 6.0950146e-22)
(-0.1164821 0.12269633 2.9285549e-22)
(-0.13165996 0.10050058 0)
(-0.14568178 0.075734079 -1.9440757e-22)
(-0.15779706 0.048792116 -1.3263549e-21)
(-0.16721384 0.020276656 9.0358026e-22)
(-0.17316734 -0.0090415223 1.0034257e-21)
(-0.1744555 -0.038296232 3.2490344e-21)
(-0.17063766 -0.066445746 -1.2565295e-21)
(-0.16753746 -0.092916152 1.3810033e-21)
(-0.16876184 -0.11704638 -2.0625083e-21)
(-0.17122433 -0.14092171 8.522965e-22)
(-0.16949139 -0.16313269 -4.088489e-21)
(-0.16365057 -0.18273738 0)
(-0.15338446 -0.19833731 -4.0160192e-21)
(-0.13825878 -0.20804343 2.3648016e-21)
(-0.11824316 -0.20953468 1.3839486e-22)
(-0.093940443 -0.20032462 -4.8995429e-21)
(-0.066832722 -0.17824552 -4.6505742e-21)
(-0.039382755 -0.1421391 2.4166073e-21)
(-0.0155228 -0.092582913 -2.2362891e-21)
(-0.0026205201 -0.032575235 -1.297909e-21)
(-0.0015488273 0.028799185 2.0097764e-24)
(-0.0039954371 0.081307708 -2.5050977e-21)
(-0.010263844 0.12630154 -3.5112712e-21)
(-0.018025699 0.16266066 0)
(-0.02673463 0.18953128 0)
(-0.034916964 0.20651482 7.1418367e-21)
(-0.040680993 0.21382156 0)
(-0.041181 0.21254964 0)
(-0.037582776 0.20503346 -9.2621094e-21)
(-0.015685774 0.19435463 5.8689209e-23)
(-0.00082721912 0.19481638 3.1977548e-21)
(-0.006958005 0.19622707 -1.4615493e-22)
(-0.017464081 0.19569592 1.5011908e-22)
(-0.026303406 0.19338629 -8.9258296e-21)
(-0.036967104 0.18919475 2.7053225e-22)
(-0.048897265 0.18272443 -2.6683296e-22)
(-0.062247825 0.17372132 -8.149906e-21)
(-0.07690735 0.16198028 0)
(-0.092551554 0.14732775 -5.4652006e-21)
(-0.10868589 0.12955182 -3.5672718e-22)
(-0.12483962 0.10842726 0)
(-0.14028188 0.084248662 3.3282554e-22)
(-0.15442278 0.057257364 1.2118057e-21)
(-0.16645607 0.027921425 -5.0836718e-22)
(-0.17556332 -0.0030750506 5.2241211e-23)
(-0.18041294 -0.034863067 0)
(-0.18048458 -0.066283249 0)
(-0.18148778 -0.096640976 4.6000251e-22)
(-0.18518136 -0.12508928 7.4056551e-22)
(-0.1887728 -0.15301249 1.6474936e-21)
(-0.1877817 -0.17930668 1.6376267e-21)
(-0.18224315 -0.20309886 1.885899e-22)
(-0.17172439 -0.22279159 1.5656871e-21)
(-0.15567572 -0.23614281 1.6174631e-21)
(-0.1339484 -0.24032128 0)
(-0.1070847 -0.23217504 5.8632253e-23)
(-0.076643117 -0.20878375 -5.219667e-23)
(-0.045388716 -0.16830963 0)
(-0.017940667 -0.11094357 2.1935512e-21)
(-0.0028432124 -0.039749798 1.3137937e-21)
(-0.0016507238 0.030433895 0)
(-0.0043310156 0.085273007 0)
(-0.011253876 0.13160383 -2.1367048e-23)
(-0.019710269 0.16822159 2.1909134e-23)
(-0.02896007 0.19429385 3.1320202e-23)
(-0.03727354 0.20956212 -3.1861227e-23)
(-0.042514833 0.21452413 0)
(-0.041716591 0.21071575 0)
(-0.036131076 0.20095299 -6.1348746e-23)
(-0.010246477 0.18896262 5.9768122e-23)
(0.0074851068 0.18963776 0)
(0.00091825728 0.19193793 0)
(-0.0098194812 0.19228937 0)
(-0.018367209 0.19091408 0)
(-0.028565787 0.18782892 -9.7046195e-21)
(-0.039976985 0.18265357 0)
(-0.052822672 0.17511323 8.3352629e-21)
(-0.067095857 0.16493107 0)
(-0.082587838 0.15184737 -4.3799441e-22)
(-0.098971617 0.13561811 -3.310129e-22)
(-0.11568698 0.11593889 7.299941e-22)
(-0.13236816 0.092617978 -5.5017856e-21)
(-0.14834014 0.066021875 -3.8103329e-21)
(-0.16284885 0.036458603 3.3563234e-21)
(-0.17508683 0.0044740019 -1.9513635e-22)
(-0.18365404 -0.029158769 -4.8118357e-22)
(-0.18801828 -0.063343519 8.7178664e-22)
(-0.19361291 -0.097479414 -1.8801144e-23)
(-0.19991077 -0.13059376 -1.4261022e-21)
(-0.20439615 -0.16301794 2.0760492e-22)
(-0.20417557 -0.19386885 -3.2266026e-22)
(-0.19912618 -0.22242213 1.1311501e-22)
(-0.18866317 -0.24693231 4.376077e-22)
(-0.17210668 -0.26480804 -1.8402556e-21)
(-0.14913499 -0.27265378 2.0941904e-22)
(-0.12014025 -0.26651898 2.2736638e-21)
(-0.086657433 -0.24250881 2.5207262e-21)
(-0.051683579 -0.19782662 8.0129125e-23)
(-0.020533472 -0.13202938 -8.1890625e-23)
(-0.003076169 -0.048111756 0)
(-0.0017532678 0.032233926 0)
(-0.0047780623 0.089660907 0)
(-0.01253136 0.13738544 -6.5283292e-21)
(-0.021868771 0.17409933 3.1040984e-23)
(-0.031765223 0.19904635 -9.2951144e-21)
(-0.040177777 0.21220292 -1.0282269e-20)
(-0.044695608 0.21445927 0)
(-0.042224131 0.20786272 0)
(-0.034112626 0.19576961 -6.1283777e-23)
(-0.003487984 0.18246985 5.9947409e-23)
(0.017613003 0.18338143 0)
(0.010519459 0.1866044 0)
(-0.00064532122 0.1878015 0)
(-0.0090380907 0.18732161 5.2164257e-21)
(-0.018829681 0.18529575 9.9722079e-21)
(-0.029708001 0.18136696 -6.1439765e-22)
(-0.041967494 0.17524933 -4.2955038e-21)
(-0.055702315 0.16661574 0)
(-0.070811838 0.15512787 0)
(-0.08706176 0.14046053 -9.1305439e-22)
(-0.1041913 0.12235358 8.8145223e-22)
(-0.12181144 0.10037755 4.4172787e-21)
(-0.1391375 0.074655472 7.267139e-21)
(-0.15575277 0.045461631 -2.8479431e-21)
(-0.17085859 0.013190785 4.3987211e-22)
(-0.18306261 -0.021553262 -8.3793127e-23)
(-0.19191045 -0.057862478 -4.2778885e-22)
(-0.20230405 -0.095352093 0)
(-0.21116465 -0.13305969 -2.4130652e-23)
(-0.21622257 -0.17015114 4.7366425e-23)
(-0.21678636 -0.2058525 -4.7507528e-23)
(-0.21249485 -0.23961708 2.4855314e-23)
(-0.20256995 -0.26960562 -3.3927993e-22)
(-0.18617512 -0.29290652 -2.7157353e-22)
(-0.16274248 -0.30553204 1.700212e-22)
(-0.13239188 -0.30260686 9.5273176e-22)
(-0.096483828 -0.27900595 1.5602782e-22)
(-0.058119303 -0.23060509 0)
(-0.023271924 -0.15596133 0)
(-0.0033079339 -0.057785163 0)
(-0.0018751047 0.034239275 0)
(-0.0054069097 0.094564609 1.2519721e-23)
(-0.014227958 0.14373594 6.6210694e-21)
(-0.024660549 0.18033074 0)
(-0.035282726 0.20375109 4.1859906e-21)
(-0.043678164 0.21433554 1.6216773e-20)
(-0.047140531 0.21349192 0)
(-0.042464397 0.20385951 -5.5293557e-21)
(-0.031132922 0.18936415 6.0325193e-23)
(0.0050789863 0.17475197 -2.3716362e-21)
(0.030037152 0.1759753 1.0705588e-22)
(0.022307749 0.18010925 5.6753816e-21)
(0.010506767 0.18210196 5.3794669e-21)
(0.0021017832 0.18245215 -5.3709841e-21)
(-0.0073725767 0.18141525 5.4263456e-21)
(-0.017736691 0.17865909 -5.3611651e-21)
(-0.029356326 0.17389617 1.0241302e-20)
(-0.042427983 0.1667688 5.0842918e-21)
(-0.056969818 0.15688154 -4.8599076e-21)
(-0.072887716 0.14383205 3.5173978e-21)
(-0.090036336 0.127267 4.3019704e-21)
(-0.10796613 0.10696595 -2.9118321e-21)
(-0.12630015 0.082606931 -6.0448185e-21)
(-0.14455046 0.054336346 5.6100291e-22)
(-0.16205357 0.022459157 -2.8492607e-21)
(-0.17756397 -0.012619244 -2.2179911e-21)
(-0.19078978 -0.05025399 8.0288438e-22)
(-0.2057798 -0.090356584 -2.9534663e-22)
(-0.21691463 -0.13215535 0)
(-0.22218846 -0.17373239 5.0413595e-22)
(-0.22354963 -0.2142951 8.6843402e-22)
(-0.22035421 -0.25348516 4.9667558e-22)
(-0.21160351 -0.28944 2.2389819e-22)
(-0.1962789 -0.31899388 -1.21033e-22)
(-0.1734878 -0.33758267 -5.0123067e-22)
(-0.14293171 -0.33930906 -1.5312067e-22)
(-0.10559291 -0.31754107 -1.4178189e-21)
(-0.064473808 -0.26635806 -1.7977611e-21)
(-0.026100693 -0.18278542 -2.0671614e-21)
(-0.003522967 -0.068891284 0)
(-0.0020421735 0.036529506 0)
(-0.0063102152 0.10014965 0)
(-0.016510995 0.15080346 -4.6451853e-21)
(-0.028269747 0.18697747 5.4149423e-21)
(-0.039634555 0.20836392 -5.779459e-22)
(-0.047760907 0.21583464 -1.2277612e-20)
(-0.049649649 0.2114612 0)
(-0.04203256 0.19854913 5.6785104e-21)
(-0.026626081 0.18159186 -5.8112615e-23)
(0.016100958 0.16574731 2.4497457e-21)
(0.045424704 0.16735892 3.1005811e-21)
(0.036870417 0.17233147 -5.971841e-21)
(0.024219019 0.17504573 -1.1109924e-20)
(0.015613799 0.176147 -5.6406288e-21)
(0.0063341619 0.17601093 -5.5564741e-21)
(-0.0035755431 0.174331 -1.4370808e-22)
(-0.014540894 0.17082899 -5.3462097e-21)
(-0.026855322 0.16513445 -1.061272e-20)
(-0.040646446 0.15682084 -9.9210533e-22)
(-0.055931861 0.14544284 -2.822338e-21)
(-0.07264523 0.13059347 -1.0232336e-20)
(-0.090559426 0.11198424 -1.600112e-21)
(-0.10935937 0.089310514 7.541225e-21)
(-0.12869395 0.062416548 4.4626931e-21)
(-0.14795148 0.031547307 2.325386e-21)
(-0.16620494 -0.0030914269 2.6496471e-21)
(-0.18336749 -0.041138617 -2.0753545e-22)
(-0.20228023 -0.082838559 -6.7630247e-22)
(-0.21511815 -0.12780433 1.2782985e-21)
(-0.22025668 -0.17329829 -1.1922099e-21)
(-0.22241778 -0.21837508 2.6446142e-23)
(-0.22068981 -0.26286583 -7.1170701e-22)
(-0.21385202 -0.30498055 -8.3896075e-22)
(-0.20069281 -0.34141619 0)
(-0.17992999 -0.36711428 6.3183972e-22)
(-0.15069304 -0.3751212 -1.1386741e-21)
(-0.11333507 -0.35702898 1.600916e-21)
(-0.070466826 -0.304554 -4.0183579e-22)
(-0.028960528 -0.21244081 1.920946e-21)
(-0.0037126411 -0.081545234 5.8959549e-23)
(-0.0022906071 0.039232392 -6.651177e-24)
(-0.0076063919 0.10666138 7.3987705e-24)
(-0.019582294 0.15879114 4.7103783e-21)
(-0.032888985 0.19410915 -1.1712364e-20)
(-0.044895066 0.212811 6.0851211e-21)
(-0.0522936 0.21653039 6.4907049e-21)
(-0.051840628 0.20816906 0)
(-0.040299294 0.19175053 -5.9550207e-21)
(-0.019698371 0.17224253 0)
(0.030343956 0.15556902 -5.2965242e-23)
(0.064563181 0.1573944 -3.0430723e-21)
(0.054976989 0.16312704 0)
(0.041258438 0.16647579 5.7229702e-21)
(0.032249832 0.16823993 5.78411e-21)
(0.02299938 0.16889927 0)
(0.013433018 0.16818071 6.4568214e-21)
(0.0030821017 0.1658235 -7.0803556e-22)
(-0.00843786 0.16145604 6.2379252e-21)
(-0.021349986 0.15464234 5.3603015e-21)
(-0.035776541 0.14491475 -6.6502043e-22)
(-0.05175188 0.13181646 4.8433772e-21)
(-0.069188508 0.11499912 4.5030211e-21)
(-0.087952011 0.094182343 -4.0992924e-21)
(-0.10767111 0.069119965 -2.6768975e-21)
(-0.12797638 0.039717804 -9.2035958e-22)
(-0.14825055 0.0062076705 0)
(-0.16859969 -0.031311966 1.1274056e-21)
(-0.19033581 -0.073413908 -1.0891715e-21)
(-0.20403002 -0.12026314 -4.974118e-22)
(-0.20870678 -0.16870891 -1.9513244e-21)
(-0.21163748 -0.21754499 -4.4680411e-22)
(-0.21172001 -0.26678739 -9.2113487e-23)
(-0.20754795 -0.31484032 1.3517274e-21)
(-0.19773551 -0.35843976 -2.8878101e-23)
(-0.18058452 -0.39220348 -4.3873794e-22)
(-0.15451613 -0.40819242 -1.3608279e-21)
(-0.11897135 -0.39601235 0)
(-0.075776947 -0.34438077 2.5270028e-21)
(-0.031809603 -0.24474706 -3.4611937e-21)
(-0.0038901108 -0.095861548 0)
(-0.002674736 0.042540661 3.9692501e-21)
(-0.0094532589 0.11443852 0)
(-0.023680909 0.16794806 -6.3998803e-21)
(-0.038693567 0.20177267 6.2458676e-21)
(-0.051029199 0.21695007 1.1202219e-22)
(-0.056932128 0.2161762 -1.1355795e-22)
(-0.053041752 0.20336548 5.6875522e-23)
(-0.03636309 0.18329722 6.0954537e-21)
(-0.0091961421 0.16133443 -4.9856245e-23)
(0.049076089 0.14412988 -9.8490027e-22)
(0.088434692 0.14595523 2.9699885e-21)
(0.077633612 0.15233453 0)
(0.062648259 0.15622914 0)
(0.053009847 0.15855738 0)
(0.043581582 0.15989553 0)
(0.034194716 0.16001058 0)
(0.024347635 0.15866031 0)
(0.013586359 0.15549234 0)
(0.0016058925 0.15007406 7.3797548e-22)
(-0.011827452 0.1419245 -7.0882161e-22)
(-0.026838331 0.13055029 0)
(-0.04342273 0.11557491 -6.8602418e-21)
(-0.061564262 0.096654075 -4.0216151e-21)
(-0.08117304 0.073603289 3.8477748e-21)
(-0.1019 0.046169154 5.7182412e-21)
(-0.12328122 0.01440959 1.8251259e-21)
(-0.14581048 -0.021688993 -5.5287091e-21)
(-0.16898563 -0.062945179 -1.2920272e-21)
(-0.18249129 -0.11015669 1.2183704e-21)
(-0.18640423 -0.16023131 -1.6423321e-21)
(-0.1900023 -0.21165549 1.5582565e-21)
(-0.19212908 -0.26462299 -2.3920032e-21)
(-0.19127444 -0.31787213 -2.3057189e-21)
(-0.18593864 -0.36841484 0)
(-0.17404314 -0.41082033 1.0086541e-21)
(-0.15321763 -0.43638279 1.3760739e-21)
(-0.12170558 -0.43265141 2.8263921e-21)
(-0.080059944 -0.38470752 -3.8139674e-21)
(-0.0346383 -0.27939646 3.3297294e-21)
(-0.004100794 -0.1119604 3.890129e-21)
(-0.0032815852 0.04674012 -8.7849429e-21)
(-0.012070943 0.12393007 6.6007688e-21)
(-0.029083735 0.17854728 -1.0560418e-21)
(-0.045793516 0.20994084 8.3284129e-21)
(-0.057788002 0.2205137 -8.5792661e-21)
(-0.060972602 0.21440781 0)
(-0.05210637 0.19672937 -7.4342448e-21)
(-0.02872239 0.17301263 6.0800014e-21)
(0.0063327936 0.1489821 0)
(0.07385784 0.13131561 1.5712224e-21)
(0.11841266 0.13295416 -5.7508399e-21)
(0.10616164 0.13980395 -2.8277747e-22)
(0.089731373 0.14414147 -5.5923995e-21)
(0.079226499 0.14692558 0)
(0.069384794 0.14882181 0)
(0.059957148 0.14963674 -7.7116631e-22)
(0.050436505 0.14914828 7.4245468e-22)
(0.040321221 0.14703387 0)
(0.029222156 0.14287306 -5.362501e-21)
(0.016807028 0.13619411 -7.4247148e-22)
(0.0029114661 0.12651665 -6.0527288e-21)
(-0.012599906 0.11339522 4.1279498e-21)
(-0.029842528 0.096429303 6.7176518e-21)
(-0.048745333 0.075397983 -5.0224811e-21)
(-0.069075258 0.050218389 5.8969178e-22)
(-0.090868258 0.020723159 -2.2306547e-21)
(-0.11458318 -0.013181992 1.2418593e-20)
(-0.13779199 -0.052436224 -1.8894863e-21)
(-0.15002966 -0.098430938 -1.7072825e-21)
(-0.15289984 -0.1485409 -2.3721592e-22)
(-0.15696143 -0.201006 -1.38007e-21)
(-0.16118153 -0.25619176 -2.9378557e-22)
(-0.16407954 -0.31331369 9.2182313e-23)
(-0.16414784 -0.36994924 -7.1430655e-22)
(-0.15904711 -0.42097252 2.6769324e-22)
(-0.14562525 -0.45733944 -3.1439225e-22)
(-0.1206914 -0.46471485 1.1737297e-21)
(-0.082956214 -0.4240261 4.1498048e-21)
(-0.037483627 -0.31592656 5.6292776e-21)
(-0.0044208414 -0.13000314 1.5582608e-21)
(-0.0042575146 0.052257602 4.8184298e-21)
(-0.015776182 0.13571004 -6.6627838e-21)
(-0.036089608 0.19083204 7.5943844e-21)
(-0.054131685 0.21841966 1.1631466e-21)
(-0.064520418 0.22302062 8.6976146e-21)
(-0.063111748 0.21068431 8.7622503e-21)
(-0.047189055 0.18784002 7.4562557e-21)
(-0.015191539 0.1606722 -1.7790508e-22)
(0.029101318 0.13507066 8.4233345e-23)
(0.10650434 0.11731083 -5.7548988e-22)
(0.15614586 0.11840689 2.7812807e-21)
(0.14223652 0.12543258 -1.0281433e-22)
(0.12424527 0.13007902 6.0978396e-21)
(0.1126584 0.13319913 0)
(0.10216141 0.13552426 0)
(0.092440869 0.13689976 -7.7593029e-22)
(0.083008511 0.13712874 7.4571043e-22)
(0.073328442 0.13591604 0)
(0.062958494 0.13286562 6.9871339e-21)
(0.051525687 0.12753061 -7.6392056e-22)
(0.038767013 0.11945902 6.0937056e-21)
(0.024394482 0.10815931 -1.5453636e-21)
(0.0082973084 0.093247012 1.4832251e-21)
(-0.0095108613 0.074430799 -1.4386277e-21)
(-0.029023672 0.05157751 -3.8671637e-21)
(-0.050572695 0.024613708 -2.5650976e-21)
(-0.074591349 -0.0065269957 2.3745976e-22)
(-0.096653722 -0.042836481 -2.2073155e-21)
(-0.10669033 -0.086178837 3.1361165e-21)
(-0.10825971 -0.13460144 1.5273622e-21)
(-0.11248699 -0.18627494 1.8571154e-21)
(-0.11863806 -0.24174875 1.5778628e-21)
(-0.12544689 -0.30084171 1.4819438e-21)
(-0.13150048 -0.362045 3.8665427e-22)
(-0.13445382 -0.42083244 -7.3184782e-22)
(-0.13053127 -0.46856921 0)
(-0.11497097 -0.48955709 -3.7524247e-21)
(-0.084048508 -0.46035491 0)
(-0.040453496 -0.35366544 -5.9986845e-21)
(-0.0049787222 -0.15026219 -5.5534479e-21)
(-0.0058581163 0.059747706 7.0619065e-21)
(-0.021030666 0.15047795 9.5880625e-21)
(-0.044955257 0.20489701 0)
(-0.063264707 0.22668451 -9.4817501e-21)
(-0.069832404 0.22364274 1.0298006e-20)
(-0.061065164 0.20421182 -8.9511289e-21)
(-0.0354101 0.17614572 0)
(0.0072952866 0.14602239 -3.0615648e-22)
(0.061995594 0.11954432 0)
(0.14928283 0.10234808 -5.9100022e-22)
(0.20354171 0.10243404 3.9968419e-23)
(0.18790561 0.10921639 0)
(0.16837168 0.11399393 0)
(0.15556448 0.11731025 0)
(0.14421341 0.11992054 -5.7631303e-21)
(0.13395586 0.12170544 6.6502017e-21)
(0.12434522 0.1224945 -6.7510703e-21)
(0.11483992 0.12202763 0)
(0.104972 0.11994646 8.0775542e-22)
(0.094328907 0.11583224 7.1892289e-21)
(0.082558729 0.10923711 -7.937646e-21)
(0.069338455 0.099696741 4.7669892e-21)
(0.054474802 0.086839316 1.5428307e-21)
(0.037847417 0.070313761 7.7142152e-21)
(0.019352623 0.049962381 -1.4715178e-21)
(-0.0015002696 0.025820006 -2.7995887e-21)
(-0.025111965 -0.0020775157 2.7002675e-21)
(-0.045327242 -0.034800802 -2.1077156e-21)
(-0.052563145 -0.074359444 1.5482058e-22)
(-0.052586473 -0.11946609 -1.6205322e-21)
(-0.056636584 -0.16838195 8.3751282e-22)
(-0.064397922 -0.22192296 -1.7626578e-21)
(-0.075082009 -0.28054208 0)
(-0.087291819 -0.34403908 2.855117e-23)
(-0.099088753 -0.40872815 -9.3682157e-22)
(-0.10654819 -0.46743292 2.243935e-21)
(-0.103312 -0.50402859 3.8376245e-21)
(-0.082722612 -0.4910619 4.1374019e-21)
(-0.043713607 -0.39160897 0)
(-0.0059913443 -0.17321248 5.4252883e-21)
(-0.0085390687 0.070256908 -7.1044719e-21)
(-0.02849594 0.16901499 -9.6563398e-21)
(-0.05569973 0.22044241 6.147181e-21)
(-0.071891583 0.23360662 6.2133415e-21)
(-0.07096336 0.22101973 -1.0484561e-20)
(-0.05097528 0.1938667 0)
(-0.012431194 0.16096568 0)
(0.042933434 0.12881632 -5.9591593e-21)
(0.10860446 0.10243172 7.4097945e-23)
(0.20482912 0.086667118 5.9384071e-22)
(0.26270747 0.085290183 3.2996117e-23)
(0.24554216 0.091323073 1.8544205e-22)
(0.22471418 0.096007946 -1.8228248e-22)
(0.21071308 0.099351836 0)
(0.19843698 0.10207985 3.0464841e-21)
(0.1874873 0.1041032 -5.933416e-21)
(0.17747858 0.10527718 6.0586825e-21)
(0.16789221 0.10538186 7.9062925e-22)
(0.15825913 0.10410462 -7.5634298e-22)
(0.14814685 0.10106704 -6.3690281e-21)
(0.13715664 0.095849604 8.0495279e-21)
(0.124922 0.08801638 -7.9716999e-21)
(0.11115095 0.077169703 0)
(0.095663708 0.06295845 -9.3355669e-21)
(0.078337329 0.045197641 0)
(0.058447096 0.023994279 0)
(0.035288903 -0.00043777469 -2.6522536e-21)
(0.017021483 -0.028974687 3.1392697e-21)
(0.012846061 -0.063683121 3.6929373e-21)
(0.01456973 -0.10402446 -5.0841684e-21)
(0.01104897 -0.14833195 3.1177121e-21)
(0.0021048745 -0.19769853 1.4363645e-21)
(-0.012223226 -0.25315346 -3.5420826e-22)
(-0.030580699 -0.31527543 -7.2914461e-22)
(-0.051497351 -0.38304908 1.6638068e-21)
(-0.071879412 -0.45105362 -2.2677552e-21)
(-0.083939591 -0.50422282 -3.4557182e-21)
(-0.077883522 -0.51248048 -3.9001711e-21)
(-0.047371806 -0.42809552 6.7486171e-21)
(-0.0077964498 -0.19962312 -5.4830425e-21)
(-0.01308841 0.085510657 0)
(-0.039023542 0.19200404 7.3169078e-21)
(-0.067542513 0.23629306 -6.2771513e-21)
(-0.076834885 0.23703701 -6.2634834e-21)
(-0.062667403 0.21304921 1.821896e-22)
(-0.026525082 0.17816497 -8.644389e-23)
(0.028042005 0.14157505 3.77358e-21)
(0.097174816 0.10889288 0)
(0.17315201 0.083836393 -1.3213384e-23)
(0.27594281 0.070531125 -7.6049624e-22)
(0.33577208 0.067412043 1.1272966e-21)
(0.317668 0.072188083 -1.765835e-22)
(0.29613076 0.076527135 1.7313196e-22)
(0.2812409 0.079698457 0)
(0.2682167 0.082346134 2.8013272e-21)
(0.25663334 0.084409914 0)
(0.2461771 0.085769688 0)
(0.23637561 0.086247707 0)
(0.22678301 0.08558315 -7.9014975e-22)
(0.21697294 0.083450359 7.5552827e-22)
(0.20652972 0.079477023 0)
(0.1950512 0.07326372 1.5188641e-21)
(0.18217747 0.06441954 -1.5789794e-21)
(0.16765931 0.052591907 4.6547285e-21)
(0.15129699 0.037548111 4.5234033e-21)
(0.13220514 0.019375972 -3.4333397e-23)
(0.1097009 -0.0014536391 2.7139998e-21)
(0.09357263 -0.025395105 -3.1205669e-21)
(0.091986588 -0.054403549 -1.7238474e-21)
(0.094953469 -0.088602706 -1.1481441e-21)
(0.091898677 -0.12659735 4.0459616e-22)
(0.081929702 -0.16957893 -3.9030139e-22)
(0.065104069 -0.21914136 2.9765483e-22)
(0.041196471 -0.27649373 3.8553604e-22)
(0.010617086 -0.34333761 3.733073e-21)
(-0.023667555 -0.4167915 -4.5037575e-21)
(-0.053915004 -0.48536955 6.373493e-21)
(-0.067394978 -0.51921693 8.4081915e-21)
(-0.05112177 -0.4600425 2.6697218e-21)
(-0.010809535 -0.23057768 1.0758736e-20)
(-0.020669784 0.10832585 -7.797175e-21)
(-0.053195337 0.21939568 -1.659802e-20)
(-0.077274403 0.24943871 -1.1726473e-22)
(-0.070829157 0.23321132 7.8274029e-21)
(-0.035305675 0.19675182 -2.1480185e-23)
(0.022231833 0.15540083 -8.9500723e-23)
(0.094692118 0.11737102 -7.4404318e-21)
(0.17664242 0.086350254 -2.1238534e-21)
(0.26015091 0.064235334 -9.9348966e-22)
(0.36523145 0.054265546 7.7190426e-22)
(0.42455695 0.049455797 -1.1047688e-21)
(0.40656998 0.052613353 0)
(0.3853232 0.056364333 0)
(0.37024102 0.059142879 0)
(0.35702515 0.061487411 0)
(0.34522817 0.063370996 0)
(0.33460537 0.064697421 0)
(0.32474468 0.065331183 7.4080802e-22)
(0.31524163 0.06506716 5.4900245e-23)
(0.30569827 0.063641521 -2.2883498e-21)
(0.29570921 0.060744289 1.4914149e-21)
(0.28486231 0.056032107 -4.7372941e-21)
(0.27275785 0.049151515 3.0922222e-21)
(0.25907721 0.039762385 1.3838859e-21)
(0.24355815 0.027592514 -3.0099359e-21)
(0.22526443 0.012696681 -5.7125267e-21)
(0.20329036 -0.0042080898 5.450181e-21)
(0.18869013 -0.02320795 0)
(0.18889445 -0.045933648 3.1794463e-21)
(0.19233669 -0.072924388 -1.0764664e-21)
(0.18927137 -0.10316747 2.3273593e-21)
(0.17821722 -0.13779027 1.5233757e-22)
(0.15889295 -0.1786719 -6.8284463e-22)
(0.13026543 -0.22818162 -8.4703818e-22)
(0.091560301 -0.28932788 -2.8993824e-21)
(0.043826569 -0.36295126 2.9951431e-21)
(-0.0072073883 -0.44303425 -4.8461344e-21)
(-0.046472522 -0.50365289 -7.1658638e-21)
(-0.053208702 -0.4817 -1.1725196e-20)
(-0.015130359 -0.26746988 -1.0867209e-20)
(-0.032246926 0.14351601 7.8568542e-21)
(-0.068974476 0.24854577 9.2391698e-21)
(-0.07455205 0.25280223 -5.0512057e-21)
(-0.037862555 0.21570902 -3.5528294e-21)
(0.028109275 0.16825482 -3.0818763e-21)
(0.11002364 0.12402131 2.1741734e-21)
(0.19861715 0.08826243 3.6298701e-21)
(0.28876428 0.061813805 3.0596567e-21)
(0.37392256 0.044337499 1.0557252e-21)
(0.47454861 0.03825549 -5.2733594e-22)
(0.53006928 0.032316905 -4.1424969e-22)
(0.51365385 0.033827555 1.1357856e-21)
(0.4941035 0.036808677 0)
(0.47997061 0.038980889 0)
(0.4675795 0.040802219 0)
(0.45645591 0.042290273 1.8140899e-21)
(0.44640891 0.043372022 -6.1438526e-22)
(0.43709073 0.043952167 -1.2954366e-21)
(0.42814715 0.043882506 -7.2473695e-22)
(0.4192223 0.042966465 6.9248598e-22)
(0.40994145 0.040967734 -1.508005e-21)
(0.39990757 0.037617179 1.4432833e-21)
(0.38870969 0.032625412 0)
(0.37597467 0.025695011 -4.4244194e-21)
(0.36139092 0.016537596 1.3919882e-21)
(0.34406152 0.0051081799 -3.8333658e-21)
(0.32265994 -0.0077427276 4.7022963e-21)
(0.30888563 -0.021434867 -2.1375787e-21)
(0.3094206 -0.037219315 0)
(0.31197785 -0.056295242 5.8285591e-22)
(0.30799855 -0.077887858 -6.3914508e-22)
(0.29556663 -0.10287353 5.490985e-23)
(0.27404844 -0.13304175 1.0169663e-21)
(0.24180992 -0.1710963 -1.9352676e-21)
(0.1967511 -0.22113098 -7.6493715e-22)
(0.13763072 -0.28783294 0)
(0.066979442 -0.37201316 -5.5230375e-21)
(-0.0035587915 -0.45676648 7.3848632e-21)
(-0.047476693 -0.48326035 9.4587798e-21)
(-0.018937828 -0.3113395 0)
(-0.044828986 0.19962703 0)
(-0.072972596 0.26984106 7.4299931e-21)
(-0.030093361 0.23153414 5.0657302e-21)
(0.055029704 0.17471104 1.1149177e-22)
(0.15528152 0.12353914 3.0636133e-21)
(0.25664294 0.083731587 -3.1448696e-22)
(0.35229774 0.055580432 6.8219096e-23)
(0.4403597 0.036874217 -9.8293184e-22)
(0.51758892 0.025342868 1.4799602e-22)
(0.60445776 0.0231075 1.1306479e-21)
(0.65186356 0.017228538 4.125679e-22)
(0.63856679 0.017513402 -1.1391852e-21)
(0.62238313 0.019620786 0)
(0.61070569 0.021020017 0)
(0.60054267 0.022150801 0)
(0.59138981 0.023081228 -1.1718671e-21)
(0.58309396 0.023759668 0)
(0.57537308 0.024127565 1.2952803e-21)
(0.56792799 0.024093203 0)
(0.56045232 0.023530252 9.5094303e-23)
(0.55261489 0.022283507 -1.3354359e-21)
(0.54405319 0.020171879 -1.4165947e-21)
(0.53437378 0.016992929 1.3571494e-21)
(0.52317789 0.012526996 4.5861084e-23)
(0.51011331 0.0065223859 -1.2830134e-21)
(0.49443164 -0.0011935613 1.249445e-21)
(0.47434604 -0.0098890387 -2.8421935e-21)
(0.46094397 -0.018211091 1.6338363e-21)
(0.45998277 -0.026862053 0)
(0.45992364 -0.037845788 5.9951328e-23)
(0.4540233 -0.05059986 -3.7046595e-22)
(0.44015292 -0.065525913 -8.990474e-22)
(0.41742157 -0.083929852 2.2131376e-21)
(0.38386762 -0.10807305 -5.3319989e-21)
(0.33629658 -0.14199155 7.0700164e-21)
(0.27085687 -0.19238339 -5.0580206e-21)
(0.18526368 -0.2673304 1.168414e-20)
(0.082469796 -0.36584339 -1.2133422e-20)
(-0.015577369 -0.44740591 -3.2123612e-21)
(-0.012463636 -0.35422386 -8.3964045e-21)
(-0.024594104 0.26631495 0)
(-0.005180092 0.25391806 -2.9082561e-21)
(0.12795027 0.16801581 0)
(0.26615759 0.10611671 -4.1068166e-21)
(0.38471774 0.064978241 7.0628125e-23)
(0.48401661 0.039766229 -2.1032975e-21)
(0.56633368 0.024397884 0)
(0.63526716 0.01526196 -1.3720346e-22)
(0.69155371 0.0099497598 -1.1695626e-22)
(0.75329762 0.010308117 -6.0203847e-22)
(0.7872152 0.006052111 0)
(0.77825548 0.0058369024 2.5518625e-22)
(0.7671627 0.0070358748 -2.3978482e-22)
(0.75953566 0.0076432057 0)
(0.7530549 0.0080743217 0)
(0.74723404 0.0084234796 0)
(0.74196448 0.0086588251 0)
(0.73704335 0.0087537206 5.974111e-22)
(0.73224213 0.0086690242 -1.1974141e-21)
(0.72732045 0.0083474732 1.8983337e-21)
(0.72201126 0.0077168995 1.3181509e-21)
(0.71601309 0.0066913779 -1.2615484e-21)
(0.70898733 0.0051712396 0)
(0.70056252 0.0030430443 1.2882849e-21)
(0.69037188 0.00016056134 0)
(0.67790792 -0.003683698 1.9633937e-21)
(0.661272 -0.0081521263 -9.2062687e-22)
(0.64886049 -0.011578942 1.7752722e-22)
(0.64514716 -0.014205211 3.5054609e-22)
(0.64161943 -0.018188526 -1.1616072e-22)
(0.63389287 -0.023207076 -2.2185196e-22)
(0.62003321 -0.029190841 3.6530468e-22)
(0.59909036 -0.036739725 -6.9616282e-22)
(0.56922364 -0.047094783 -1.8653263e-21)
(0.52696291 -0.062774167 1.3768025e-21)
(0.46665715 -0.089174791 2.4396798e-21)
(0.38008095 -0.13712549 -1.5519912e-21)
(0.25397243 -0.22191458 4.7193785e-21)
(0.091926812 -0.33811533 -2.2967953e-21)
(0.046004916 -0.34635488 8.47285e-21)
(0.27158045 0.15189939 0)
(0.37443149 0.12224766 -4.1713653e-21)
(0.5498348 0.068076796 -1.065934e-22)
(0.67439547 0.035679755 1.7362706e-22)
(0.75256411 0.017731668 -6.551407e-23)
(0.80508516 0.0093204852 0)
(0.84207127 0.0051428525 0)
(0.87029099 0.0029929953 1.2201741e-22)
(0.89179177 0.001818676 -5.4144433e-24)
(0.91619078 0.0023637825 0)
(0.93007783 0.00082273714 0)
(0.92633376 0.00070939987 -3.518969e-22)