/*--------------------------------*- C++ -*----------------------------------*\
| =========                 |                                                 |
| \\      /  F ield         | OpenFOAM: The Open Source CFD Toolbox           |
|  \\    /   O peration     | Version:  2112                                  |
|   \\  /    A nd           | Website:  www.openfoam.com                      |
|    \\/     M anipulation  |                                                 |
\*---------------------------------------------------------------------------*/
FoamFile
{
    version     2.0;
    format      ascii;
    arch        "LSB;label=32;scalar=64";
    class       volScalarField;
    location    "65";
    object      epsilon;
}
// * * * * * * * * * * * * * * * * * * * * * * * * * * * * * * * * * * * * * //

dimensions      [0 2 -3 0 0 0 0];

internalField   nonuniform List<scalar> 
10000
(
0.281068
0.284249
0.283917
0.28389
0.283636
0.28356
0.283909
0.284092
0.284647
0.280891
0.0854294
0.0873045
0.085331
0.0854525
0.0885597
0.0890428
0.0863105
0.0861635
0.0872758
0.0835533
0.0734078
0.0690343
0.0687959
0.0690258
0.0710047
0.0770977
0.0695816
0.0697321
0.0701659
0.0679506
0.0671604
0.069119
0.0690343
0.06913
0.0693023
0.0696947
0.0694127
0.0695291
0.0696087
0.0667141
0.0669754
0.0725538
0.0698142
0.0694006
0.0694383
0.0695049
0.0695443
0.0696896
0.0697709
0.066733
0.0669717
0.0750805
0.0695726
0.0694833
0.0695013
0.0695289
0.0695539
0.069612
0.0695695
0.0665869
0.0668851
0.0699279
0.0695378
0.069528
0.0695374
0.0695478
0.0695565
0.0695558
0.0695071
0.0665616
0.0668832
0.0697397
0.0695718
0.0695663
0.0695703
0.0695731
0.0695721
0.0695627
0.0695099
0.0665566
0.0668886
0.0697595
0.0696052
0.0695994
0.0695984
0.0695984
0.0695935
0.0695812
0.0695269
0.0665586
0.0668915
0.069776
0.0696269
0.0696201
0.0696183
0.0696171
0.06961
0.0695982
0.0695432
0.0665613
0.0668897
0.0697807
0.0695831
0.0696183
0.0695756
0.0696172
0.0696152
0.0695558
0.0695436
0.0665557
0.066884
0.0698176
0.0724996
0.0700625
0.0724981
0.0700181
0.0696613
0.0724808
0.0699735
0.068259
0.0668747
0.0698361
0.0747498
0.0697666
0.0747467
0.0696923
0.0696795
0.0747408
0.0696665
0.0692035
0.0668629
0.0697881
0.0726748
0.0700468
0.0726767
0.0700035
0.0696456
0.0726706
0.0699684
0.0683297
0.0668443
0.0697949
0.0747504
0.0697385
0.0747524
0.0696185
0.0695956
0.0747606
0.069654
0.0691944
0.0685129
0.0699357
0.0697291
0.0695587
0.0698141
0.0724631
0.0728159
0.0701327
0.0695476
0.0683403
0.0696786
0.0697672
0.0723888
0.0699481
0.069625
0.0747641
0.0748435
0.0725191
0.0699808
0.0708271
0.0669535
0.0697261
0.0745714
0.0695876
0.0694704
0.0697369
0.0698272
0.0746773
0.0696224
0.0692954
0.0667816
0.069613
0.0725338
0.0699207
0.0723415
0.0698678
0.0695186
0.0726313
0.0698838
0.0683461
0.0684476
0.0726977
0.0750014
0.072433
0.0750122
0.0724779
0.0728589
0.0751917
0.0725491
0.0696437
0.0695608
0.0746219
0.0697879
0.074489
0.0698223
0.0746887
0.0747874
0.0699135
0.0747839
0.0667315
0.0667827
0.069724
0.0694019
0.0696077
0.0694428
0.0696768
0.0697216
0.0695504
0.0697527
0.0665877
0.0666671
0.0694757
0.0693385
0.0693665
0.0693929
0.0694467
0.0694991
0.0695415
0.069561
0.066605
0.0666129
0.0694039
0.0692816
0.0693097
0.0693564
0.0694179
0.0694887
0.0695626
0.0695958
0.0666467
0.0665458
0.0693252
0.0692085
0.0692478
0.0693108
0.0693941
0.0694921
0.0695986
0.0696717
0.0667138
0.0664523
0.0692141
0.0691127
0.0691651
0.0692502
0.0693616
0.0694941
0.0696552
0.0697826
0.066823
0.0663261
0.0690631
0.0689821
0.0690544
0.0691649
0.0693062
0.0694853
0.0697022
0.0699407
0.0669992
0.0661577
0.0688578
0.0688045
0.0689049
0.0690439
0.0692172
0.0694258
0.0697207
0.0701076
0.0673005
0.0659373
0.0685814
0.0685748
0.068716
0.0688943
0.0690873
0.0693124
0.0696149
0.0702129
0.0678351
0.0656646
0.0682391
0.0682983
0.0685073
0.0687391
0.0689585
0.0691473
0.0693428
0.0699469
0.0673271
0.278032
0.912723
0.910064
0.909773
0.909203
0.898513
0.911058
0.909966
0.911517
0.283787
0.114108
0.0952284
0.0898288
0.0900528
0.0925647
0.103239
0.0915424
0.0919996
0.095617
0.0891402
0.0708387
0.0261879
0.0233638
0.0237481
0.0247759
0.0275199
0.0249248
0.0253766
0.028099
0.0699754
0.0692784
0.0196221
0.0160572
0.0162384
0.0167113
0.0173605
0.0171212
0.0174477
0.0202949
0.0682551
0.0695346
0.0208863
0.0167339
0.0164889
0.0166907
0.0168832
0.0169869
0.0173805
0.0207472
0.0679408
0.0696335
0.0220136
0.0173253
0.0167748
0.0167965
0.0168757
0.0170143
0.0175589
0.0213741
0.0678573
0.0696814
0.0220825
0.0174802
0.0167745
0.0166979
0.016729
0.0168914
0.0175625
0.0216872
0.0678329
0.0697205
0.0221899
0.017533
0.016736
0.0166009
0.0166136
0.0167894
0.0175377
0.0218129
0.0678367
0.0697523
0.0222559
0.017577
0.0167388
0.0165586
0.0165652
0.0167474
0.0175303
0.0218769
0.0678495
0.0697705
0.0223122
0.0176161
0.0167594
0.0165628
0.0165665
0.0167393
0.0175331
0.0218949
0.0678531
0.0697777
0.0223544
0.0176561
0.0167769
0.016585
0.0165767
0.0167567
0.0175606
0.0219034
0.0678609
0.0697737
0.0224012
0.0179017
0.0168712
0.0168246
0.0166364
0.0167935
0.0177897
0.0219806
0.0681061
0.06976
0.0224307
0.0180938
0.0169141
0.0170118
0.0166525
0.0168228
0.0179728
0.0219822
0.0679095
0.0697431
0.0224197
0.0180377
0.0169352
0.0169619
0.016676
0.0168239
0.017913
0.0219988
0.0681034
0.0697185
0.0224321
0.0180991
0.0169219
0.0170217
0.0166794
0.0168408
0.0179735
0.021968
0.0679
0.0698834
0.0224733
0.0178254
0.0168729
0.0167518
0.0168685
0.0170665
0.0177339
0.0219387
0.0680868
0.0725543
0.0226815
0.0179806
0.0168884
0.0166721
0.0170237
0.0172316
0.0178545
0.0219424
0.068115
0.074751
0.0228495
0.0181501
0.0168788
0.0166291
0.0167183
0.0169336
0.0179473
0.0219057
0.0678808
0.0698396
0.0225956
0.018084
0.0169256
0.0168214
0.0166533
0.0168129
0.0178606
0.0219293
0.06807
0.0698425
0.0227993
0.0182089
0.0171508
0.0170372
0.0168604
0.017035
0.017953
0.0220888
0.0678781
0.0696011
0.0229331
0.0179496
0.0172362
0.0167743
0.0169672
0.0171235
0.0176543
0.0221343
0.0678196
0.0695567
0.0227207
0.0178225
0.0169274
0.0165887
0.016621
0.0167704
0.0174453
0.0218031
0.0677886
0.0694859
0.0227338
0.0178045
0.0167995
0.0164949
0.0164395
0.0165779
0.0173168
0.0216358
0.0677582
0.0694031
0.0228644
0.0178276
0.0167739
0.0164453
0.0163481
0.0164549
0.0171804
0.0214749
0.0677174
0.0694252
0.0230355
0.0178784
0.016772
0.0163966
0.0162537
0.0163152
0.0169906
0.0212463
0.0676487
0.0692551
0.0232106
0.0179581
0.0167744
0.0163368
0.0161275
0.0161202
0.0167279
0.0208881
0.0675121
0.0690532
0.0233906
0.018059
0.0167875
0.0162632
0.0159515
0.0158511
0.016325
0.0203025
0.0671969
0.0688344
0.023568
0.0181722
0.016814
0.0161741
0.0157219
0.0154495
0.0157029
0.0195241
0.0663515
0.068537
0.0237465
0.0183076
0.0168621
0.0161144
0.0154804
0.0149027
0.0146297
0.0168521
0.0634205
0.0685351
0.0240046
0.0184838
0.016973
0.0161298
0.0153107
0.0143321
0.0129163
0.015818
0.0529609
0.285216
0.910149
0.908419
0.908122
0.908133
0.909479
0.908089
0.908295
0.910309
0.28355
0.0861013
0.0898112
0.0858105
0.0861248
0.0866851
0.0878372
0.0872867
0.0881212
0.0916758
0.0861979
0.0688831
0.0233324
0.0207443
0.021082
0.0214998
0.0220358
0.0221506
0.0226411
0.0252231
0.069587
0.069044
0.016004
0.0121739
0.0122924
0.0126778
0.0129751
0.0131569
0.0135055
0.0167041
0.068058
0.0693558
0.0167394
0.0116237
0.011129
0.0112495
0.0114119
0.0116131
0.0122395
0.0165153
0.0677335
0.0694601
0.0173187
0.0114151
0.0104143
0.0103003
0.0103867
0.0106628
0.0116634
0.0169059
0.0676458
0.0695145
0.0174799
0.0111812
0.00989793
0.00963948
0.00968348
0.0100183
0.0112585
0.0170849
0.0676395
0.0695583
0.0175473
0.0110517
0.00962187
0.00928087
0.00930135
0.00967021
0.0110372
0.0171558
0.0676526
0.0695928
0.0175888
0.0110051
0.00950432
0.00911746
0.00912464
0.00950978
0.0109376
0.0171858
0.0676609
0.0696155
0.0176209
0.0110046
0.00946927
0.0090611
0.00905817
0.00944811
0.0109018
0.0171969
0.0676794
0.0696246
0.0176527
0.0110185
0.0094749
0.00906041
0.00904376
0.00944044
0.0109024
0.0172092
0.0676897
0.0696219
0.0176758
0.0110577
0.00949128
0.0090852
0.00905421
0.00944063
0.0109289
0.0172288
0.067696
0.0696109
0.0176885
0.0110877
0.00950772
0.00910429
0.00905534
0.00944958
0.0109527
0.017236
0.0676929
0.0695955
0.0177024
0.0110985
0.00951833
0.00911124
0.00906414
0.00945845
0.010956
0.0172342
0.0676914
0.0695771
0.0177215
0.0111093
0.0095211
0.00911823
0.00907521
0.00946245
0.0109577
0.0172272
0.067684
0.0695514
0.0177432
0.0110968
0.00951992
0.00909962
0.00909196
0.00948098
0.0109329
0.0172081
0.0676728
0.0699224
0.0177961
0.0111149
0.00951404
0.0090793
0.00909843
0.00949286
0.0109334
0.0171906
0.0676718
0.0695915
0.0178175
0.0111363
0.00951676
0.00906299
0.00906819
0.00946094
0.0109264
0.0171784
0.0676629
0.0694867
0.0178079
0.0111426
0.00952389
0.00908016
0.00904095
0.00942128
0.0108996
0.0171582
0.0676566
0.0694538
0.017874
0.0111743
0.00955926
0.00910567
0.00906089
0.00943055
0.0108834
0.0171453
0.0676437
0.0694183
0.0179485
0.0111794
0.00956508
0.00908324
0.00905453
0.00941308
0.0108225
0.0170931
0.0676273
0.0693873
0.0180133
0.0111882
0.00954234
0.00903704
0.00898683
0.00933661
0.0107363
0.0170034
0.0676058
0.0693337
0.0181232
0.0112183
0.0095228
0.00899938
0.00891788
0.0092424
0.0106335
0.0168835
0.0675651
0.0692725
0.0182802
0.0112798
0.00953508
0.0089719
0.00885435
0.00914616
0.0105019
0.0167147
0.0675247
0.0692168
0.0184858
0.0113702
0.0095544
0.0089468
0.00878281
0.00902764
0.0103243
0.0164762
0.0674496
0.0690904
0.0187299
0.0114918
0.00959457
0.00892024
0.0086938
0.00887085
0.0100716
0.0160992
0.0672857
0.0689395
0.0190023
0.0116436
0.00965426
0.00889718
0.00857989
0.00865991
0.00969888
0.0154873
0.0669381
0.0687308
0.0192823
0.0118229
0.00973964
0.00888719
0.00844514
0.00836925
0.00915489
0.0145355
0.0660112
0.0684456
0.019545
0.0120267
0.00986113
0.00891599
0.00832326
0.00799431
0.00834786
0.0124309
0.0628747
0.0681287
0.0197789
0.0122568
0.0100433
0.00902062
0.0083119
0.0076632
0.00736948
0.0101539
0.0509607
0.283802
0.909603
0.908106
0.907678
0.907633
0.907652
0.907654
0.908071
0.909946
0.283332
0.0857182
0.0900726
0.086069
0.0861949
0.0865071
0.0868183
0.0871637
0.0879265
0.091467
0.0861536
0.0690149
0.0237912
0.0210747
0.0213976
0.0217583
0.0220453
0.0223441
0.0227178
0.0254234
0.0696807
0.0691098
0.0162447
0.0122978
0.0123938
0.0127206
0.012969
0.013174
0.0134849
0.016795
0.068137
0.0695115
0.0165429
0.0111455
0.0105106
0.0105607
0.0107127
0.0109608
0.0117105
0.0162415
0.0677845
0.0695279
0.0167979
0.0104243
0.00918946
0.0089793
0.00906363
0.00942659
0.0106643
0.0163754
0.0676744
0.0695056
0.0167857
0.00990311
0.00833757
0.0079665
0.00801022
0.00845107
0.00997675
0.0163873
0.0676406
0.0695449
0.0167589
0.00962698
0.00789331
0.00743291
0.00745241
0.0079351
0.00960525
0.0163579
0.0676502
0.0695799
0.0167573
0.00950948
0.00769278
0.00718493
0.00718935
0.00769133
0.00943145
0.0163451
0.0676647
0.0696045
0.0167791
0.00947347
0.00761909
0.00708736
0.00707915
0.00758906
0.00936064
0.0163434
0.0676696
0.069614
0.0168008
0.00947327
0.00759985
0.00705565
0.00704163
0.00755252
0.00933922
0.0163465
0.0676828
0.0696107
0.0168112
0.00948581
0.00760243
0.00705282
0.00703096
0.00754751
0.00934396
0.0163538
0.0676879
0.0695999
0.0168192
0.00949079
0.0076153
0.0070578
0.00703086
0.00755424
0.00934403
0.0163562
0.0676799
0.0695838
0.0168309
0.0095009
0.00762084
0.00706368
0.00703485
0.00755401
0.00934449
0.0163441
0.0676749
0.0695646
0.0168498
0.00951477
0.00761972
0.00706895
0.00704243
0.00755077
0.00933343
0.0163306
0.0676694
0.0695438
0.0168687
0.00952024
0.00762642
0.00706055
0.00703882
0.00754636
0.00932608
0.016317
0.0676701
0.0695245
0.0168837
0.00952312
0.00763012
0.00706464
0.00704387
0.0075479
0.00931624
0.0163088
0.0676657
0.0694951
0.0169079
0.00953282
0.00762545
0.00704402
0.00701929
0.00752383
0.00930209
0.0162951
0.0676582
0.0694678
0.0169414
0.00954454
0.00762197
0.00704327
0.00700958
0.00750241
0.00927734
0.0162689
0.0676504
0.0694395
0.0169953
0.00956636
0.0076362
0.00705011
0.0070084
0.00748709
0.00925079
0.0162345
0.0676391
0.0694064
0.0170695
0.00959323
0.00764437
0.00704251
0.00699421
0.00746441
0.00920718
0.0161805
0.0676248
0.0694089
0.0171924
0.00963614
0.00765006
0.00702373
0.00695722
0.00741537
0.00914281
0.0161013
0.0675945
0.0693949
0.0173476
0.00969537
0.00766088
0.00702167
0.00692591
0.00735274
0.00905439
0.0159843
0.0675691
0.0692689
0.0174918
0.00976871
0.00768535
0.00700946
0.00687364
0.00727205
0.00893376
0.0158262
0.0675246
0.0692261
0.0177204
0.00987557
0.00772285
0.00698717
0.00681591
0.00716868
0.00876635
0.0155839
0.0674472
0.0691461
0.0179968
0.0100172
0.00778201
0.00698143
0.00674884
0.00703346
0.00852886
0.015215
0.0672985
0.068969
0.0182834
0.0101893
0.00786419
0.00698809
0.00666988
0.00685541
0.00818327
0.0146152
0.0669391
0.0687825
0.0185967
0.0103933
0.00797545
0.00701394
0.00658063
0.00662644
0.00768043
0.013576
0.0660402
0.0684468
0.0188457
0.0106121
0.00812475
0.00707495
0.00652641
0.00635227
0.00704053
0.0122772
0.0629335
0.0680738
0.0190545
0.0108545
0.00833921
0.00723432
0.00658704
0.00612637
0.00611477
0.00819899
0.0511964
0.276788
0.900219
0.909621
0.897107
0.898501
0.898547
0.898688
0.909099
0.900287
0.276978
0.10952
0.103263
0.0873729
0.0971393
0.0978415
0.0980637
0.0981702
0.0888131
0.104452
0.10947
0.0706282
0.0268388
0.0217399
0.0238776
0.0242736
0.0245378
0.0247283
0.0232521
0.0281599
0.0711416
0.0692764
0.016959
0.012732
0.0130905
0.0133917
0.0136241
0.0137959
0.0138204
0.017414
0.0683189
0.0694845
0.0166855
0.0112588
0.0106143
0.0106319
0.0107754
0.0110317
0.011801
0.0164038
0.0678539
0.0694785
0.016777
0.0103005
0.00898698
0.00873281
0.00881272
0.00920988
0.0105399
0.0163685
0.0677059
0.0695145
0.0166888
0.00963849
0.00796707
0.00754629
0.00758718
0.00807266
0.00971146
0.0162879
0.0676657
0.0695454
0.0166078
0.00928359
0.00743342
0.0069211
0.00693794
0.00746822
0.0092589
0.0162117
0.067661
0.0696191
0.0166116
0.00913134
0.00718762
0.00662586
0.00662599
0.00717663
0.00903963
0.0161671
0.0676675
0.0696807
0.0166384
0.0090789
0.00709072
0.00650041
0.00648986
0.00704804
0.00894434
0.01615
0.0676838
0.0696146
0.0166179
0.0090606
0.00705782
0.00645744
0.0064392
0.00700102
0.00891369
0.0161518
0.0676853
0.0696081
0.0166099
0.00906455
0.00705571
0.00645795
0.00642443
0.00699704
0.00891143
0.0161501
0.067686
0.0695995
0.0166221
0.00906672
0.00706551
0.00645379
0.00641777
0.00699127
0.00890664
0.0161473
0.0676853
0.0695835
0.0166288
0.00906773
0.00706519
0.00644657
0.00641932
0.00698335
0.00889362
0.0161336
0.0676742
0.0696069
0.0166699
0.00908431
0.00707064
0.00645389
0.00642607
0.00698207
0.0088847
0.0161162
0.0676747
0.0696569
0.0167347
0.00910605
0.007072
0.00645276
0.00642137
0.00697691
0.00888118
0.0161065
0.0676709
0.0696015
0.0167419
0.00910801
0.0070787
0.00645263
0.0064234
0.00697565
0.00886964
0.0160946
0.0676642
0.0695037
0.0167209
0.00911114
0.00707631
0.00643506
0.00640132
0.00695537
0.0088513
0.0160792
0.0676579
0.0694764
0.0167485
0.0091241
0.00707456
0.00643337
0.00639103
0.00693308
0.00882709
0.0160506
0.0676418
0.0694509
0.0167999
0.00913986
0.00707695
0.00643471
0.00639039
0.00691414
0.00879666
0.0160083
0.0676367
0.0693756
0.0168846
0.00916675
0.00707864
0.00642425
0.00637621
0.00688492
0.0087547
0.0159582
0.0676234
0.0720976
0.0172111
0.00923714
0.00709605
0.00642719
0.00634382
0.00684413
0.00869567
0.0158803
0.0676011
0.0741858
0.0175225
0.00931778
0.0071192
0.00641683
0.00631629
0.00679148
0.00861345
0.0157698
0.0675704
0.0694345
0.017423
0.0093768
0.00714993
0.00641844
0.00627648
0.00671651
0.00849594
0.0156076
0.067523
0.0716946
0.0177496
0.00949733
0.00719454
0.00640111
0.00622269
0.0066184
0.00833096
0.0153606
0.0674462
0.0734369
0.0181756
0.00965894
0.0072634
0.00640696
0.00616588
0.00649072
0.00809757
0.0149901
0.067282
0.071267
0.0183795
0.00983637
0.0073546
0.0064266
0.00609643
0.00632343
0.00775843
0.014374
0.0669319
0.0724677
0.0187545
0.0100498
0.00747474
0.00645487
0.00602685
0.00611519
0.00727952
0.013369
0.0660356
0.0685616
0.0187501
0.010252
0.00763392
0.00653774
0.00599732
0.00587368
0.00665467
0.0120849
0.0628764
0.0680753
0.01889
0.0104918
0.00786249
0.00671848
0.00608529
0.00570088
0.00580479
0.00807829
0.0518488
0.284921
0.911109
0.908021
0.909073
0.909063
0.909053
0.909078
0.908046
0.9115
0.284502
0.0860175
0.0911112
0.086826
0.0871643
0.0873551
0.0875641
0.0878422
0.0882277
0.0920834
0.0861058
0.0692956
0.0245381
0.0217772
0.0220343
0.0223031
0.0225737
0.0228674
0.0232477
0.0259931
0.0699417
0.0692656
0.0168519
0.0128995
0.0129069
0.0131701
0.0134103
0.0136265
0.0139901
0.0172952
0.0683657
0.0694473
0.0168073
0.0113857
0.0106704
0.0106649
0.010809
0.0110861
0.0119318
0.0165337
0.0679331
0.0694871
0.0168551
0.0103736
0.00904131
0.00877692
0.00885596
0.00926205
0.0106186
0.0164676
0.0677581
0.0695315
0.0167303
0.00967836
0.00800027
0.00757442
0.00761409
0.00810328
0.00975457
0.0163448
0.067683
0.0694994
0.0166498
0.0093072
0.00744979
0.00693337
0.0069483
0.0074801
0.00927683
0.0162314
0.0676689
0.0724678
0.0168392
0.00916277
0.00719425
0.00662508
0.0066236
0.00717511
0.0090426
0.0161725
0.067671
0.0748166
0.0169902
0.00911421
0.0070883
0.00649082
0.00647831
0.00703751
0.00893812
0.016148
0.0676766
0.0698214
0.0167112
0.00906849
0.0070491
0.00644244
0.00642156
0.00698475
0.00890009
0.0161405
0.0676819
0.0696089
0.0166233
0.00905301
0.00704856
0.00642778
0.00640383
0.00696946
0.0088947
0.0161395
0.0676834
0.0695908
0.016616
0.00905295
0.00704509
0.00641984
0.00639622
0.00696355
0.00888789
0.0161334
0.0676829
0.0695249
0.0166318
0.00906281
0.00703994
0.00642353
0.00639856
0.00696479
0.00887525
0.0161222
0.0676787
0.072444
0.016866
0.00909525
0.00705628
0.00643614
0.00640476
0.00696087
0.00886825
0.0161115
0.0676816
0.0773262
0.0172948
0.00914811
0.00706603
0.00643608
0.006399
0.00695575
0.00886528
0.0161044
0.0676709
0.074913
0.0171883
0.00914857
0.00706889
0.00642427
0.00639917
0.00695301
0.00885584
0.0160873
0.067663
0.0697165
0.0168183
0.00912531
0.00706392
0.00641665
0.00637909
0.00693054
0.00883295
0.0160674
0.0676566
0.0694745
0.0167601
0.00911421
0.00705931
0.00641339
0.00636824
0.00690879
0.00880755
0.0160396
0.0676479
0.0694953
0.0168218
0.00913591
0.0070643
0.00641665
0.00635959
0.00688868
0.00877778
0.0160025
0.0676385
0.069483
0.0169189
0.00916607
0.00707402
0.00641522
0.00634521
0.00686018
0.0087365
0.015949
0.0676154
0.0697509
0.0170451
0.00921327
0.00708661
0.00640933
0.00632043
0.00682219
0.0086777
0.0158646
0.0675916
0.069408
0.0171677
0.00927378
0.00710281
0.00639996
0.00629537
0.00677078
0.00859536
0.0157511
0.067559
0.0692705
0.0173061
0.00934968
0.00713365
0.00639907
0.00625711
0.00669649
0.00847726
0.0155856
0.0675104
0.0695356
0.0175597
0.00946395
0.00717791
0.00638392
0.00620354
0.00659743
0.00831098
0.0153354
0.0674295
0.0691531
0.0178282
0.00961276
0.00724538
0.00639442
0.00614401
0.00646906
0.00807668
0.014962
0.0672885
0.0692407
0.0181386
0.00979428
0.00733527
0.00639945
0.00607486
0.00630204
0.00774182
0.0143687
0.0669489
0.0687859
0.0184349
0.0100046
0.00745637
0.0064362
0.00600466
0.00609331
0.00726783
0.0134266
0.0660307
0.068445
0.018679
0.0102321
0.00761945
0.00651842
0.00597562
0.00584741
0.0065983
0.0116691
0.062907
0.0680679
0.0188853
0.0104843
0.00785151
0.00670237
0.00606456
0.00568648
0.0058555
0.00911042
0.0512022
0.283969
0.90963
0.907982
0.907777
0.907722
0.907725
0.907778
0.90805
0.910134
0.283547
0.0857729
0.0911289
0.0872399
0.0871793
0.0873617
0.0875492
0.0878229
0.0885305
0.0918439
0.0857375
0.0694359
0.0248175
0.0221399
0.0222769
0.0225486
0.0228083
0.023115
0.0235857
0.0262571
0.0700989
0.0693786
0.0171297
0.0131503
0.0131016
0.0133565
0.013598
0.0138258
0.014243
0.0175813
0.0684966
0.0695142
0.0170006
0.0116016
0.0109012
0.0109125
0.0110617
0.0113353
0.0121624
0.0167268
0.0680041
0.0695213
0.0170215
0.0106511
0.00939215
0.00916233
0.00924485
0.00962384
0.010907
0.016633
0.067792
0.0695284
0.0168987
0.0100115
0.00843386
0.00805197
0.00809373
0.00854337
0.0100962
0.016514
0.0676995
0.0695394
0.0168165
0.00967194
0.00792779
0.00745874
0.00747499
0.00796202
0.00964921
0.0164061
0.0676719
0.0699773
0.0168307
0.00952603
0.00769122
0.00717251
0.00717226
0.00767761
0.00943119
0.0163527
0.0676694
0.0696771
0.0168334
0.00947112
0.00759229
0.00704712
0.00703668
0.00754956
0.00933429
0.0163297
0.0676658
0.0696065
0.0168073
0.0094485
0.00755754
0.00700126
0.00698585
0.00750188
0.00929873
0.0163175
0.0676683
0.0695971
0.0167952
0.00944295
0.00754987
0.00698884
0.0069792
0.00749395
0.00929186
0.0163135
0.0676699
0.0695871
0.0167912
0.00944818
0.00754675
0.00698415
0.0069708
0.00748563
0.00928329
0.0163083
0.067669
0.0695669
0.0167998
0.00944892
0.00754982
0.00698555
0.00696285
0.00747659
0.00927464
0.0163011
0.0676658
0.0699494
0.0168592
0.00946362
0.00756071
0.00699493
0.00696904
0.007479
0.00927375
0.016293
0.0676685
0.070009
0.0169429
0.00948782
0.00756246
0.00699395
0.00696823
0.00747686
0.0092686
0.0162848
0.0676653
0.0696143
0.0169288
0.0094937
0.00757147
0.00699267
0.00696274
0.00746651
0.00925194
0.0162699
0.0676524
0.0695057
0.0169075
0.00949193
0.00757178
0.00698706
0.0069493
0.00744208
0.00923027
0.0162463
0.0676443
0.0694287
0.0169298
0.00950283
0.00757018
0.00697449
0.00693075
0.00742447
0.00920761
0.0162203
0.0676433
0.0722514
0.0172048
0.00954682
0.00757245
0.00697751
0.006928
0.00740632
0.00918089
0.0161915
0.0676422
0.0744271
0.0174527
0.00959552
0.00758748
0.00697397
0.00691316
0.00738054
0.00914153
0.0161444
0.0676216
0.0695939
0.0172676
0.009613
0.00759249
0.0069681
0.00688327
0.00733904
0.00908205
0.0160629
0.0675978
0.0693486
0.017309
0.0096563
0.00761045
0.00696115
0.00685372
0.00728268
0.00899719
0.015949
0.0675662
0.0692786
0.0174507
0.00972704
0.00763487
0.00694336
0.00680428
0.00720441
0.00887709
0.0157813
0.0675078
0.0692048
0.0176745
0.00983285
0.00767297
0.00692593
0.00674764
0.00710058
0.00870545
0.0155213
0.0674238
0.0690927
0.017941
0.00997291
0.00773185
0.00692167
0.00668165
0.00696429
0.0084644
0.0151409
0.0672802
0.0689438
0.0182354
0.010146
0.00781472
0.0069298
0.00659866
0.00678355
0.00811941
0.0145537
0.0669388
0.0687288
0.0185388
0.0103497
0.00792533
0.00694769
0.00651019
0.00655266
0.00762064
0.0135464
0.06598
0.0684405
0.0188186
0.0105785
0.00807856
0.00701411
0.00645412
0.00627258
0.00695198
0.0121455
0.0627799
0.0680667
0.0190477
0.0108308
0.0082991
0.00717714
0.00651482
0.00605507
0.00604837
0.00792607
0.0510292
0.284086
0.908436
0.908234
0.908057
0.907971
0.90798
0.908078
0.908393
0.910467
0.2837
0.0861357
0.0917125
0.088084
0.0879867
0.0881286
0.0882907
0.0885508
0.0892073
0.0924956
0.0859687
0.0696873
0.0253255
0.0226246
0.0227335
0.022998
0.0232646
0.0235917
0.024093
0.026864
0.0704692
0.0695414
0.0174751
0.013497
0.0134543
0.0137366
0.0139977
0.0142453
0.0146525
0.0179338
0.0686632
0.0696406
0.0174073
0.0122277
0.0116658
0.0117468
0.0119157
0.0121566
0.0128375
0.0170835
0.0680617
0.0695723
0.0175891
0.0116519
0.0106295
0.0105019
0.0105976
0.0108979
0.0119366
0.0171479
0.0678103
0.0696002
0.0176037
0.0112514
0.00995336
0.00968767
0.009739
0.0100872
0.0113563
0.0171665
0.0677034
0.0696132
0.0175821
0.0110335
0.00959038
0.00924194
0.00926515
0.0096415
0.0110286
0.0171361
0.0676675
0.0695557
0.0175573
0.0109381
0.00942283
0.00902709
0.00903234
0.00942473
0.0108691
0.0171212
0.0676641
0.0696097
0.0175826
0.0109093
0.00935593
0.00893551
0.00893107
0.00933016
0.0108011
0.0171205
0.0676624
0.0696512
0.0176074
0.0109053
0.00933645
0.00890538
0.00889655
0.00929559
0.0107748
0.0171142
0.0676585
0.0695774
0.0175838
0.0109065
0.00933989
0.00890048
0.00889356
0.00928541
0.0107662
0.0171063
0.0676592
0.0695671
0.0175839
0.0109136
0.00934113
0.00890152
0.00888848
0.00928214
0.0107608
0.0171036
0.0676659
0.0695525
0.0175885
0.0109168
0.00934169
0.00890527
0.00888183
0.00927679
0.0107583
0.0171043
0.0676658
0.0695854
0.0176221
0.0109254
0.00934448
0.00890403
0.0088837
0.00927376
0.0107544
0.0170961
0.0676553
0.0696375
0.0176867
0.0109385
0.00934238
0.00889696
0.00887932
0.00926874
0.010749
0.0170813
0.0676493
0.0695783
0.0176868
0.0109458
0.00934719
0.00890094
0.00887106
0.00926136
0.0107341
0.0170625
0.0676508
0.0694818
0.0176736
0.0109489
0.00935261
0.00889586
0.00886332
0.00924179
0.0107185
0.0170506
0.0676472
0.0694487
0.0176917
0.0109584
0.00935199
0.00888196
0.00884584
0.00922477
0.0106982
0.0170304
0.0676402
0.0698594
0.0178095
0.0109873
0.00935654
0.00887609
0.00883486
0.00920626
0.0106696
0.0169985
0.0676315
0.0695613
0.0179125
0.0110252
0.00935929
0.00886877
0.00881291
0.00917451
0.0106288
0.0169454
0.0676082
0.0693798
0.0179441
0.0110531
0.00936601
0.00885997
0.00878425
0.00913039
0.0105675
0.0168641
0.0675922
0.0693259
0.0180344
0.0110955
0.00937843
0.00884303
0.00874661
0.00906958
0.0104803
0.0167576
0.0675617
0.0692683
0.0181923
0.0111614
0.00939446
0.00881886
0.00869039
0.00898287
0.0103538
0.0165884
0.0675018
0.0691914
0.0183974
0.0112529
0.00941815
0.00879091
0.00861796
0.00886351
0.0101708
0.0163229
0.0674264
0.0690847
0.0186446
0.0113772
0.0094605
0.00876632
0.00852721
0.00870388
0.0099127
0.0159369
0.0672708
0.0689347
0.0189209
0.0115311
0.00952098
0.0087402
0.00840884
0.00848261
0.00952925
0.0153149
0.0669151
0.0687242
0.0192065
0.011714
0.00960515
0.00872882
0.00826871
0.00818372
0.00899217
0.0143796
0.0659766
0.0684373
0.0194845
0.0119266
0.0097304
0.00875385
0.00813927
0.00779402
0.00813828
0.0122066
0.0627496
0.0680653
0.0197206
0.0121677
0.00992286
0.00886697
0.00812924
0.00747712
0.00722206
0.00994831
0.0509468
0.284659
0.911443
0.910265
0.910021
0.908449
0.908451
0.910032
0.910398
0.91208
0.284321
0.0872279
0.0954644
0.0916018
0.091393
0.0912668
0.0913814
0.0918156
0.0924202
0.0955093
0.0868985
0.0700391
0.0279915
0.0251996
0.0253189
0.0255803
0.0258662
0.0262621
0.0268423
0.0295881
0.0711504
0.0731201
0.0207507
0.0167227
0.016733
0.0170267
0.0173106
0.0175929
0.0179351
0.020686
0.068829
0.0756637
0.0211766
0.0165249
0.0161964
0.0163611
0.0165506
0.0167353
0.0170877
0.0202138
0.0680607
0.0697562
0.0214867
0.0169046
0.0163356
0.0163583
0.0164667
0.0166276
0.0171432
0.020802
0.0677793
0.0724447
0.0219634
0.017089
0.0163493
0.0162707
0.0163338
0.016494
0.0171576
0.0211941
0.0676694
0.0747684
0.0221467
0.0171556
0.0163262
0.0161784
0.0162113
0.0163845
0.017131
0.02136
0.0676361
0.0696906
0.0219567
0.0171757
0.0163195
0.0161309
0.0161423
0.0163316
0.0171083
0.0214278
0.067623
0.0724436
0.0221284
0.0172054
0.0163235
0.0161178
0.0161236
0.0163165
0.0171002
0.0214538
0.0676229
0.0747316
0.0222641
0.0172261
0.0163311
0.0161245
0.0161249
0.0163079
0.0170928
0.0214569
0.0676288
0.0697423
0.0220081
0.0172222
0.0163416
0.016136
0.0161324
0.0163044
0.0170924
0.0214591
0.0676322
0.0695271
0.0219507
0.0172303
0.0163517
0.0161444
0.016134
0.0163076
0.0170927
0.0214575
0.0676344
0.069457
0.0219392
0.0172315
0.016355
0.016144
0.0161301
0.0163074
0.0170894
0.0214478
0.0676262
0.0724064
0.0221718
0.0172516
0.0163545
0.0161401
0.0161248
0.0163018
0.0170849
0.0214338
0.0676296
0.0773026
0.0225454
0.0172891
0.0163525
0.01613
0.0161117
0.0162953
0.0170856
0.0214379
0.0676286
0.074861
0.022425
0.0172927
0.0163572
0.0161324
0.0161109
0.0162799
0.0170702
0.0214167
0.0676183
0.0696701
0.0221033
0.0172794
0.0163633
0.0161304
0.0161065
0.0162641
0.0170574
0.0213975
0.0676123
0.0693869
0.0220659
0.0172785
0.0163619
0.0161156
0.0160877
0.0162462
0.017039
0.0213826
0.0676131
0.072233
0.0223094
0.0173041
0.0163623
0.0161069
0.0160629
0.0162272
0.0170077
0.0213596
0.0676062
0.0744203
0.0225014
0.0173448
0.0163612
0.0160917
0.0160339
0.0161911
0.0169711
0.0213166
0.0675911
0.0695474
0.0222939
0.0173461
0.0163497
0.0160643
0.015998
0.016139
0.0169112
0.021252
0.0675774
0.0693073
0.0223114
0.0173638
0.0163469
0.0160376
0.0159527
0.016074
0.016818
0.0211583
0.0675386
0.0692419
0.0224542
0.0174117
0.0163386
0.0159912
0.0158733
0.0159681
0.0166811
0.0209917
0.0674755
0.0691633
0.0226224
0.0174676
0.0163364
0.0159296
0.0157621
0.0158135
0.0164792
0.0207126
0.0673856
0.069056
0.0228231
0.0175604
0.0163445
0.0158595
0.0156228
0.0156051
0.0161922
0.0203167
0.0672274
0.0689043
0.0230288
0.0176654
0.0163579
0.0157748
0.0154273
0.0152834
0.0157221
0.0196266
0.0668562
0.0686918
0.0232156
0.0177869
0.0163779
0.0156867
0.0151686
0.0148324
0.0150712
0.0187379
0.0658743
0.0684033
0.0234384
0.017947
0.0164356
0.0156137
0.0148855
0.0142259
0.0138749
0.0160565
0.0627138
0.068029
0.0236372
0.0181479
0.0165692
0.0156337
0.014703
0.0136217
0.0122648
0.0147663
0.0524876
0.281023
0.283746
0.283422
0.283433
0.283447
0.283475
0.283536
0.283709
0.284327
0.28062
0.081928
0.0871695
0.0861171
0.0858557
0.0857523
0.0857131
0.0857458
0.0859888
0.0869041
0.0813859
0.0671439
0.0697929
0.069562
0.069648
0.0697564
0.0698952
0.0701048
0.0704811
0.0711527
0.0671396
0.0670882
0.0682565
0.0680348
0.0681163
0.0682267
0.0683514
0.0684991
0.0686702
0.0688282
0.0662269
0.066701
0.0679141
0.0677148
0.0677549
0.0678353
0.0679168
0.0679962
0.0680578
0.0680578
0.06602
0.0665719
0.0678222
0.0676291
0.0676503
0.0677022
0.0677554
0.0677819
0.067808
0.0677795
0.0659354
0.0669506
0.0678175
0.0676177
0.0676266
0.0676523
0.0676868
0.0676959
0.0677096
0.0676699
0.0658992
0.066614
0.0678103
0.0676283
0.0676306
0.0676365
0.0676514
0.0676653
0.0676679
0.0676366
0.0658839
0.0682542
0.0680735
0.0676522
0.0676468
0.0676431
0.0676547
0.0676628
0.0676517
0.0676234
0.065877
0.0696084
0.067902
0.0676574
0.0676528
0.0676532
0.0676635
0.0676627
0.0676459
0.067621
0.0658755
0.0667119
0.067856
0.0676643
0.0676599
0.0676673
0.0676691
0.0676591
0.0676502
0.0676275
0.0658758
0.0665543
0.0678532
0.0676749
0.0676705
0.0676725
0.0676721
0.0676668
0.0676539
0.0676314
0.0658758
0.0665426
0.0678513
0.0676768
0.0676721
0.0676712
0.0676704
0.067668
0.0676547
0.0676341
0.0658753
0.0665295
0.0678441
0.0676662
0.0676611
0.0676677
0.0676672
0.0676646
0.067653
0.0676266
0.0658744
0.0686053
0.0680849
0.067663
0.0676538
0.067654
0.0676536
0.0676604
0.0676569
0.0676309
0.0658741
0.0696124
0.0678971
0.0676537
0.067646
0.0676517
0.0676517
0.0676471
0.0676547
0.0676311
0.065874
0.0666845
0.0678378
0.0676518
0.0676443
0.0676448
0.0676515
0.0676386
0.0676495
0.0676221
0.0658744