/*--------------------------------*- C++ -*----------------------------------*\
| =========                 |                                                 |
| \\      /  F ield         | OpenFOAM: The Open Source CFD Toolbox           |
|  \\    /   O peration     | Version:  2112                                  |
|   \\  /    A nd           | Website:  www.openfoam.com                      |
|    \\/     M anipulation  |                                                 |
\*---------------------------------------------------------------------------*/
FoamFile
{
    version     2.0;
    format      ascii;
    arch        "LSB;label=32;scalar=64";
    class       volScalarField;
    location    "65";
    object      k;
}
// * * * * * * * * * * * * * * * * * * * * * * * * * * * * * * * * * * * * * //

dimensions      [0 2 -2 0 0 0 0];

internalField   nonuniform List<scalar> 
10000
(
0.107133
0.107939
0.107856
0.107849
0.107784
0.107765
0.107853
0.1079
0.10804
0.107088
0.0484306
0.0491367
0.0483934
0.0484393
0.0496065
0.0497867
0.048763
0.0487076
0.0491259
0.0477189
0.0437733
0.042017
0.0419202
0.0420135
0.0428127
0.0452282
0.0422388
0.0422996
0.0424749
0.0415761
0.0412531
0.0420513
0.0420169
0.0420558
0.0421256
0.0422845
0.0421704
0.0422175
0.0422497
0.0410702
0.0411773
0.0434331
0.0423328
0.0421654
0.0421807
0.0422077
0.0422236
0.0422824
0.0423153
0.0410779
0.0411758
0.0444358
0.0422351
0.0421989
0.0422062
0.0422174
0.0422275
0.0422511
0.0422338
0.0410179
0.0411403
0.0423788
0.042221
0.0422171
0.0422208
0.0422251
0.0422286
0.0422283
0.0422086
0.0410076
0.0411395
0.0423027
0.0422348
0.0422326
0.0422342
0.0422353
0.0422349
0.0422311
0.0422097
0.0410055
0.0411417
0.0423107
0.0422483
0.0422459
0.0422455
0.0422455
0.0422436
0.0422386
0.0422166
0.0410063
0.0411429
0.0423174
0.0422571
0.0422543
0.0422536
0.0422531
0.0422502
0.0422455
0.0422232
0.0410074
0.0411422
0.0423193
0.0422394
0.0422536
0.0422363
0.0422532
0.0422524
0.0422283
0.0422234
0.0410051
0.0411398
0.0423342
0.0434115
0.0424331
0.0434109
0.0424152
0.042271
0.043404
0.0423972
0.0417018
0.0411361
0.0423417
0.0443052
0.0423136
0.044304
0.0422835
0.0422784
0.0443017
0.0422731
0.0420856
0.0411312
0.0423223
0.0434814
0.0424268
0.0434822
0.0424093
0.0422646
0.0434798
0.0423951
0.0417306
0.0411236
0.042325
0.0443054
0.0423022
0.0443062
0.0422537
0.0422444
0.0443095
0.042268
0.0420819
0.0418051
0.0423819
0.0422984
0.0422295
0.0423328
0.0433969
0.0435377
0.0424615
0.042225
0.0417349
0.042278
0.0423138
0.0433673
0.0423869
0.0422563
0.0443109
0.0443422
0.0434193
0.0424001
0.0427413
0.0411684
0.0422972
0.0442347
0.0422412
0.0421937
0.0423016
0.0423381
0.0442765
0.0422552
0.0421228
0.0410979
0.0422514
0.0434252
0.0423759
0.0433484
0.0423545
0.0422132
0.0434641
0.042361
0.0417372
0.0417785
0.0434906
0.0444045
0.0433849
0.0444088
0.0434028
0.0435548
0.0444796
0.0434313
0.0422639
0.0422303
0.0442547
0.0423222
0.0442021
0.0423361
0.0442811
0.0443201
0.042373
0.0443187
0.0410773
0.0410983
0.0422963
0.042166
0.0422493
0.0421825
0.0422773
0.0422954
0.0422261
0.0423079
0.0410183
0.0410509
0.0421959
0.0421403
0.0421517
0.0421623
0.0421841
0.0422054
0.0422225
0.0422304
0.0410254
0.0410286
0.0421668
0.0421173
0.0421286
0.0421476
0.0421725
0.0422012
0.0422311
0.0422445
0.0410425
0.0410011
0.0421349
0.0420876
0.0421035
0.0421291
0.0421628
0.0422025
0.0422456
0.0422752
0.0410701
0.0409627
0.0420899
0.0420487
0.04207
0.0421045
0.0421497
0.0422033
0.0422685
0.04232
0.0411149
0.0409108
0.0420286
0.0419958
0.0420251
0.0420699
0.0421272
0.0421997
0.0422875
0.0423839
0.0411871
0.0408415
0.0419453
0.0419237
0.0419644
0.0420208
0.0420911
0.0421756
0.042295
0.0424513
0.0413105
0.0407507
0.041833
0.0418303
0.0418877
0.0419601
0.0420385
0.0421297
0.0422522
0.0424938
0.041529
0.0406383
0.0416937
0.0417178
0.0418028
0.0418971
0.0419862
0.0420628
0.042142
0.0423864
0.0413214
0.10636
0.111773
0.111238
0.111184
0.111004
0.108447
0.111453
0.111168
0.111392
0.107823
0.0587388
0.0489601
0.0470651
0.0478143
0.0504265
0.0619597
0.0490789
0.049249
0.0499829
0.0498231
0.0427459
0.0357058
0.0356842
0.0369607
0.0383392
0.0409494
0.0389777
0.0394337
0.0396844
0.042398
0.0421159
0.0346949
0.0347846
0.0357139
0.0364968
0.0372959
0.0372752
0.0373028
0.0368472
0.0417002
0.0422197
0.0359856
0.0354893
0.0360052
0.0364833
0.0368803
0.0369813
0.0368433
0.0364151
0.0415721
0.0422597
0.036735
0.0361209
0.0364035
0.0366798
0.0368792
0.0369218
0.0367738
0.0365774
0.041538
0.0422791
0.0371891
0.0365217
0.0366565
0.0368364
0.0368833
0.0369242
0.0368003
0.0367912
0.0415281
0.0422949
0.0374582
0.0367383
0.0367965
0.0369099
0.0369178
0.0369196
0.0368547
0.0369052
0.0415296
0.0423078
0.0376303
0.0369132
0.0369359
0.0369501
0.0369627
0.0369576
0.0369134
0.0369969
0.0415348
0.0423152
0.0376973
0.037023
0.0370168
0.0370008
0.0370329
0.0369983
0.0369682
0.0370684
0.0415363
0.042318
0.0377806
0.0370325
0.037039
0.0370189
0.0370718
0.0370293
0.0369831
0.0370846
0.0415395
0.0423164
0.0378356
0.0372975
0.0371069
0.037254
0.0370982
0.0370555
0.0372177
0.0371478
0.0416395
0.0423109
0.0378273
0.0371811
0.0371252
0.037122
0.0371074
0.0370628
0.0370855
0.0371664
0.0415593
0.0423041
0.0378396
0.0373442
0.0371407
0.0372817
0.0371147
0.037071
0.037242
0.0371816
0.0416384
0.0422941
0.0378493
0.0372261
0.0371353
0.0371465
0.0370835
0.0370341
0.0371349
0.0371797
0.0415554
0.0423608
0.0378276
0.0371261
0.0371277
0.0370895
0.0372432
0.0372281
0.0370629
0.0371637
0.0416316
0.0434334
0.0380663
0.0373493
0.0371299
0.0370616
0.0371198
0.0371099
0.0372069
0.0371533
0.0416431
0.0443057
0.0379619
0.0372042
0.0370851
0.0370156
0.0370465
0.0370292
0.0370123
0.0370936
0.0415476
0.0423431
0.0378882
0.0373532
0.0370788
0.0371866
0.0369742
0.0369181
0.0371396
0.0370575
0.0416248
0.0423443
0.0380991
0.0372402
0.0372603
0.0370327
0.0371206
0.0370487
0.0369506
0.0372006
0.0415465
0.0422466
0.0380028
0.0371981
0.0371146
0.0369516
0.0369107
0.0368185
0.0367876
0.036978
0.0415226
0.0422287
0.0380619
0.0372193
0.0370436
0.0368673
0.036737
0.0366411
0.036621
0.0368143
0.04151
0.0422
0.0381612
0.037255
0.0369798
0.0367391
0.0365346
0.036425
0.0363826
0.0365691
0.0414976
0.0421665
0.038266
0.0373246
0.0369679
0.0366325
0.0363272
0.0361164
0.036034
0.0362347
0.0414809
0.0421754
0.03853
0.03741
0.0369555
0.036464
0.036015
0.0356598
0.0354716
0.0357532
0.0414528
0.0421065
0.038741
0.0375901
0.0369297
0.0362622
0.0355815
0.034971
0.0347185
0.0349841
0.041397
0.0420246
0.0390641
0.0378415
0.0369836
0.0360192
0.0349632
0.0340241
0.0334454
0.0336657
0.0412681
0.0419358
0.039527
0.0381753
0.037101
0.0357442
0.0341856
0.0326491
0.0313389
0.0312946
0.0409212
0.0418149
0.0400388
0.0386622
0.0373528
0.0356194
0.0333952
0.0308044
0.0280109
0.0269721
0.0397071
0.0418142
0.0409349
0.0393436
0.0378592
0.0357359
0.0327835
0.028706
0.0234144
0.0166267
0.0352115
0.108184
0.111244
0.111111
0.111065
0.111054
0.11134
0.111022
0.111032
0.111245
0.107763
0.0486842
0.0470722
0.0461467
0.0469534
0.0476011
0.0485252
0.0481024
0.0484467
0.0490281
0.0487206
0.0419556
0.0356833
0.0358438
0.0370424
0.0379062
0.0386502
0.0389881
0.0394268
0.0395787
0.0422409
0.0420209
0.0347196
0.034691
0.0355986
0.0362999
0.0368218
0.0370957
0.03713
0.0367065
0.0416199
0.0421473
0.0354307
0.0350283
0.0355682
0.0360351
0.0363651
0.0365002
0.0363799
0.0360043
0.0414875
0.0421895
0.0361104
0.0354701
0.0357481
0.0360295
0.0362134
0.0362706
0.0361415
0.0359349
0.0414516
0.0422116
0.0365489
0.0357846
0.0359161
0.0360758
0.0361731
0.0361882
0.0360947
0.0360386
0.0414491
0.0422293
0.0367716
0.0359986
0.036056
0.0361352
0.0361852
0.0361831
0.0361213
0.036178
0.0414544
0.0422433
0.0368866
0.0361446
0.0361629
0.0361978
0.0362239
0.0362121
0.0361707
0.0362703
0.0414578
0.0422525
0.0369839
0.0362384
0.0362359
0.0362522
0.0362649
0.0362493
0.0362201
0.0363082
0.0414654
0.0422561
0.0370502
0.0363047
0.0362918
0.0362933
0.036298
0.0362821
0.0362605
0.0363839
0.0414696
0.042255
0.0370878
0.0363504
0.0363285
0.0363248
0.0363218
0.0363052
0.0362922
0.0364247
0.0414722
0.0422506
0.0371118
0.0363766
0.0363495
0.0363392
0.036334
0.0363177
0.0363056
0.0364428
0.0414709
0.0422444
0.0371547
0.0363998
0.0363612
0.0363481
0.0363384
0.0363206
0.0363161
0.0364537
0.0414703
0.0422369
0.0371987
0.0364008
0.0363639
0.0363447
0.0363288
0.0363132
0.0363114
0.0364515
0.0414673
0.0422265
0.0371881
0.0364041
0.0363623
0.0363349
0.0363207
0.0363043
0.0362927
0.0364407
0.0414627
0.0423766
0.0371977
0.0364112
0.0363514
0.0363186
0.0362978
0.0362788
0.0362692
0.0363918
0.0414623
0.0422427
0.037206
0.0364067
0.0363422
0.0362948
0.0362634
0.0362364
0.0362329
0.0363883
0.0414586
0.0422003
0.0371918
0.0364152
0.0363287
0.0362656
0.0362168
0.03618
0.0361819
0.0363494
0.0414561
0.042187
0.037245
0.0364234
0.0363138
0.0362236
0.0361549
0.0361049
0.0360999
0.0362825
0.0414508
0.0421726
0.037299
0.036436
0.0362914
0.0361651
0.0360627
0.0359941
0.0359815
0.0361834
0.0414441
0.0421601
0.0373467
0.0364636
0.0362612
0.0360802
0.0359282
0.0358313
0.0358066
0.0360257
0.0414353
0.0421384
0.0374453
0.0365121
0.0362343
0.0359739
0.0357481
0.0355952
0.0355508
0.0357868
0.0414187
0.0421136
0.0375955
0.0365857
0.0362074
0.0358319
0.0354957
0.0352559
0.0351664
0.0354145
0.0414022
0.042091
0.0378095
0.0367112
0.0361829
0.0356479
0.0351451
0.0347581
0.0346031
0.0349263
0.0413715
0.0420397
0.0381172
0.0368971
0.0361839
0.0354221
0.0346662
0.0340438
0.0337388
0.0340871
0.0413044
0.0419785
0.0385161
0.0371616
0.0362271
0.0351537
0.0340166
0.0329908
0.0323568
0.0326369
0.0411621
0.0418937
0.0389946
0.0375477
0.0363535
0.0348924
0.0332029
0.0314734
0.0301438
0.0300483
0.0407812
0.0417778
0.0395874
0.0380944
0.0366406
0.0347316
0.0323066
0.0294428
0.0265758
0.0254771
0.0394789
0.0416487
0.0402928
0.0388325
0.0371819
0.0348642
0.0316379
0.0272445
0.0216115
0.0141992
0.0343193
0.107826
0.111142
0.111065
0.110982
0.110965
0.110956
0.11095
0.111013
0.111185
0.107707
0.0485396
0.0479034
0.0469453
0.0477105
0.048119
0.0484104
0.0486274
0.0488083
0.0493762
0.0487039
0.0420091
0.0369605
0.0370347
0.0380819
0.0388079
0.0393535
0.0398082
0.0402247
0.0404708
0.0422788
0.0420476
0.0357343
0.0355993
0.0363906
0.0370139
0.0374648
0.0377504
0.0378064
0.0374792
0.0416521
0.0422104
0.0361466
0.0355646
0.0360402
0.0364675
0.0367691
0.0369058
0.0368073
0.0364572
0.0415083
0.042217
0.0364258
0.0357398
0.0359931
0.0362527
0.0364323
0.0364864
0.0363745
0.0362205
0.0414633
0.042208
0.0366541
0.0359133
0.0360335
0.0361792
0.0362777
0.0362928
0.0362075
0.0361939
0.0414495
0.0422239
0.0368159
0.0360478
0.0361003
0.0361771
0.0362271
0.0362254
0.0361665
0.0362071
0.0414534
0.0422381
0.0369003
0.0361557
0.036169
0.0362067
0.0362297
0.0362212
0.0361816
0.0362818
0.0414594
0.042248
0.0370051
0.0362386
0.0362279
0.0362442
0.0362526
0.0362418
0.0362142
0.0363348
0.0414614
0.0422518
0.037093
0.0362918
0.0362726
0.0362772
0.0362777
0.0362662
0.0362456
0.0363501
0.0414668
0.0422505
0.0371067
0.0363274
0.0363035
0.0363011
0.0362969
0.0362854
0.03627
0.0364033
0.0414689
0.0422461
0.0371264
0.0363512
0.0363227
0.0363154
0.0363079
0.0362961
0.036284
0.0364235
0.0414656
0.0422396
0.0371479
0.0363651
0.0363328
0.0363212
0.0363104
0.036298
0.0362878
0.0364007
0.0414635
0.0422319
0.0371536
0.0363738
0.0363359
0.0363194
0.0363049
0.0362914
0.0362829
0.0363953
0.0414613
0.0422234
0.0371638
0.0363739
0.0363335
0.0363107
0.0362915
0.036276
0.0362687
0.0363863
0.0414616
0.0422156
0.0371425
0.0363781
0.0363266
0.0362951
0.0362692
0.0362506
0.036245
0.0363996
0.0414598
0.0422037
0.0371726
0.0363815
0.036316
0.0362722
0.0362366
0.036213
0.0362083
0.0363781
0.0414567
0.0421927
0.0371999
0.0363861
0.0363021
0.0362406
0.0361908
0.0361591
0.0361542
0.0363319
0.0414535
0.0421812
0.0372302
0.0363962
0.0362851
0.0361978
0.0361266
0.0360819
0.0360748
0.0362656
0.0414489
0.0421678
0.0372753
0.0364135
0.0362646
0.0361394
0.036036
0.0359703
0.0359577
0.0361627
0.0414431
0.0421688
0.0373473
0.0364446
0.0362402
0.0360596
0.0359074
0.0358082
0.0357843
0.0360046
0.0414307
0.0421631
0.0374529
0.0364938
0.0362131
0.0359521
0.0357262
0.0355729
0.0355278
0.0357424
0.0414203
0.0421121
0.0375999
0.0365735
0.0361859
0.0358096
0.0354729
0.0352331
0.03515
0.0354313
0.0414021
0.0420947
0.0378263
0.0366922
0.0361656
0.0356265
0.0351227
0.0347413
0.034585
0.0349191
0.0413705
0.0420623
0.0380942
0.0368787
0.0361657
0.0353999
0.0346433
0.0340237
0.0337177
0.0340906
0.0413096
0.0419904
0.0384896
0.0371544
0.036209
0.0351366
0.0339991
0.032969
0.0323418
0.0326685
0.0411624
0.0419147
0.0390002
0.0375423
0.0363375
0.0348729
0.0331807
0.0314469
0.0301236
0.0300614
0.0407931
0.0417783
0.039602
0.0380853
0.0366241
0.0347102
0.0322798
0.0294078
0.0265414
0.0256174
0.0395035
0.0416263
0.0402906
0.0388226
0.037169
0.0348436
0.0316134
0.0272171
0.021543
0.0144346
0.034425
0.106042
0.108856
0.111379
0.108406
0.108707
0.108713
0.108748
0.111228
0.108792
0.106091
0.0571536
0.061442
0.0482232
0.0599386
0.0606341
0.0608288
0.0607213
0.0496396
0.0626168
0.0571363
0.0426612
0.0402287
0.0380489
0.0406699
0.0413491
0.0418056
0.0421835
0.0409036
0.0431218
0.0428677
0.0421151
0.0368096
0.0363216
0.0372713
0.0378499
0.0382659
0.0385403
0.038378
0.0383768
0.0417262
0.0421994
0.0365532
0.0360286
0.0365015
0.0369019
0.0371883
0.0373244
0.0372096
0.0369309
0.0415366
0.042197
0.0366721
0.0360152
0.0362544
0.0365001
0.0366732
0.0367284
0.0366223
0.0364581
0.0414762
0.0422116
0.0367971
0.0360597
0.0361763
0.0363155
0.0364114
0.0364275
0.0363469
0.036305
0.0414598
0.0422241
0.0368585
0.0361273
0.0361741
0.036248
0.0362971
0.0362961
0.0362405
0.0363035
0.0414578
0.0422539
0.0369657
0.0361949
0.0362045
0.0362411
0.0362638
0.0362558
0.0362179
0.0363261
0.0414605
0.0422788
0.0370353
0.0362487
0.0362432
0.0362592
0.0362677
0.0362572
0.0362303
0.036356
0.0414672
0.0422521
0.0370467
0.0362918
0.0362779
0.0362826
0.0362832
0.036272
0.0362528
0.0364142
0.0414678
0.0422495
0.0370725
0.0363268
0.0363042
0.036302
0.036298
0.0362866
0.0362715
0.0364158
0.0414681
0.042246
0.037122
0.0363499
0.0363217
0.0363146
0.0363072
0.0362955
0.0362834
0.0364222
0.0414678
0.0422395
0.0371421
0.0363637
0.0363315
0.03632
0.0363094
0.036297
0.036287
0.0364253
0.0414633
0.042249
0.0371549
0.0363731
0.0363351
0.0363186
0.0363042
0.0362905
0.0362818
0.0363968
0.0414635
0.0422692
0.0371656
0.0363745
0.0363334
0.0363106
0.0362914
0.0362756
0.0362688
0.036416
0.0414619
0.0422468
0.0371449
0.0363762
0.0363275
0.036296
0.03627
0.036251
0.0362454
0.0364054
0.0414592
0.0422072
0.0371527
0.0363825
0.0363181
0.0362741
0.0362384
0.0362143
0.0362093
0.0363757
0.0414566
0.0421962
0.0371982
0.0363903
0.0363052
0.0362435
0.0361934
0.0361613
0.036156
0.0363284
0.04145
0.0421858
0.0372408
0.0363972
0.036289
0.0362013
0.0361299
0.0360847
0.0360767
0.0362329
0.0414479
0.0421553
0.037238
0.0364176
0.0362692
0.0361436
0.0360399
0.0359736
0.0359604
0.0361568
0.0414425
0.0432509
0.0375289
0.0364536
0.0362454
0.0360643
0.0359118
0.0358117
0.0357873
0.0360042
0.0414334
0.0440821
0.0375203
0.0365016
0.0362184
0.0359568
0.0357306
0.0355765
0.0355312
0.0357766
0.0414209
0.0421792
0.0376024
0.0365797
0.0361911
0.0358142
0.0354771
0.0352365
0.0351529
0.0354372
0.0414015
0.0430896
0.0380034
0.0367021
0.0361707
0.0356308
0.0351266
0.0347445
0.0345872
0.034917
0.0413701
0.0437849
0.0381404
0.0368829
0.0361701
0.0354037
0.0346467
0.0340261
0.0337189
0.034073
0.0413029
0.0429181
0.0386607
0.0371576
0.0362128
0.0351399
0.0340019
0.0329705
0.0323412
0.0326013
0.0411595
0.0433988
0.0390358
0.037544
0.0363408
0.0348755
0.0331825
0.0314464
0.0301187
0.0300407
0.0407912
0.0418249
0.0395909
0.0380901
0.0366272
0.0347121
0.0322804
0.029405
0.0265294
0.0256218
0.0394796
0.0416269
0.040273
0.0388283
0.0371736
0.0348471
0.031615
0.0272135
0.0215449
0.0143335
0.0347169
0.10811
0.111476
0.111029
0.111291
0.111283
0.111276
0.111273
0.111008
0.111532
0.108004
0.0486526
0.0487952
0.0477787
0.0485105
0.0488112
0.0490065
0.049181
0.0491621
0.0498746
0.0486859
0.0421229
0.0384663
0.0384513
0.0393667
0.0399829
0.0404581
0.0408934
0.0412882
0.0416817
0.0423843
0.0421108
0.0369336
0.036753
0.0374507
0.0379997
0.0384111
0.0386968
0.0387855
0.0385302
0.0417452
0.0421844
0.0367692
0.0363247
0.0367517
0.037138
0.0374209
0.0375637
0.0374972
0.0371954
0.0415689
0.0422005
0.0368007
0.0361857
0.0364169
0.0366562
0.0368281
0.0368879
0.0367958
0.0366635
0.0414975
0.0422185
0.0368593
0.0361546
0.0362647
0.0364011
0.0364967
0.0365158
0.036441
0.0364382
0.0414669
0.0422055
0.0369086
0.0361755
0.0362162
0.0362889
0.0363382
0.0363389
0.0362853
0.03633
0.0414611
0.0433988
0.0372004
0.0362161
0.0362206
0.0362567
0.0362798
0.0362729
0.0362358
0.0363411
0.0414619
0.0443316
0.0370973
0.0362524
0.0362454
0.0362615
0.0362702
0.0362605
0.0362343
0.0363661
0.0414642
0.0423357
0.0370485
0.0362903
0.0362731
0.036278
0.0362789
0.0362684
0.0362488
0.0363847
0.0414664
0.0422498
0.0370925
0.0363202
0.0362959
0.036294
0.0362904
0.0362795
0.0362645
0.0364053
0.041467
0.0422424
0.0371214
0.0363364
0.0363116
0.036305
0.0362979
0.0362868
0.0362749
0.0364181
0.0414668
0.0422158
0.0370842
0.0363509
0.0363207
0.0363096
0.0362994
0.0362875
0.0362779
0.036422
0.0414651
0.0433893
0.0372977
0.0363668
0.0363241
0.036308
0.0362939
0.0362809
0.036273
0.0364262
0.0414663
0.0453175
0.0374088
0.0363721
0.0363226
0.0363001
0.0362812
0.0362661
0.0362602
0.0364457
0.0414619
0.0443697
0.0372332
0.0363682
0.0363169
0.0362858
0.0362601
0.0362419
0.0362367
0.0364051
0.0414587
0.0422933
0.037158
0.0363727
0.0363079
0.0362644
0.036229
0.0362057
0.036201
0.0363712
0.0414561
0.0421954
0.0371896
0.0363802
0.0362958
0.0362344
0.0361847
0.0361533
0.0361482
0.036324
0.0414525
0.0422038
0.0372408
0.0363918
0.0362806
0.0361932
0.0361221
0.0360775
0.0360701
0.0362586
0.0414487
0.0421988
0.0372776
0.0364124
0.0362619
0.0361364
0.0360329
0.0359671
0.0359539
0.036155
0.0414392
0.0423072
0.0373589
0.0364414
0.0362392
0.0360582
0.0359056
0.0358057
0.0357805
0.0359663
0.0414295
0.0421684
0.0374363
0.0364916
0.0362134
0.0359517
0.035725
0.035571
0.0355244
0.035729
0.0414162
0.0421127
0.0375852
0.0365718
0.0361874
0.03581
0.0354722
0.035231
0.0351458
0.0353804
0.0413963
0.0422201
0.0378057
0.0366954
0.0361681
0.0356274
0.035122
0.0347389
0.0345793
0.0348479
0.0413632
0.0420652
0.0380988
0.0368809
0.0361686
0.0354008
0.0346422
0.0340197
0.0337096
0.0340151
0.0413056
0.0421007
0.0384946
0.0371533
0.0362118
0.0351373
0.0339968
0.0329628
0.0323272
0.0326655
0.0411665
0.0419161
0.0389897
0.0375431
0.0363402
0.0348726
0.0331769
0.0314351
0.0301027
0.0301034
0.0407892
0.0417775
0.0395861
0.0380909
0.0366262
0.0347088
0.0322728
0.0293937
0.0265042
0.0256205
0.0394925
0.0416239
0.040288
0.0388326
0.0371769
0.0348481
0.0316122
0.0272073
0.0215164
0.0142375
0.0344276
0.107869
0.111139
0.111012
0.110995
0.110982
0.110976
0.110978
0.111002
0.111232
0.107762
0.0485603
0.0488333
0.0480501
0.0484791
0.0487361
0.048911
0.0490736
0.0492752
0.0495958
0.0485469
0.0421797
0.0388788
0.0389405
0.0397579
0.0403512
0.0408226
0.0412691
0.0417528
0.0420697
0.0424478
0.0421566
0.0372213
0.0370563
0.0377197
0.0382621
0.0386777
0.0389773
0.0391042
0.03887
0.0417985
0.0422114
0.0369402
0.0364646
0.0368823
0.0372685
0.0375565
0.0377085
0.0376571
0.0373611
0.0415979
0.0422143
0.0368609
0.0362389
0.0364678
0.0367086
0.036884
0.0369485
0.036862
0.0367332
0.0415114
0.0422172
0.036866
0.0361685
0.036278
0.0364156
0.0365135
0.0365346
0.0364622
0.0364627
0.0414736
0.0422216
0.0369293
0.03617
0.0362133
0.0362869
0.0363374
0.0363388
0.0362855
0.0363295
0.0414623
0.0423987
0.0369855
0.0362019
0.0362115
0.0362483
0.036272
0.0362651
0.0362277
0.0363344
0.0414613
0.0422774
0.0370211
0.0362464
0.0362346
0.036251
0.0362601
0.0362502
0.0362233
0.0363487
0.0414598
0.0422488
0.0370883
0.0362822
0.0362623
0.0362674
0.0362686
0.0362577
0.036237
0.0363397
0.0414608
0.042245
0.037096
0.0363071
0.0362859
0.0362843
0.0362808
0.0362695
0.0362533
0.0363544
0.0414615
0.0422409
0.0370795
0.036327
0.0363029
0.0362964
0.0362895
0.0362779
0.0362648
0.036369
0.0414611
0.0422328
0.0370908
0.036341
0.0363134
0.0363025
0.0362923
0.03628
0.0362691
0.0363757
0.0414598
0.0423874
0.0371123
0.0363542
0.0363184
0.0363023
0.0362883
0.0362748
0.0362658
0.0363843
0.0414609
0.0424115
0.0371512
0.0363629
0.0363186
0.0362961
0.0362771
0.0362615
0.0362544
0.0364041
0.0414596
0.042252
0.0371608
0.0363648
0.0363148
0.0362835
0.0362577
0.0362388
0.0362328
0.0363893
0.0414543
0.042208
0.0371503
0.0363694
0.0363075
0.0362638
0.0362282
0.0362042
0.0361983
0.0363313
0.041451
0.0421769
0.0371446
0.0363802
0.0362972
0.0362354
0.0361854
0.0361532
0.0361468
0.0362864
0.0414506
0.0433124
0.0374201
0.036399
0.0362836
0.0361956
0.036124
0.0360786
0.0360702
0.0362554
0.0414502
0.0441776
0.0373456
0.0364181
0.036266
0.0361399
0.0360357
0.0359689
0.035955
0.0361813
0.0414418
0.0422437
0.0373635
0.0364509
0.0362442
0.0360622
0.0359088
0.0358077
0.0357816
0.0360015
0.041432
0.0421444
0.0374656
0.0364985
0.0362186
0.0359558
0.0357282
0.0355724
0.0355247
0.0357664
0.0414192
0.042116
0.0375909
0.036581
0.0361926
0.0358139
0.0354747
0.0352316
0.0351444
0.0354126
0.0413953
0.0420861
0.0378235
0.036706
0.036173
0.0356307
0.0351236
0.0347378
0.0345749
0.0348368
0.0413609
0.0420407
0.0381271
0.0368878
0.0361726
0.0354032
0.0346423
0.0340162
0.0337006
0.0340041
0.0413021
0.0419802
0.0384993
0.0371581
0.0362149
0.0351383
0.0339952
0.0329548
0.0323164
0.0326518
0.0411623
0.0418929
0.0389868
0.0375493
0.0363422
0.0348726
0.0331721
0.0314274
0.0300762
0.0300461
0.0407683
0.0417757
0.0395875
0.0380965
0.0366272
0.0347069
0.0322682
0.0293773
0.0264893
0.0253323
0.0394392
0.0416234
0.0402994
0.0388375
0.0371788
0.0348472
0.0316077
0.0271929
0.0215063
0.0140943
0.03435
0.107898
0.110882
0.111019
0.111008
0.110993
0.110989
0.110998
0.111031
0.111261
0.107801
0.0486971
0.0490883
0.0483859
0.0487473
0.0489679
0.0491154
0.0492517
0.0494202
0.0497782
0.0486342
0.0422815
0.0393679
0.0393545
0.0401622
0.0407632
0.0412493
0.0417251
0.0422675
0.0427156
0.0425972
0.0422225
0.0372531
0.037066
0.0377489
0.0383128
0.0387507
0.0390776
0.0392383
0.0390305
0.0418662
0.0422626
0.0368138
0.0363317
0.0367587
0.0371634
0.0374674
0.0376342
0.0375937
0.0373042
0.0416214
0.042235
0.0367908
0.0361019
0.036334
0.0365867
0.0367709
0.0368439
0.0367642
0.0366414
0.0415188
0.0422463
0.03681
0.0360582
0.0361745
0.0363197
0.0364256
0.0364561
0.0363938
0.0363937
0.0414752
0.0422515
0.0368325
0.0360888
0.0361396
0.0362166
0.0362703
0.0362734
0.0362258
0.036277
0.0414605
0.0422283
0.0368905
0.0361467
0.036159
0.0361969
0.0362217
0.0362158
0.0361804
0.0362958
0.0414591
0.0422501
0.0369834
0.0362031
0.0361947
0.0362114
0.0362216
0.0362124
0.0361867
0.0363451
0.0414585
0.0422669
0.0370316
0.0362436
0.0362292
0.0362349
0.0362371
0.0362262
0.0362065
0.0363447
0.0414568
0.042237
0.0370293
0.0362792
0.0362571
0.0362564
0.0362532
0.0362416
0.0362262
0.0363325
0.0414571
0.0422329
0.0370749
0.0363051
0.0362772
0.0362712
0.0362645
0.036253
0.0362402
0.0363486
0.0414599
0.042227
0.0370974
0.0363181
0.0362894
0.0362788
0.0362689
0.036257
0.0362468
0.0363867
0.0414598
0.0422403
0.0370878
0.0363277
0.0362949
0.03628
0.0362663
0.0362531
0.0362449
0.0363937
0.0414555
0.0422613
0.037098
0.0363354
0.0362962
0.0362743
0.0362558
0.0362413
0.0362343
0.0363588
0.0414531
0.0422374
0.0371049
0.036342
0.0362937
0.0362635
0.0362382
0.0362195
0.036214
0.03634
0.0414537
0.0421984
0.0371203
0.0363498
0.0362885
0.0362454
0.0362107
0.0361863
0.0361817
0.0363404
0.0414522
0.0421849
0.0371461
0.0363597
0.0362798
0.0362182
0.0361691
0.0361368
0.0361317
0.0363072
0.0414494
0.0423511
0.0371942
0.0363778
0.036268
0.0361805
0.0361087
0.0360641
0.0360553
0.036247
0.0414458
0.0422305
0.0372667
0.0364034
0.0362525
0.0361264
0.0360217
0.0359557
0.0359407
0.0361392
0.0414363
0.042157
0.0373497
0.0364357
0.0362319
0.0360499
0.0358961
0.0357948
0.0357676
0.0359554
0.0414297
0.0421352
0.0374309
0.0364883
0.0362088
0.0359456
0.0357171
0.0355606
0.0355103
0.0357533
0.0414173
0.0421118
0.0375872
0.036571
0.0361847
0.0358051
0.0354645
0.0352197
0.0351286
0.0353957
0.0413928
0.0420807
0.0378083
0.0366971
0.0361664
0.0356227
0.0351134
0.0347248
0.0345576
0.0348316
0.041362
0.0420374
0.0381059
0.0368848
0.0361681
0.0353962
0.0346328
0.0340033
0.0336821
0.0340217
0.0412983
0.0419765
0.0384999
0.0371573
0.0362113
0.0351318
0.0339856
0.0329412
0.0322852
0.0326193
0.0411526
0.041891
0.0389929
0.0375494
0.0363386
0.0348666
0.0331626
0.0314052
0.030047
0.030028
0.0407669
0.0417744
0.0395946
0.0380968
0.0366232
0.0347005
0.0322542
0.0293608
0.0264452
0.0253862
0.0394266
0.0416229
0.0403064
0.0388404
0.0371782
0.0348446
0.0316008
0.0271846
0.0214705
0.0139719
0.034313
0.108043
0.111396
0.111239
0.111223
0.110931
0.110929
0.111217
0.111267
0.111531
0.107958
0.0491079
0.0498243
0.0489858
0.0492064
0.0493543
0.0494678
0.0495947
0.0497266
0.0500644
0.0489842
0.0424237
0.03953
0.0395593
0.0403985
0.0410644
0.0415756
0.0420605
0.0426825
0.0432858
0.0428712
0.0436589
0.0374843
0.0366535
0.0374221
0.0380134
0.0384839
0.0388433
0.0390412
0.0388965
0.0419336
0.0446656
0.0365858
0.0359589
0.0364105
0.0368395
0.0371644
0.0373661
0.0373317
0.0370197
0.041621
0.0423093
0.036507
0.0359184
0.0361451
0.0364445
0.0366439
0.0367256
0.0366411
0.0364782
0.0415062
0.0433896
0.0368952
0.0359995
0.0361228
0.0363126
0.036454
0.0364284
0.0363907
0.036351
0.0414613
0.0443126
0.0368908
0.0361098
0.0361649
0.0362466
0.0363339
0.0363075
0.0363053
0.0363123
0.0414477
0.0422828
0.0369512
0.0362388
0.0362538
0.0362593
0.0362903
0.0363172
0.0362889
0.036355
0.0414423
0.0433892
0.037259
0.036316
0.0363065
0.0362876
0.0363317
0.0363629
0.0363065
0.0363928
0.0414423
0.044298
0.0371618
0.0363354
0.0363178
0.0363234
0.0363648
0.0363572
0.0362993
0.0364232
0.0414447
0.0423038
0.0371454
0.0363735
0.0363542
0.0363824
0.0363861
0.0363474
0.0363219
0.036453
0.0414461
0.0422167
0.0371706
0.0364303
0.036409
0.0364097
0.0364034
0.0363858
0.0363407
0.0364758
0.041447
0.0421883
0.0371633
0.0364535
0.036424
0.0364169
0.0364113
0.0364001
0.0363497
0.0364881
0.0414436
0.0433743
0.0373672
0.0364368
0.0364026
0.0364181
0.0364057
0.0363953
0.0363559
0.0364658
0.041445
0.0453083
0.0374211
0.036447
0.0364013
0.0363889
0.0363745
0.0363875
0.0363753
0.036488
0.0414446
0.0443491
0.0372944
0.0364591
0.0364096
0.0364099
0.0363908
0.0363442
0.0363647
0.0364817
0.0414404
0.0422745
0.0372672
0.0364977
0.0364383
0.0363991
0.0363933
0.036308
0.0363346
0.0364303
0.041438
0.0421599
0.0372586
0.036513
0.0364348
0.0363498
0.0363318
0.0362621
0.0362886
0.0363859
0.0414383
0.043305
0.0375202
0.0365088
0.0364279
0.0363407
0.0362433
0.0362221
0.0361928
0.0363555
0.0414355
0.0441749
0.0374393
0.0365554
0.0364136
0.0362857
0.0361495
0.0361184
0.0361047
0.0362608
0.0414293
0.0422249
0.0374644
0.0365914
0.0363656
0.0361906
0.0360353
0.0359415
0.035941
0.0361134
0.0414237
0.0421276
0.037561
0.0366174
0.0363661
0.0361179
0.0358959
0.0357457
0.0356603
0.0359154
0.0414078
0.0421011
0.0377197
0.0366921
0.0363453
0.0359762
0.0356426
0.0354034
0.0352718
0.0355299
0.041382
0.0420693
0.0379073
0.0368393
0.0363085
0.035768
0.0352702
0.0348997
0.0347279
0.0349582
0.0413453
0.0420258
0.0382125
0.0370423
0.0363261
0.0355399
0.0348293
0.0342357
0.0339135
0.034119
0.0412806
0.0419642
0.0385964
0.0372835
0.0363523
0.0352789
0.0341992
0.0331662
0.0325504
0.0327506
0.0411285
0.0418779
0.0390733
0.0376347
0.0364474
0.0350468
0.0333525
0.0316454
0.0304025
0.030179
0.0407248
0.0417605
0.0396698
0.0381673
0.0367232
0.0348736
0.0324237
0.0297098
0.0268955
0.0257158
0.0394115
0.041608
0.0403358
0.0388938
0.0372635
0.0349857
0.0317919
0.0275998
0.0219371
0.0149189
0.0350014
0.107121
0.107812
0.10773
0.107733
0.107736
0.107743
0.107759
0.107803
0.107959
0.107019
0.0470981
0.049086
0.0486901
0.0485915
0.0485525
0.0485377
0.0485501
0.0486417
0.0489863
0.04689
0.0412464
0.0423242
0.0422308
0.0422656
0.0423094
0.0423655
0.0424502
0.042602
0.0428722
0.0412446
0.0412235
0.0417008
0.0416104
0.0416436
0.0416886
0.0417394
0.0417995
0.0418691
0.0419333
0.04087
0.0410648
0.0415612
0.0414798
0.0414962
0.041529
0.0415623
0.0415947
0.0416198
0.0416198
0.0407848
0.0410118
0.0415237
0.0414448
0.0414535
0.0414747
0.0414964
0.0415073
0.0415179
0.0415062
0.0407499
0.0411671
0.0415218
0.0414402
0.0414438
0.0414543
0.0414684
0.0414721
0.0414777
0.0414615
0.040735
0.0410291
0.0415188
0.0414445
0.0414455
0.0414479
0.0414539
0.0414596
0.0414607
0.0414479
0.0407287
0.0416998
0.0416262
0.0414543
0.0414521
0.0414506
0.0414553
0.0414586
0.0414541
0.0414425
0.0407259
0.0422496
0.0415562
0.0414564
0.0414545
0.0414547
0.0414589
0.0414586
0.0414517
0.0414415
0.0407253
0.0410693
0.0415375
0.0414592
0.0414574
0.0414604
0.0414612
0.0414571
0.0414534
0.0414442
0.0407254
0.0410045
0.0415364
0.0414635
0.0414618
0.0414626
0.0414624
0.0414602
0.041455
0.0414458
0.0407254
0.0409997
0.0415356
0.0414643
0.0414624
0.041462
0.0414617
0.0414607
0.0414553
0.0414469
0.0407252
0.0409944
0.0415326
0.04146
0.0414579
0.0414606
0.0414604
0.0414593
0.0414546
0.0414438
0.0407248
0.0418427
0.0416309
0.0414587
0.0414549
0.041455
0.0414549
0.0414576
0.0414562
0.0414456
0.0407247
0.0422512
0.0415543
0.0414549
0.0414517
0.0414541
0.0414541
0.0414522
0.0414553
0.0414456
0.0407247
0.041058
0.0415301
0.0414541
0.041451
0.0414512
0.041454
0.0414487
0.0414532
0.041442
0.0407248
0.0409891
0.0415242
0.0414512
0.0414475
0.0414436
0.0414475
0.0414449
0.0414511
0.0414403
0.0407253
0.0409787
0.0415191
0.0414439
0.0414419
0.04144
0.0414385
0.0414429
0.041445
0.0414416
0.0407263
0.0418062
0.0416213
0.0414423
0.0414355
0.0414331
0.0414303
0.0414374
0.0414427
0.0414403
0.0407277
0.042048
0.0415329
0.0414349
0.0414233
0.0414196
0.0414194
0.0414248
0.0414365
0.0414364
0.0407297
0.0409952
0.0415083
0.0414229
0.0414132
0.0414077
0.0414075
0.0414138
0.0414231
0.0414339
0.0407329
0.0409511
0.0414998
0.0414104
0.0413975
0.0413891
0.0413879
0.0413954
0.0414072
0.0414234
0.0407378
0.0409344
0.0414876
0.0413969
0.0413726
0.0413591
0.0413554
0.0413643
0.0413851
0.0414072
0.0407457
0.0409131
0.0414762
0.0413793
0.0413458
0.0413229
0.0413181
0.0413281