/*--------------------------------*- C++ -*----------------------------------*\
| =========                 |                                                 |
| \\      /  F ield         | OpenFOAM: The Open Source CFD Toolbox           |
|  \\    /   O peration     | Version:  2112                                  |
|   \\  /    A nd           | Website:  www.openfoam.com                      |
|    \\/     M anipulation  |                                                 |
\*---------------------------------------------------------------------------*/
FoamFile
{
    version     2.0;
    format      ascii;
    arch        "LSB;label=32;scalar=64";
    class       volScalarField;
    location    "65";
    object      nut;
}
// * * * * * * * * * * * * * * * * * * * * * * * * * * * * * * * * * * * * * //

dimensions      [0 2 -1 0 0 0 0];

internalField   nonuniform List<scalar> 
10000
(
0.00367515
0.00368897
0.00368753
0.00368741
0.00368631
0.00368598
0.0036875
0.00368829
0.00369069
0.00367438
0.00247101
0.00248896
0.00247006
0.00247123
0.00250083
0.00250537
0.00247947
0.00247807
0.00248868
0.00245279
0.0023492
0.00230158
0.00229893
0.00230149
0.00232328
0.00238792
0.00230765
0.00230931
0.00231409
0.00228948
0.00228057
0.00230252
0.00230158
0.00230265
0.00230456
0.0023089
0.00230578
0.00230707
0.00230795
0.0022755
0.00227847
0.00234005
0.00231022
0.00230565
0.00230607
0.0023068
0.00230724
0.00230884
0.00230974
0.00227572
0.00227843
0.00236691
0.00230755
0.00230656
0.00230676
0.00230707
0.00230734
0.00230799
0.00230752
0.00227406
0.00227745
0.00231147
0.00230717
0.00230706
0.00230716
0.00230728
0.00230737
0.00230737
0.00230683
0.00227377
0.00227743
0.0023094
0.00230754
0.00230748
0.00230753
0.00230756
0.00230755
0.00230744
0.00230686
0.00227371
0.00227749
0.00230962
0.00230791
0.00230785
0.00230784
0.00230784
0.00230778
0.00230765
0.00230705
0.00227373
0.00227752
0.0023098
0.00230815
0.00230808
0.00230806
0.00230804
0.00230796
0.00230783
0.00230723
0.00227377
0.0022775
0.00230985
0.00230767
0.00230806
0.00230758
0.00230804
0.00230802
0.00230736
0.00230723
0.0022737
0.00227743
0.00231026
0.00233947
0.00231295
0.00233945
0.00231247
0.00230853
0.00233927
0.00231197
0.00229294
0.00227733
0.00231046
0.00236342
0.00230969
0.00236339
0.00230887
0.00230873
0.00236333
0.00230859
0.00230346
0.0022772
0.00230993
0.00234135
0.00231278
0.00234137
0.00231231
0.00230836
0.00234131
0.00231192
0.00229373
0.00227698
0.00231001
0.00236343
0.00230938
0.00236345
0.00230806
0.0023078
0.00236354
0.00230845
0.00230336
0.00229578
0.00231156
0.00230928
0.0023074
0.00231022
0.00233907
0.00234287
0.00231373
0.00230727
0.00229385
0.00230872
0.0023097
0.00233827
0.00231169
0.00230813
0.00236358
0.00236441
0.00233968
0.00231205
0.00232134
0.00227822
0.00230925
0.00236154
0.00230772
0.00230642
0.00230937
0.00231036
0.00236266
0.0023081
0.00230448
0.00227627
0.002308
0.00233984
0.00231139
0.00233777
0.00231081
0.00230695
0.00234088
0.00231099
0.00229391
0.00229504
0.0023416
0.00236607
0.00233875
0.00236619
0.00233923
0.00234333
0.00236807
0.00234
0.00230834
0.00230742
0.00236208
0.00230993
0.00236067
0.00231031
0.00236278
0.00236382
0.00231131
0.00236378
0.0022757
0.00227628
0.00230922
0.00230566
0.00230794
0.00230611
0.0023087
0.0023092
0.0023073
0.00230954
0.00227407
0.00227497
0.00230648
0.00230496
0.00230527
0.00230556
0.00230616
0.00230674
0.00230721
0.00230742
0.00227426
0.00227435
0.00230568
0.00230433
0.00230464
0.00230516
0.00230584
0.00230662
0.00230744
0.00230781
0.00227474
0.00227359
0.00230481
0.00230352
0.00230395
0.00230465
0.00230558
0.00230666
0.00230784
0.00230865
0.0022755
0.00227252
0.00230358
0.00230245
0.00230304
0.00230398
0.00230522
0.00230668
0.00230846
0.00230987
0.00227674
0.00227108
0.0023019
0.002301
0.00230181
0.00230303
0.0023046
0.00230658
0.00230898
0.00231161
0.00227874
0.00226916
0.00229962
0.00229903
0.00230014
0.00230169
0.00230361
0.00230593
0.00230919
0.00231345
0.00228215
0.00226664
0.00229654
0.00229647
0.00229804
0.00230003
0.00230217
0.00230467
0.00230802
0.00231461
0.00228818
0.00226351
0.00229271
0.00229338
0.00229571
0.0022983
0.00230074
0.00230284
0.00230501
0.00231168
0.00228245
0.00366188
0.00123191
0.0012237
0.0012229
0.00121971
0.00117802
0.0012271
0.00122229
0.00122514
0.00368697
0.0027213
0.00226549
0.00221935
0.00228487
0.00247238
0.00334671
0.00236815
0.00237275
0.00235153
0.00250628
0.00232146
0.00438146
0.00490513
0.00517719
0.0053395
0.00548392
0.00548584
0.00551499
0.00504418
0.002312
0.00230429
0.00552113
0.00678184
0.00706924
0.00717366
0.00721111
0.00730382
0.00717772
0.00602097
0.00229289
0.00230713
0.00558004
0.00677392
0.00707587
0.00717724
0.00725064
0.00724591
0.00702906
0.00575235
0.00228937
0.00230822
0.00551711
0.00677763
0.00711002
0.00720906
0.00725342
0.00721099
0.00693141
0.0056335
0.00228843
0.00230875
0.00563672
0.00686749
0.00720934
0.00731367
0.00731865
0.00726436
0.00693998
0.00561727
0.00228815
0.00230918
0.00569088
0.00692826
0.00728123
0.00738582
0.00738329
0.00730673
0.00697039
0.00561959
0.0022882
0.00230954
0.00572627
0.00697687
0.00733527
0.00742078
0.00742291
0.00734009
0.00699553
0.00563105
0.00228834
0.00230974
0.0057322
0.00700286
0.00735839
0.00743928
0.00745053
0.00735985
0.00701523
0.00564817
0.00228838
0.00230982
0.00574666
0.00699057
0.00735954
0.00743658
0.00746159
0.00736451
0.00700988
0.00565091
0.00228847
0.00230977
0.00575139
0.00699372
0.00734523
0.00742406
0.0074454
0.00735881
0.00700763
0.00565028
0.00229122
0.00230962
0.00574131
0.00687631
0.00733386
0.00729046
0.0074419
0.00734886
0.00688708
0.00565554
0.00228902
0.00230943
0.00574787
0.00695837
0.00733082
0.00737495
0.00743431
0.00735162
0.0069685
0.00565588
0.00229119
0.00230916
0.00574761
0.00689099
0.00733447
0.00729586
0.00742034
0.00732966
0.00690515
0.00566323
0.00228891
0.00231098
0.0057305
0.00695925
0.00735275
0.00739068
0.00740046
0.00730867
0.00697135
0.00566593
0.00229101
0.00234006
0.0057498
0.0069824
0.00734682
0.00741482
0.00728451
0.00719277
0.00697821
0.00566179
0.00229132
0.00236344
0.00567624
0.0068635
0.00733332
0.00741554
0.00738833
0.00728752
0.00686964
0.00565308
0.00228869
0.0023105
0.00571779
0.00694392
0.00731057
0.00739864
0.00738821
0.0072959
0.00695059
0.005636
0.00229082
0.00231053
0.00572996
0.0068546
0.00728533
0.00724459
0.00735537
0.0072518
0.00684461
0.00563857
0.00228866
0.00230787
0.00566773
0.00693794
0.00719268
0.00732593
0.00722661
0.00712498
0.00689915
0.00555985
0.002288
0.00230738
0.00573855
0.00699536
0.0072959
0.00737417
0.00730788
0.00720504
0.00691869
0.00559447
0.00228766
0.00230659
0.00576521
0.00701588
0.00732612
0.00736458
0.00730737
0.00720297
0.00687958
0.00556285
0.00228731
0.00230568
0.00576379
0.007033
0.00733264
0.00734404
0.00726504
0.00713437
0.00680194
0.00550251
0.00228685
0.00230592
0.0058002
0.00704516
0.00732853
0.00729826
0.00718216
0.00701471
0.00666492
0.00541488
0.00228608
0.00230403
0.00581965
0.00708155
0.00731725
0.0072441
0.00706518
0.0068279
0.0064852
0.00527334
0.00228454
0.00230179
0.00587161
0.0071365
0.00733286
0.00717968
0.00689704
0.00657287
0.00616685
0.00502422
0.00228098
0.00229936
0.00596634
0.00721773
0.00736786
0.00710938
0.00668997
0.00620969
0.005629
0.00451449
0.00227137
0.00229604
0.00607583
0.00734825
0.00744691
0.00708602
0.00648382
0.00573065
0.00482682
0.00388523
0.00223742
0.00229602
0.00628257
0.00753699
0.00760022
0.00712563
0.0063177
0.00517461
0.00382007
0.00157291
0.00210696
0.00369315
0.00122372
0.00122311
0.00122251
0.00122226
0.00122674
0.0012216
0.00122154
0.00122353
0.00368594
0.00247747
0.00222045
0.00223348
0.00230382
0.00235251
0.00241268
0.00238577
0.00239713
0.00235981
0.0024784
0.0022999
0.00491149
0.00557406
0.00585772
0.00601488
0.00610124
0.00617621
0.00617915
0.00558942
0.00230771
0.00230169
0.00677894
0.00889708
0.0092784
0.00935422
0.00940466
0.00941317
0.00918718
0.00725946
0.00229068
0.00230515
0.00674934
0.00950025
0.0102308
0.0103887
0.0104293
0.0103249
0.00973201
0.00706424
0.00228704
0.00230631
0.0067763
0.00991949
0.0110437
0.0113425
0.0113633
0.011104
0.0100792
0.00687444
0.00228605
0.00230691
0.00687787
0.0103073
0.0117294
0.0121512
0.0121613
0.0117647
0.0104147
0.00684175
0.00228598
0.00230739
0.00693519
0.0105533
0.0121602
0.0126624
0.0126694
0.0121848
0.0106392
0.00686623
0.00228613
0.00230777
0.00696218
0.0106841
0.0123836
0.012934
0.0129425
0.0124102
0.0107655
0.0068893
0.00228622
0.00230803
0.00698619
0.01074
0.0124797
0.0130536
0.013067
0.0125169
0.0108303
0.00689926
0.00228643
0.00230813
0.00699863
0.0107658
0.0125108
0.0130842
0.0131117
0.0125497
0.010854
0.00692308
0.00228654
0.00230809
0.00700367
0.0107547
0.0125144
0.0130712
0.0131137
0.0125655
0.0108466
0.00693073
0.00228661
0.00230797
0.00700771
0.010741
0.0125073
0.0130541
0.0131209
0.0125622
0.010831
0.00693476
0.00228658
0.0023078
0.00701842
0.0107443
0.0125014
0.0130506
0.0131114
0.0125524
0.010834
0.00693963
0.00228656
0.0023076
0.00702746
0.0107344
0.0124996
0.0130381
0.0130884
0.0125421
0.0108295
0.00694161
0.00228648
0.00230732
0.00701487
0.0107484
0.0125001
0.0130577
0.0130585
0.0125114
0.0108429
0.00694518
0.00228635
0.00231141
0.00699759
0.0107351
0.0125003
0.0130752
0.0130328
0.0124782
0.0108284
0.00693358
0.00228634
0.00230776
0.00699234
0.0107118
0.0124904
0.0130816
0.0130515
0.012491
0.0108136
0.00693716
0.00228624
0.0023066
0.00699077
0.0107108
0.0124717
0.0130358
0.0130571
0.0125046
0.0108097
0.00693054
0.00228617
0.00230624
0.00698486
0.0106852
0.0124154
0.0129692
0.0129839
0.0124405
0.0107767
0.00691022
0.00228603
0.00230584
0.00697604
0.0106878
0.0123926
0.0129593
0.0129269
0.0123872
0.0107665
0.0068935
0.00228584
0.0023055
0.00696872
0.0106955
0.0124014
0.0129645
0.0129272
0.012376
0.0107476
0.00686962
0.0022856
0.00230491
0.0069631
0.0106953
0.0124085
0.0129421
0.012897
0.0123379
0.0106971
0.00682694
0.00228514
0.00230423
0.00695879
0.0106798
0.0123741
0.0128794
0.0128067
0.0122311
0.0105982
0.00675315
0.00228468
0.00230361
0.00695996
0.0106678
0.0123324
0.0127833
0.0126572
0.0120443
0.0104379
0.00666333
0.00228384
0.00230221
0.00698151
0.010662
0.0122814
0.0126594
0.0124407
0.0117585
0.010172
0.00649558
0.00228198
0.00230053
0.00702623
0.0106744
0.0122346
0.0125007
0.0121379
0.0113113
0.00971521
0.00618991
0.00227805
0.00229821
0.0070973
0.0107321
0.0122121
0.0123294
0.0117487
0.0106523
0.00893278
0.0055905
0.00226748
0.00229502
0.00721642
0.0108597
0.012253
0.0121765
0.0112858
0.00975932
0.00761446
0.00469938
0.00223099
0.00229148
0.00738746
0.0110728
0.0123888
0.0121274
0.0108382
0.00871744
0.00570395
0.00178704
0.0020801
0.00368703
0.00122222
0.00122253
0.00122128
0.00122096
0.00122075
0.00122061
0.00122143
0.00122269
0.003685
0.00247379
0.00229288
0.00230452
0.00237678
0.00240893
0.00242945
0.00244157
0.00243843
0.00239891
0.00247797
0.00230137
0.00516775
0.00585733
0.00609977
0.00622955
0.00632255
0.00638301
0.00641006
0.00579821
0.00230874
0.00230242
0.00707461
0.00927463
0.0096165
0.00969313
0.00974054
0.00973577
0.00953946
0.00752737
0.00229157
0.00230687
0.00710833
0.0102136
0.0111222
0.0113335
0.0113582
0.0111838
0.010412
0.00736516
0.00228761
0.00230706
0.00710895
0.0110281
0.0126879
0.0131729
0.0131799
0.0127101
0.0111661
0.00721039
0.00228637
0.00230681
0.00720358
0.0117215
0.0140157
0.0147874
0.0147869
0.0140272
0.0118263
0.00719458
0.00228599
0.00230724
0.00727895
0.0121482
0.0148596
0.0158471
0.0158494
0.0148839
0.012256
0.00721278
0.0022861
0.00230763
0.00731307
0.012372
0.015305
0.0164209
0.0164317
0.0153521
0.0124922
0.00724827
0.00228626
0.0023079
0.00734512
0.012476
0.0155033
0.0166815
0.0167086
0.0155767
0.0126094
0.00727021
0.00228632
0.00230801
0.00737051
0.0125129
0.015581
0.016787
0.0168209
0.0156731
0.0126603
0.00727494
0.00228647
0.00230797
0.00737135
0.0125209
0.0156022
0.0168159
0.0168642
0.0157001
0.0126708
0.00729302
0.00228652
0.00230785
0.00737569
0.0125308
0.0155923
0.0168173
0.0168747
0.0156953
0.0126805
0.00730005
0.00228643
0.00230767
0.00737911
0.012527
0.0155897
0.0168086
0.0168675
0.0156975
0.0126826
0.00729628
0.00228638
0.00230746
0.0073731
0.0125147
0.0155947
0.0167944
0.0168442
0.0156985
0.0126942
0.00730013
0.00228631
0.00230723
0.00736887
0.0125076
0.0155789
0.0168063
0.0168404
0.0156944
0.0126943
0.00730263
0.00228632
0.00230702
0.00735389
0.0125067
0.0155654
0.0167822
0.0168077
0.0156692
0.0126911
0.00731159
0.00228627
0.00230669
0.00735529
0.0124963
0.0155659
0.0168101
0.0168363
0.0156868
0.0126847
0.00730913
0.00228619
0.00230639
0.00735154
0.0124842
0.0155611
0.0167826
0.0168169
0.0156847
0.0126805
0.00730235
0.0022861
0.00230608
0.00734015
0.0124626
0.0155175
0.0167267
0.0167602
0.0156498
0.0126611
0.00729112
0.00228597
0.00230571
0.00732595
0.0124395
0.0154834
0.0166907
0.01671
0.0156004
0.0126386
0.007274
0.00228581
0.00230574
0.00730171
0.0124052
0.0154511
0.0166616
0.0166792
0.0155623
0.0126052
0.00724598
0.00228547
0.00230558
0.00727737
0.0123628
0.0154062
0.0165672
0.0165859
0.0154893
0.0125464
0.00719311
0.00228518
0.00230419
0.00727415
0.0123237
0.0153341
0.0164648
0.0164759
0.0153634
0.0124468
0.00713901
0.00228468
0.00230371
0.00726706
0.0122695
0.0152425
0.0163489
0.016289
0.0151529
0.01228
0.00704194
0.00228381
0.00230283
0.00725712
0.0122193
0.0151267
0.0161548
0.0160049
0.0148128
0.0119969
0.00687447
0.00228213
0.00230086
0.00729246
0.0121932
0.0150045
0.0159002
0.0155977
0.0142699
0.0115039
0.006572
0.00227806
0.00229878
0.00736107
0.0122048
0.0149003
0.0156048
0.0150573
0.0134313
0.0106334
0.00599086
0.00226782
0.00229504
0.00748968
0.0123015
0.0148582
0.0153262
0.0143691
0.0122529
0.009005
0.00481073
0.00223168
0.00229086
0.00766747
0.0124969
0.01491
0.015104
0.0136551
0.0108824
0.00683083
0.00228713
0.0020833
0.0036564
0.00118468
0.0012274
0.00117897
0.00118368
0.00118377
0.00118433
0.00122478
0.00118318
0.00365724
0.00268433
0.00329026
0.00239539
0.00332859
0.00338184
0.00339589
0.00338022
0.00249702
0.00337839
0.00268393
0.00231916
0.00542689
0.00599335
0.00623443
0.0063393
0.00641027
0.00647641
0.00647595
0.00594301
0.00232477
0.00230427
0.00719058
0.00932558
0.00955068
0.00962801
0.00967297
0.00968996
0.00959148
0.00761171
0.00229361
0.00230658
0.00720697
0.0103764
0.0112973
0.0115273
0.0115511
0.0113654
0.0105592
0.00748306
0.00228839
0.00230651
0.00721441
0.0113334
0.0131628
0.0137302
0.0137351
0.0131823
0.0114524
0.00730838
0.00228673
0.00230691
0.00730203
0.0121417
0.014784
0.0157287
0.0157267
0.0147939
0.0122431
0.00728301
0.00228627
0.00230725
0.00736217
0.0126531
0.0158434
0.0170858
0.0170906
0.0158761
0.0127665
0.00731662
0.00228622
0.00230806
0.00740336
0.0129123
0.0164128
0.0178403
0.0178624
0.0164846
0.0130598
0.00734594
0.00228629
0.00230874
0.0074193
0.0130255
0.0166726
0.0182028
0.0182409
0.0167866
0.013208
0.00736584
0.00228648
0.00230801
0.00743303
0.0130828
0.0167825
0.0183476
0.0184002
0.0169132
0.0132699
0.00738861
0.00228649
0.00230794
0.00744695
0.0131024
0.0168119
0.0183658
0.0184575
0.0169364
0.013287
0.00739004
0.0022865
0.00230785
0.00746138
0.0131159
0.0168047
0.0183904
0.018486
0.0169587
0.0133028
0.00739394
0.00228649
0.00230767
0.00746642
0.0131244
0.0168146
0.0184164
0.0184838
0.0169793
0.013325
0.00740143
0.00228637
0.00230793
0.0074532
0.0131072
0.0168049
0.0183942
0.0184591
0.0169763
0.0133345
0.00739783
0.00228637
0.00230848
0.0074286
0.0130769
0.0168002
0.0183893
0.0184595
0.016975
0.0133302
0.00741014
0.00228633
0.00230787
0.00741712
0.0130754
0.0167788
0.0183749
0.018432
0.016955
0.0133304
0.00741128
0.00228626
0.00230679
0.00742956
0.0130754
0.0167757
0.0184028
0.0184633
0.01697
0.0133314
0.00740631
0.00228618
0.00230649
0.00743549
0.0130624
0.016768
0.0183765
0.0184472
0.0169748
0.0133286
0.00740021
0.002286
0.0023062
0.00742974
0.0130449
0.0167473
0.01833
0.0183844
0.0169493
0.0133161
0.00738079
0.00228595
0.00230537
0.00739135
0.0130212
0.0167251
0.0183013
0.0183336
0.0169166
0.0132939
0.00737291
0.0022858
0.00233514
0.00736491
0.0129475
0.0166622
0.0182128
0.0182964
0.0168646
0.0132555
0.00734669
0.00228554
0.00235747
0.00723069
0.0128693
0.0165832
0.0181336
0.0181912
0.0167728
0.0131913
0.00730488
0.0022852
0.00230602
0.00730385
0.0128431
0.0164871
0.0179856
0.0180478
0.0166374
0.0130904
0.00724142
0.00228466
0.00233078
0.0073232
0.0127651
0.0163664
0.01785
0.0178458
0.0164158
0.0129235
0.00714344
0.0022838
0.00234951
0.0072032
0.0126755
0.0162107
0.0176071
0.0175215
0.0160537
0.0126367
0.00697042
0.00228194
0.00232613
0.00731894
0.0126329
0.0160475
0.0172927
0.0170676
0.0154718
0.0121333
0.00665481
0.00227798
0.00233912
0.00731243
0.0126231
0.0159014
0.0169588
0.0164426
0.0145538
0.0112154
0.00607524
0.00226776
0.00229632
0.00752368
0.0127368
0.0158162
0.0165874
0.0156373
0.0132487
0.00951859
0.00488902
0.00223101
0.00229088
0.00772749
0.0129327
0.015818
0.0162669
0.0147825
0.0116915
0.0071969
0.00228891
0.00209211
0.00369187
0.00122754
0.00122186
0.0012262
0.00122605
0.00122591
0.0012258
0.00122135
0.00122824
0.00369006
0.00247667
0.00235193
0.00236625
0.00242983
0.00245467
0.00246845
0.00247819
0.00246546
0.00243119
0.00247751
0.00230448
0.00542701
0.00611029
0.00632996
0.00645096
0.00652605
0.00658161
0.00659955
0.00601553
0.00231162
0.00230415
0.00728513
0.00942445
0.00978002
0.00986764
0.00990191
0.00989029
0.00967746
0.00772536
0.00229413
0.00230616
0.00723954
0.0104301
0.0113925
0.0116392
0.0116597
0.0114551
0.0106056
0.00753096
0.00228928
0.00230661
0.00723143
0.0113602
0.0132013
0.0137783
0.0137837
0.0132222
0.0114755
0.00734651
0.00228731
0.0023071
0.00730856
0.0121554
0.0147947
0.0157442
0.0157446
0.0148096
0.0122522
0.00731102
0.00228647
0.00230674
0.00736356
0.0126547
0.0158454
0.0170941
0.0171037
0.0158883
0.0127733
0.00731843
0.00228631
0.00233913
0.0073963
0.0128831
0.0164122
0.0178578
0.0178845
0.0165036
0.0130685
0.00734956
0.00228633
0.00236413
0.00729003
0.0129777
0.0166804
0.018232
0.018276
0.0168148
0.0132201
0.00737085
0.0022864
0.0023103
0.00739222
0.0130704
0.0167988
0.0183856
0.0184463
0.0169491
0.0132873
0.00738184
0.00228646
0.00230795
0.007449
0.0131143
0.0168212
0.0184439
0.0185091
0.0169967
0.0133069
0.00739064
0.00228647
0.00230775
0.00746385
0.0131261
0.0168441
0.0184778
0.0185388
0.017018
0.0133247
0.00739864
0.00228647
0.00230702
0.00744185
0.0131223
0.0168648
0.0184719
0.0185336
0.0170157
0.0133458
0.00740536
0.00228642
0.00233887
0.00742324
0.0130869
0.016829
0.0184341
0.0185101
0.0170191
0.0133528
0.00741198
0.00228645
0.00239027
0.00728238
0.0130151
0.0168043
0.0184262
0.0185137
0.0170177
0.0133478
0.00742321
0.00228633
0.00236514
0.00725889
0.0130117
0.0167923
0.0184455
0.0184917
0.0170016
0.0133447
0.00741451
0.00228624
0.00230914
0.00738864
0.0130481
0.0167957
0.0184456
0.0185181
0.0170227
0.013353
0.00740987
0.00228617
0.00230647
0.00742694
0.0130693
0.0167955
0.0184246
0.0185043
0.017027
0.0133524
0.00740349
0.00228607
0.0023067
0.0074201
0.0130467
0.0167696
0.0183734
0.0184654
0.0170051
0.0133399
0.00739396
0.00228597
0.00230656
0.00739209
0.0130184
0.0167293
0.0183198
0.0184159
0.0169714
0.0133167
0.00737643
0.00228571
0.00230952
0.00736938
0.0129723
0.0166787
0.0182573
0.0183578
0.0169131
0.013278
0.00733844
0.00228544
0.00230573
0.00734711
0.0129233
0.0166169
0.0181762
0.018246
0.0168188
0.0132139
0.00729412
0.00228507
0.00230421
0.00734643
0.0128747
0.0165213
0.0180357
0.0180986
0.0166819
0.0131139
0.00722843
0.00228452
0.00230714
0.00732556
0.0128054
0.016402
0.0178947
0.0178962
0.0164627
0.0129486
0.00712692
0.00228361
0.0023029
0.00732754
0.0127349
0.0162496
0.0176387
0.0175793
0.0161014
0.0126624
0.00695982
0.00228202
0.00230388
0.00735253
0.0126843
0.0160889
0.0173635
0.0171231
0.015517
0.0121489
0.00668346
0.00227817
0.00229882
0.00742164
0.0126795
0.0159401
0.0170052
0.0164977
0.0145955
0.0112215
0.00607446
0.00226771
0.00229502
0.00755048
0.012762
0.0158454
0.0166334
0.0156867
0.013298
0.00958161
0.00506268
0.00223137
0.00229079
0.00773515
0.0129448
0.0158429
0.0163069
0.0148304
0.0117158
0.00711573
0.00200248
0.00208338
0.00368776
0.00122211
0.00122152
0.00122143
0.00122122
0.00122109
0.00122106
0.00122123
0.00122349
0.00368593
0.00247432
0.00235515
0.00238186
0.00242626
0.00244694
0.00245926
0.00246791
0.00246835
0.00241036
0.00247398
0.00230604
0.00548163
0.00616408
0.00638608
0.00649884
0.00657581
0.00663128
0.00665221
0.00606644
0.00231335
0.0023054
0.00727906
0.0093979
0.00977359
0.00986481
0.0099012
0.00988957
0.00966246
0.00773428
0.00229559
0.0023069
0.007224
0.010315
0.0112306
0.0114552
0.011476
0.0112899
0.0104934
0.00751051
0.00229008
0.00230698
0.00718415
0.0110969
0.0127437
0.0132364
0.013244
0.012767
0.0112123
0.00730111
0.00228769
0.00230706
0.00723837
0.0117599
0.0140444
0.0148223
0.0148252
0.0140612
0.0118514
0.00724581
0.00228665
0.00230718
0.00729877
0.0121738
0.0148877
0.0158883
0.0158979
0.0149266
0.0122805
0.00724031
0.00228634
0.00231202
0.00731485
0.012382
0.015344
0.0164872
0.0165093
0.0154168
0.0125244
0.00726587
0.00228631
0.00230871
0.00732772
0.0124845
0.0155638
0.016783
0.0168164
0.0156654
0.0126513
0.00728187
0.00228627
0.00230793
0.0073658
0.0125391
0.0156593
0.0169083
0.0169467
0.0157715
0.0127094
0.00728369
0.0022863
0.00230782
0.00737413
0.0125637
0.0156957
0.0169541
0.0169742
0.0157985
0.0127302
0.00729139
0.00228632
0.00230771
0.00736934
0.0125705
0.0157169
0.0169768
0.0170028
0.0158234
0.01275
0.00729954
0.00228631
0.00230749
0.00737006
0.0125792
0.0157195
0.0169791
0.0170249
0.0158443
0.012765
0.00730548
0.00228627
0.00231171
0.0073526
0.0125688
0.0157012
0.0169562
0.017006
0.0158347
0.0127638
0.00731253
0.0022863
0.00231236
0.00733164
0.0125428
0.0156978
0.0169527
0.0169975
0.0158276
0.0127629
0.00732422
0.00228627
0.00230801
0.00734154
0.0125363
0.0156758
0.016944
0.0169927
0.0158297
0.0127707
0.00732496
0.00228612
0.00230681
0.00734665
0.0125418
0.0156689
0.0169393
0.0169979
0.0158513
0.0127763
0.00731224
0.00228603
0.00230596
0.00733471
0.0125348
0.0156633
0.0169433
0.0170032
0.0158442
0.0127713
0.00730587
0.00228602
0.00233679
0.00732494
0.01249
0.0156468
0.0168987
0.0169522
0.0158176
0.0127542
0.00730636
0.00228601
0.00236002
0.00719215
0.0124397
0.0156007
0.0168553
0.0169057
0.0157764
0.0127275
0.00729775
0.00228578
0.00230779
0.00727619
0.0124394
0.0155717
0.016797
0.0168597
0.0157237
0.0126876
0.00726205
0.00228551
0.00230507
0.00729855
0.012416
0.015513
0.0167147
0.0167625
0.0156379
0.012624
0.0072187
0.00228515
0.0023043
0.0072878
0.0123815
0.0154412
0.0166256
0.0166456
0.0155063
0.0125223
0.00715178
0.00228449
0.00230348
0.00728482
0.0123321
0.0153478
0.0164973
0.0164547
0.0152951
0.0123587
0.00703706
0.00228355
0.00230223
0.00729231
0.0122796
0.0152306
0.0162974
0.0161649
0.0149533
0.0120759
0.0068731
0.00228192
0.00230058
0.00731531
0.0122477
0.0151044
0.0160356
0.0157624
0.0144086
0.0115762
0.00659301
0.00227806
0.00229818
0.00737896
0.0122607
0.0149985
0.0157533
0.0152123
0.0135657
0.0106831
0.00599783
0.00226713
0.00229497
0.00749497
0.0123478
0.0149457
0.0154562
0.0145196
0.0123828
0.00908398
0.00475525
0.00222987
0.00229078
0.00767359
0.0125339
0.01499
0.0152274
0.0138015
0.010991
0.00688233
0.00225565
0.00208103
0.00368826
0.00121807
0.00122135
0.00122134
0.00122113
0.00122104
0.0012211
0.00122141
0.00122367
0.00368659
0.0024778
0.00236467
0.00239212
0.00243067
0.00244877
0.00245902
0.00246543
0.00246406
0.00241102
0.0024762
0.00230882
0.00550768
0.00616097
0.00638574
0.00650261
0.00658233
0.0066417
0.00667365
0.00611287
0.00231742
0.00230721
0.00714739
0.0091613
0.00953213
0.00961727
0.00965483
0.00964777
0.00945696
0.00764499
0.00229745
0.0023083
0.007007
0.00971558
0.0104244
0.0105817
0.010603
0.0104856
0.00990816
0.00733131
0.00229072
0.00230755
0.00692594
0.0100671
0.0111778
0.0114715
0.0114826
0.0112107
0.0101909
0.00704651
0.0022879
0.00230786
0.00692739
0.0104003
0.0118325
0.0122548
0.0122614
0.011858
0.0104969
0.00694403
0.0022867
0.002308
0.0069444
0.0106236
0.0122567
0.0127731
0.0127789
0.0122822
0.0107092
0.00691183
0.00228629
0.00230736
0.00697612
0.0107507
0.012488
0.0130628
0.0130731
0.0125248
0.0108392
0.00692502
0.00228625
0.00230796
0.00700121
0.0108127
0.0126022
0.0132073
0.0132213
0.0126494
0.0109112
0.00694413
0.00228624
0.00230842
0.00700959
0.010841
0.0126525
0.0132692
0.0132839
0.0127061
0.0109499
0.00694654
0.00228619
0.0023076
0.00701815
0.010861
0.0126674
0.0132923
0.0133003
0.0127308
0.0109705
0.00694509
0.0022862
0.00230749
0.00703539
0.0108695
0.0126798
0.0133016
0.0133161
0.0127433
0.0109845
0.00695229
0.00228627
0.00230733
0.0070421
0.010874
0.0126875
0.0133015
0.0133294
0.0127535
0.010991
0.00696661
0.00228627
0.00230769
0.007025
0.0108713
0.0126876
0.0133042
0.0133246
0.0127549
0.0109939
0.00697266
0.00228616
0.00230827
0.00700319
0.0108629
0.0126913
0.0133107
0.0133235
0.0127535
0.0109929
0.00696532
0.00228609
0.00230761
0.00700578
0.0108596
0.0126831
0.0132968
0.0133229
0.0127483
0.0109958
0.00696579
0.0022861
0.00230655
0.00701682
0.0108611
0.0126721
0.0132911
0.0133143
0.0127519
0.0109922
0.00697082
0.00228606
0.00230618
0.00701939
0.0108577
0.0126668
0.0132919
0.01331
0.0127405
0.0109827
0.00696632
0.00228599
0.00231072
0.00699105
0.0108398
0.0126525
0.013273
0.0132821
0.0127148
0.0109656
0.00695623
0.00228589
0.00230743
0.00697796
0.0108179
0.0126379
0.0132443
0.0132511
0.0126822
0.0109379
0.00693663
0.00228563
0.00230542
0.00699672
0.0108097
0.0126145
0.0132014
0.0132018
0.0126297
0.0108955
0.00689933
0.00228544
0.00230482
0.00699202
0.0107995
0.0125817
0.0131502
0.0131267
0.0125486
0.0108288
0.00686535
0.0022851
0.00230418
0.00698929
0.0107844
0.0125435
0.0130834
0.0130254
0.0124279
0.0107267
0.00679732
0.00228443
0.00230333
0.00699294
0.0107706
0.0124994
0.0129916
0.0128761
0.0122438
0.0105676
0.00668948
0.00228357
0.00230214
0.00700928
0.0107622
0.0124446
0.0128629
0.0126593
0.0119556
0.0103003
0.00653657
0.00228182
0.00230048
0.00705053
0.0107761
0.0123951
0.0127093
0.0123622
0.0115131
0.00984442
0.00625283
0.00227779
0.00229813
0.00712469
0.0108329
0.012373
0.0125345
0.0119702
0.0108467
0.00903611
0.00564351
0.00226709
0.00229493
0.00724147
0.0109522
0.0124058
0.0123798
0.0115035
0.00995441
0.00773399
0.00475163
0.00222951
0.00229076
0.00741431
0.0111584
0.0125367
0.0123236
0.0110558
0.00889514
0.00574467
0.00176605
0.00207991
0.00369074
0.00122532
0.00122346
0.00122343
0.00121913
0.00121907
0.00122328
0.00122388
0.00122744
0.00368928
0.00248823
0.00234037
0.00235765
0.00238437
0.00240204
0.00241007
0.002411
0.00240798
0.00236186
0.00248509
0.0023127
0.00502423
0.00558917
0.00580134
0.00593292
0.00601432
0.00606264
0.00610833
0.00569923
0.00232486
0.00234612
0.00609409
0.00723047
0.00753225
0.00763809
0.00769998
0.00771858
0.00764868
0.00658242
0.0022993
0.00237302
0.00568869
0.00704232
0.00736678
0.00746551
0.00751077
0.00750869
0.0073403
0.00610184
0.00229071
0.00230958
0.00558247
0.00686864
0.00719792
0.00730748
0.00733905
0.00730046
0.00704835
0.0057571
0.00228755
0.00233888
0.00557806
0.00682528
0.00718298
0.00729378
0.00732227
0.00724096
0.00694652
0.00561126
0.00228631
0.00236362
0.00553057
0.00684049
0.00720992
0.00730875
0.00732908
0.00724104
0.00692467
0.00555583
0.00228594
0.00230885
0.0055967
0.00688136
0.00724839
0.0073354
0.00734274
0.0072684
0.00692763
0.00555127
0.00228579
0.00233886
0.0056462
0.0068988
0.00726769
0.00735279
0.00736806
0.00729345
0.00693765
0.00555608
0.00228579
0.00236323
0.00558253
0.00689789
0.00726887
0.00736423
0.00738087
0.00729499
0.00693788
0.00556458
0.00228586
0.00230943
0.00564247
0.00691392
0.00727874
0.00738292
0.00738609
0.00729263
0.00694669
0.0055731
0.00228589
0.00230705
0.00566492
0.00693229
0.00729621
0.00739017
0.00739239
0.00730664
0.00695373
0.00558051
0.00228592
0.00230627
0.00566566
0.0069406
0.00730072
0.00739332
0.00739737
0.00731242
0.00695852
0.00558678
0.00228583
0.00233846
0.00566789
0.00692621
0.00729238
0.00739557
0.00739754
0.00731303
0.00696274
0.0055836
0.00228587
0.00239003
0.00559008
0.00691502
0.00729279
0.00738833
0.00739089
0.00731282
0.00696986
0.00558934
0.00228585
0.0023646
0.00558211
0.00691819
0.00729399
0.00739577
0.00739785
0.00730235
0.00697209
0.00559295
0.00228574
0.00230863
0.00565509
0.00693817
0.0073028
0.00739229
0.00740088
0.00729487
0.00696579
0.0055822
0.00228567
0.0023055
0.00566204
0.00694433
0.007302
0.00737904
0.00738454
0.00728444
0.00695567
0.00557245
0.00228568
0.0023366
0.00567918
0.0069325
0.00729903
0.00737935
0.00735992
0.00727686
0.00693173
0.00556916
0.0022856
0.00235995
0.00560645
0.00693388
0.00729381
0.00736395
0.00733511
0.00725139
0.00691286
0.00555135
0.00228543
0.00230727
0.00566622
0.00694703
0.0072797
0.00733792
0.00730521
0.00720378
0.00687459
0.00552305
0.00228528
0.00230461
0.00569102
0.00694983
0.00728115
0.00732063
0.0072694
0.00715428
0.00680515
0.00548687
0.00228484
0.00230389
0.00570272
0.00695897
0.00727655
0.00728437
0.007203
0.00706446
0.00671233
0.0054123
0.00228413
0.00230302
0.00571676
0.0069925
0.00726278
0.00722815
0.00710305
0.00693198
0.00658661
0.00531013
0.00228311
0.00230183
0.00575809
0.00703241
0.00726621
0.00716777
0.00698832
0.00675979
0.00639268
0.00515682
0.00228133
0.00230014
0.00582189
0.00708196
0.00727073
0.0071008
0.00682314
0.0064776
0.00606517
0.00491852
0.00227712
0.00229777
0.00591864
0.00716671
0.00729989
0.00704707
0.00660014
0.00607646
0.00551965
0.00437454
0.00226592
0.00229455
0.00604275
0.00730522
0.00738478
0.0070102
0.00635628
0.00558419
0.00469216
0.00370674
0.00222908
0.00229036
0.0061948
0.00750199
0.00754236
0.00704631
0.00618684
0.00503298
0.00353132
0.00135657
0.00210067
0.00367496
0.00368679
0.00368539
0.00368543
0.00368549
0.00368562
0.00368588
0.00368663
0.0036893
0.0036732
0.00243678
0.00248767
0.00247762
0.00247511
0.00247412
0.00247374
0.00247406
0.00247639
0.00248515
0.00243139
0.00228038
0.00230998
0.00230743
0.00230838
0.00230958
0.00231111
0.00231342
0.00231755
0.00232489
0.00228033
0.00227975
0.00229291
0.00229042
0.00229134
0.00229257
0.00229397
0.00229562
0.00229753
0.00229929
0.00226995
0.00227536
0.00228907
0.00228683
0.00228728
0.00228818
0.0022891
0.00228999
0.00229068
0.00229068
0.00226759
0.00227389
0.00228803
0.00228586
0.0022861