/*--------------------------------*- C++ -*----------------------------------*\
| =========                 |                                                 |
| \\      /  F ield         | OpenFOAM: The Open Source CFD Toolbox           |
|  \\    /   O peration     | Version:  2112                                  |
|   \\  /    A nd           | Website:  www.openfoam.com                      |
|    \\/     M anipulation  |                                                 |
\*---------------------------------------------------------------------------*/
FoamFile
{
    version     2.0;
    format      ascii;
    arch        "LSB;label=32;scalar=64";
    class       volScalarField;
    location    "65";
    object      p;
}
// * * * * * * * * * * * * * * * * * * * * * * * * * * * * * * * * * * * * * //

dimensions      [0 2 -2 0 0 0 0];

internalField   nonuniform List<scalar> 
10000
(
0.111111
0.111516
0.111143
0.110973
0.11091
0.1109
0.110964
0.111131
0.111503
0.111108
0.110442
0.110709
0.110544
0.110477
0.110437
0.110428
0.110468
0.110532
0.110693
0.110444
0.110197
0.110328
0.110251
0.11023
0.110213
0.110214
0.110226
0.110245
0.11032
0.110195
0.11012
0.110197
0.110153
0.11014
0.110131
0.110135
0.110141
0.110157
0.110205
0.110118
0.109992
0.110047
0.110028
0.110022
0.110017
0.110019
0.110024
0.110033
0.110058
0.109996
0.10982
0.109857
0.109851
0.10985
0.109849
0.10985
0.109852
0.109855
0.109866
0.109825
0.109643
0.109668
0.109664
0.109666
0.109667
0.109667
0.109668
0.109667
0.109671
0.109646
0.109466
0.109482
0.109481
0.109483
0.109484
0.109484
0.109483
0.109482
0.109483
0.109467
0.109286
0.109297
0.109297
0.109299
0.1093
0.109299
0.109298
0.109296
0.109296
0.109284
0.109103
0.10911
0.109111
0.109112
0.109112
0.109111
0.109109
0.109107
0.109107
0.109098
0.108918
0.108923
0.108923
0.108924
0.108922
0.108921
0.10892
0.108917
0.108917
0.108908
0.108733
0.108736
0.108735
0.108735
0.108733
0.108731
0.108729
0.108725
0.108726
0.108716
0.108548
0.10855
0.108549
0.108547
0.108544
0.10854
0.108537
0.108533
0.108532
0.108526
0.108364
0.108366
0.108363
0.10836
0.108355
0.108349
0.108344
0.108338
0.108337
0.108334
0.10818
0.108184
0.10818
0.108174
0.108167
0.108157
0.108148
0.108143
0.10814
0.108137
0.107997
0.108005
0.107999
0.10799
0.107979
0.107964
0.107951
0.107943
0.107939
0.107935
0.107824
0.107827
0.107819
0.107808
0.107791
0.107772
0.107753
0.107738
0.107731
0.107729
0.107659
0.107655
0.107646
0.107629
0.107604
0.107578
0.107551
0.107527
0.107514
0.107517
0.107497
0.107493
0.107482
0.107457
0.10742
0.10738
0.107339
0.107306
0.107285
0.107288
0.107345
0.107346
0.107331
0.107293
0.107243
0.107181
0.107119
0.107071
0.107037
0.107041
0.107216
0.107216
0.107194
0.107144
0.107071
0.106981
0.10689
0.106812
0.106761
0.106767
0.107111
0.107109
0.107081
0.107013
0.106908
0.106779
0.106641
0.106519
0.106442
0.106442
0.10703
0.107036
0.106999
0.106907
0.10676
0.106571
0.106364
0.106176
0.10605
0.10604
0.106986
0.107004
0.10696
0.106837
0.106633
0.10636
0.106051
0.105758
0.105546
0.10552
0.106986
0.107021
0.106973
0.106815
0.106536
0.106148
0.105689
0.105227
0.104868
0.104802
0.107037
0.107098
0.107052
0.106854
0.106482
0.105938
0.105261
0.104535
0.10391
0.103745
0.107141
0.10724
0.107207
0.10697
0.106484
0.105734
0.104746
0.103605
0.102492
0.102068
0.107294
0.107447
0.107445
0.107172
0.106553
0.105538
0.104118
0.102342
0.100341
0.0992186
0.107485
0.107709
0.10776
0.107461
0.106689
0.105342
0.103323
0.100565
0.096841
0.0935573
0.107692
0.108006
0.108133
0.107818
0.10688
0.105135
0.10235
0.0982099
0.0918444
0.0813926
0.111509
0.111894
0.111528
0.111358
0.111298
0.1113
0.111358
0.111527
0.111883
0.111501
0.110696
0.111144
0.111013
0.110949
0.110915
0.110921
0.110952
0.111019
0.111144
0.110692
0.11033
0.110669
0.110655
0.110638
0.110616
0.110615
0.110637
0.110661
0.110683
0.110322
0.110206
0.110413
0.110418
0.110403
0.110384
0.110375
0.110396
0.11041
0.110412
0.110209
0.110055
0.110161
0.110157
0.110149
0.110139
0.110133
0.110142
0.110147
0.110154
0.110063
0.109861
0.109919
0.109918
0.109914
0.109908
0.109906
0.109911
0.109915
0.109921
0.109869
0.109667
0.109702
0.109707
0.109703
0.109699
0.109698
0.109702
0.109707
0.10971
0.109673
0.109481
0.109505
0.109509
0.109505
0.109502
0.109501
0.109504
0.109509
0.10951
0.109484
0.109296
0.109314
0.109315
0.109311
0.109308
0.109308
0.10931
0.109313
0.109314
0.109296
0.10911
0.109122
0.109123
0.109119
0.109117
0.109116
0.109117
0.10912
0.10912
0.109107
0.108923
0.108933
0.108936
0.108931
0.10893
0.108926
0.108925
0.10893
0.108928
0.108918
0.108737
0.108744
0.10875
0.108742
0.108745
0.108735
0.108734
0.10874
0.108735
0.108728
0.108551
0.108555
0.108558
0.108552
0.108551
0.108543
0.10854
0.108543
0.108539
0.108535
0.108365
0.108368
0.108368
0.108363
0.108358
0.108351
0.108346
0.108344
0.108341
0.108339
0.108182
0.108185
0.108179
0.108174
0.108164
0.108162
0.108155
0.108143
0.108141
0.108142
0.108001
0.108008
0.107997
0.107989
0.107972
0.107973
0.107963
0.107942
0.10794
0.107943
0.10782
0.107834
0.107826
0.107808
0.107787
0.107772
0.107754
0.107742
0.107733
0.107738
0.107649
0.107656
0.107652
0.107632
0.107607
0.10757
0.107541
0.107526
0.107516
0.107523
0.107489
0.107494
0.107489
0.107466
0.107432
0.107381
0.107338
0.107304
0.107289
0.107299
0.107339
0.107351
0.107335
0.107306
0.107248
0.107188
0.107124
0.107062
0.107042
0.107057
0.107198
0.107214
0.107194
0.107146
0.107065
0.106977
0.10688
0.106791
0.106756
0.106785
0.107078
0.107104
0.107084
0.10701
0.106901
0.106763
0.106618
0.106494
0.106429
0.106473
0.106992
0.107035
0.107012
0.10691
0.106756
0.106557
0.106341
0.106147
0.106039
0.106095
0.10694
0.10701
0.106982
0.106847
0.106633
0.106349
0.106027
0.105722
0.105538
0.105606
0.106931
0.107037
0.107008
0.106833
0.10654
0.106139
0.105662
0.105182
0.104859
0.104929
0.10697
0.107125
0.107102
0.106882
0.106491
0.105932
0.105233
0.104479
0.1039
0.103924
0.107059
0.107283
0.107275
0.107008
0.1065
0.105737
0.104726
0.103545
0.102473
0.102291
0.107196
0.107509
0.107533
0.107221
0.106579
0.105562
0.104133
0.102311
0.100306
0.0994248
0.107366
0.107788
0.107867
0.107516
0.106726
0.1054
0.103422
0.100697
0.0966456
0.0934029
0.107545
0.108096
0.10825
0.107867
0.106916
0.10523
0.102569
0.098654
0.0918766
0.0803346
0.111139
0.11153
0.11118
0.111002
0.110938
0.110939
0.111002
0.11118
0.111527
0.111129
0.110539
0.111014
0.110884
0.110813
0.110774
0.110775
0.110814
0.110889
0.111019
0.110529
0.110251
0.110656
0.110644
0.110622
0.110601
0.1106
0.110622
0.110648
0.11066
0.110245
0.110157
0.110418
0.110454
0.110449
0.110435
0.110432
0.110444
0.110444
0.110406
0.110161
0.110031
0.110156
0.110192
0.110205
0.110203
0.110199
0.110198
0.110178
0.110145
0.110039
0.109852
0.109918
0.109945
0.109961
0.109963
0.10996
0.109955
0.109936
0.109913
0.10986
0.109665
0.109707
0.109729
0.10974
0.109742
0.10974
0.109736
0.109723
0.109707
0.109671
0.109482
0.109509
0.109524
0.109531
0.109531
0.10953
0.109528
0.10952
0.109509
0.109484
0.109297
0.109315
0.109324
0.109327
0.109326
0.109326
0.109324
0.109321
0.109313
0.109297
0.10911
0.109122
0.109128
0.109129
0.109127
0.109126
0.109125
0.109124
0.109119
0.109109
0.108923
0.108932
0.108936
0.108934
0.108933
0.10893
0.10893
0.10893
0.108926
0.108919
0.108736
0.108742
0.108745
0.108742
0.108741
0.108737
0.108735
0.108735
0.108733
0.108729
0.108549
0.108553
0.108555
0.108552
0.108549
0.108544
0.108541
0.10854
0.108538
0.108536
0.108363
0.108366
0.108367
0.108363
0.108358
0.108351
0.108346
0.108343
0.108342
0.108343
0.108178
0.108182
0.108181
0.108176
0.108167
0.10816
0.108152
0.108145
0.108144
0.108147
0.107995
0.108001
0.107999
0.107991
0.107977
0.107968
0.107956
0.107945
0.107944
0.10795
0.107815
0.107824
0.107822
0.107809
0.10779
0.107772
0.107753
0.10774
0.107738
0.107748
0.107639
0.107649
0.107649
0.107632
0.107606
0.107575
0.107547
0.107528
0.107525
0.107539
0.107472
0.107486
0.107486
0.107463
0.107426
0.10738
0.107338
0.107307
0.107302
0.107323
0.107315
0.107336
0.107335
0.107302
0.107247
0.107183
0.107118
0.107069
0.10706
0.107092
0.107169
0.107201
0.1072
0.107153
0.107074
0.10698
0.106882
0.106807
0.10679
0.106838
0.107043
0.107091
0.107093
0.107026
0.106914
0.106774
0.106628
0.106513
0.10648
0.106549
0.106944
0.107016
0.107023
0.10693
0.106772
0.106569
0.10635
0.106168
0.106106
0.106203
0.106877
0.106986
0.107
0.106876
0.106655
0.106364
0.106035
0.105747
0.105626
0.105757
0.10685
0.107011
0.107039
0.106878
0.106577
0.106163
0.105674
0.105214
0.104976
0.105136
0.10687
0.107103
0.107158
0.106956
0.106554
0.105978
0.105257
0.104521
0.104045
0.104193
0.106941
0.107271
0.107369
0.107127
0.106606
0.105823
0.10478
0.103603
0.102638
0.10261
0.107059
0.107517
0.107681
0.107404
0.106753
0.105719
0.104258
0.102418
0.100469
0.0997446
0.107213
0.107831
0.108089
0.107786
0.106994
0.10567
0.10369
0.100935
0.0967542
0.0935888
0.107383
0.10819
0.10857
0.108243
0.107299
0.105647
0.10304
0.0990912
0.0920669
0.0805005
0.110969
0.111361
0.111003
0.110818
0.110749
0.110749
0.110816
0.111002
0.111358
0.110958
0.110473
0.110951
0.110812
0.110734
0.110692
0.110692
0.110734
0.110815
0.110953
0.11046
0.110232
0.110635
0.11062
0.110592
0.110569
0.110569
0.110592
0.110622
0.110634
0.110224
0.110142
0.110402
0.110449
0.110446
0.110434
0.110433
0.110442
0.110441
0.11039
0.110147
0.110024
0.110149
0.110205
0.110234
0.110236
0.110234
0.110227
0.110193
0.110137
0.110033
0.109852
0.109914
0.109961
0.109998
0.110008
0.110006
0.109991
0.109951
0.109908
0.10986
0.109667
0.109703
0.10974
0.109771
0.109783
0.109781
0.109767
0.109734
0.109701
0.109673
0.109484
0.109505
0.109531
0.109552
0.109561
0.10956
0.109549
0.109526
0.109504
0.109487
0.109299
0.109311
0.109327
0.109341
0.109346
0.109345
0.109338
0.109324
0.10931
0.1093
0.109111
0.109119
0.109129
0.109136
0.109139
0.109138
0.109133
0.109125
0.109116
0.109111
0.108924
0.108929
0.108935
0.108938
0.108939
0.108937
0.108934
0.108929
0.108924
0.108921
0.108736
0.108739
0.108743
0.108744
0.108743
0.10874
0.108737
0.108734
0.108731
0.10873
0.108548
0.108551
0.108553
0.108553
0.10855
0.108546
0.108542
0.108539
0.108538
0.108539
0.108361
0.108364
0.108365
0.108363
0.108358
0.108352
0.108347
0.108344
0.108343
0.108346
0.108175
0.108178
0.108179
0.108175
0.108168
0.10816
0.108152
0.108147
0.108147
0.108152
0.10799
0.107995
0.107996
0.10799
0.107979
0.107967
0.107955
0.107948
0.107948
0.107956
0.107808
0.107816
0.107817
0.107808
0.107792
0.107773
0.107755
0.107744
0.107746
0.107757
0.10763
0.107641
0.107644
0.107631
0.107606
0.107578
0.107551
0.107535
0.107537
0.107554
0.107459
0.107475
0.10748
0.10746
0.107425
0.107382
0.107341
0.107316
0.107319
0.107343
0.107296
0.107321
0.107328
0.1073
0.107248
0.107185
0.107123
0.107084
0.107085
0.107122
0.107145
0.107183
0.107194
0.107155
0.107079
0.106985
0.106892
0.106829
0.106828
0.106883
0.107011
0.107069
0.107087
0.107031
0.106923
0.106785
0.106643
0.106544
0.106534
0.106613
0.106902
0.106986
0.107016
0.106941
0.106787
0.106584
0.10637
0.106209
0.10618
0.106292
0.106823
0.106948
0.106997
0.106896
0.106681
0.106388
0.106063
0.105802
0.105727
0.105879
0.106784
0.106969
0.107046
0.106917
0.106621
0.106203
0.105713
0.105284
0.105107
0.105298
0.106791
0.10706
0.107182
0.107024
0.106629
0.106043
0.105313
0.104608
0.104207
0.104398
0.106849
0.107232
0.107423
0.107241
0.106731
0.105932
0.104866
0.103707
0.102824
0.102853
0.106957
0.107489
0.107781
0.107587
0.106954
0.105903
0.104404
0.102554
0.10065
0.0999954
0.107107
0.107827
0.108258
0.108065
0.107302
0.10596
0.103925
0.101098
0.0969062
0.0938324
0.107281
0.108231
0.108835
0.108649
0.107745
0.106081
0.103427
0.0994016
0.0922852
0.0807743
0.110899
0.111306
0.11094
0.110746
0.110675
0.110674
0.110744
0.110938
0.111304
0.110888
0.110426
0.110922
0.110775
0.110692
0.110647
0.110647
0.110692
0.110777
0.110924
0.110413
0.11022
0.110602
0.110596
0.11057
0.110546
0.110546
0.11057
0.110599
0.110601
0.110212
0.110137
0.110374
0.110432
0.110431
0.110419
0.110418
0.110428
0.110426
0.110364
0.110141
0.11002
0.110136
0.110201
0.110235
0.11024
0.110238
0.110229
0.11019
0.110127
0.110029
0.109851
0.109908
0.109962
0.110008
0.110023
0.11002
0.110002
0.109952
0.109903
0.10986
0.109668
0.1097
0.109742
0.109783
0.1098
0.109798
0.109778
0.109735
0.109697
0.109674
0.109485
0.109504
0.109532
0.109562
0.109576
0.109575
0.109558
0.109527
0.109501
0.109488
0.109299
0.109311
0.109328
0.109347
0.109356
0.109355
0.109344
0.109324
0.109307
0.109301
0.109112
0.109118
0.109129
0.10914
0.109145
0.109144
0.109137
0.109124
0.109115
0.109112
0.108924
0.108926
0.108934
0.10894
0.108942
0.108941
0.108936
0.108928
0.108923
0.108922
0.108736
0.108737
0.108742
0.108745
0.108745
0.108742
0.108738
0.108733
0.108731
0.108731
0.108548
0.108549
0.108552
0.108553
0.108551
0.108547
0.108543
0.108539
0.108538
0.10854
0.10836
0.108363
0.108364
0.108363
0.108359
0.108353
0.108348
0.108344
0.108344
0.108348
0.108173
0.108179
0.108178
0.108175
0.108168
0.10816
0.108152
0.108148
0.108149
0.108154
0.107987
0.107994
0.107995
0.107989
0.107979
0.107967
0.107956
0.10795
0.107951
0.107959
0.107804
0.107811
0.107815
0.107807
0.107792
0.107773
0.107757
0.107747
0.10775
0.107762
0.107625
0.107634
0.107641
0.10763
0.107607
0.107579
0.107554
0.10754
0.107544
0.107562
0.107451
0.107467
0.107476
0.107459
0.107425
0.107384
0.107345
0.107323
0.107329
0.107355
0.107286
0.107311
0.107323
0.107299
0.107249
0.107187
0.107128
0.107094
0.107101
0.10714
0.107131
0.107174
0.107189
0.107154
0.107081
0.106989
0.1069
0.106845
0.106851
0.106908
0.106993
0.10706
0.107081
0.107032
0.106927
0.106791
0.106654
0.106565
0.106566
0.106649
0.106879
0.106968
0.107009
0.106944
0.106795
0.106595
0.106385
0.106238
0.106224
0.106341
0.106795
0.106922
0.10699
0.106905
0.106695
0.106404
0.106084
0.10584
0.105785
0.105945
0.106748
0.106945
0.107042
0.106934
0.106646
0.106229
0.105742
0.105333
0.105182
0.105384
0.106749
0.107032
0.107185
0.107057
0.106672
0.106084
0.105353
0.104667
0.104299
0.104506
0.106801
0.107203
0.107439
0.107298
0.106802
0.105998
0.104921
0.103775
0.102928
0.102978
0.106905
0.107462
0.107818
0.107681
0.107067
0.106008
0.104486
0.102631
0.100751
0.100126
0.107055
0.107811
0.108328
0.10821
0.107474
0.106123
0.104053
0.101192
0.0969916
0.0939561
0.107234
0.10824
0.108953
0.108861
0.107991
0.106317
0.103617
0.099519
0.0923577
0.0808798
0.110909
0.111299
0.110937
0.110749
0.110678
0.110677
0.110747
0.110936
0.111296
0.110899
0.110435
0.110914
0.110773
0.110691
0.110647
0.110647
0.110691
0.110775
0.110916
0.110422
0.110212
0.110616
0.110601
0.110569
0.110545
0.110545
0.110569
0.110603
0.110616
0.110203
0.110132
0.110387
0.110436
0.110434
0.110422
0.110422
0.110431
0.110431
0.110377
0.110135
0.110019
0.11014
0.110202
0.110235
0.11024
0.110238
0.110229
0.110191
0.110131
0.110028
0.109851
0.109909
0.109962
0.110006
0.110021
0.110019
0.11
0.109952
0.109904
0.10986
0.109668
0.109701
0.109742
0.109782
0.109799
0.109797
0.109777
0.109734
0.109697
0.109674
0.109484
0.109508
0.109533
0.109561
0.109575
0.109574
0.109558
0.109526
0.109501
0.109488
0.109298
0.109318
0.10933
0.109347
0.109356
0.109355
0.109344
0.109323
0.109307
0.109301
0.109113
0.109119
0.109129
0.10914
0.109145
0.109144
0.109137
0.109124
0.109115
0.109112
0.108925
0.10892
0.108933
0.10894
0.108942
0.108941
0.108935
0.108928
0.108923
0.108922
0.108736
0.108733
0.108741
0.108745
0.108745
0.108742
0.108738
0.108733
0.10873
0.108731
0.108548
0.108548
0.108552
0.108553
0.108551
0.108547
0.108543
0.108539
0.108537
0.10854
0.108359
0.108366
0.108365
0.108363
0.108359
0.108353
0.108348
0.108344
0.108344
0.108347
0.108171
0.108189
0.108181
0.108175
0.108168
0.10816
0.108152
0.108148
0.108149
0.108154
0.107986
0.108001
0.107997
0.10799
0.107979
0.107967
0.107956
0.107949
0.107951
0.10796
0.107804
0.107806
0.107814
0.107807
0.107792
0.107773
0.107756
0.107747
0.10775
0.107763
0.107626
0.107625
0.107639
0.107629
0.107607
0.107579
0.107554
0.10754
0.107544
0.107562
0.107452
0.107462
0.107474
0.107459
0.107425
0.107383
0.107345
0.107324
0.107329
0.107356
0.107286
0.10731
0.107322
0.107298
0.107249
0.107187
0.107128
0.107094
0.107101
0.10714
0.107132
0.107171
0.107188
0.107154
0.107081
0.106989
0.1069
0.106845
0.106852
0.106908
0.106993
0.107053
0.107079
0.107032
0.106927
0.106791
0.106654
0.106565
0.106567
0.106649
0.106878
0.106965
0.107008
0.106944
0.106795
0.106595
0.106385
0.106239
0.106225
0.106342
0.106794
0.106924
0.10699
0.106905
0.106695
0.106404
0.106084
0.10584
0.105786
0.105946
0.106747
0.106942
0.107042
0.106934
0.106646
0.106228
0.105742
0.105333
0.105182
0.105384
0.106747
0.10703
0.107185
0.107056
0.106671
0.106084
0.105352
0.104666
0.104299
0.104505
0.106799
0.107202
0.107439
0.107296
0.106801
0.105998
0.10492
0.103773
0.102925
0.102977
0.106903
0.107464
0.107818
0.107678
0.107065
0.106006
0.104483
0.102626
0.100752
0.100128
0.107052
0.107814
0.108327
0.108207
0.107472
0.106123
0.104061
0.101216
0.0969927
0.0939346
0.10723
0.10824
0.108952
0.108856
0.107987
0.106313
0.103612
0.0995017
0.0923439
0.0809299
0.110968
0.111357
0.111001
0.110817
0.110748
0.110747
0.110816
0.111001
0.111356
0.110958
0.11047
0.110951
0.110813
0.110734
0.110692
0.110692
0.110735
0.110817
0.110954
0.110458
0.110226
0.110639
0.110623
0.110593
0.11057
0.11057
0.110593
0.110625
0.11064
0.110217
0.110141
0.1104
0.110446
0.110445
0.110434
0.110433
0.110441
0.110439
0.11039
0.110144
0.110025
0.110145
0.110199
0.110228
0.110232
0.11023
0.110222
0.110188
0.110135
0.110033
0.109854
0.109913
0.109957
0.109993
0.110003
0.110001
0.109986
0.109947
0.109906
0.109862
0.109669
0.109705
0.109738
0.109768
0.109779
0.109778
0.109763
0.10973
0.109701
0.109675
0.109484
0.109508
0.10953
0.109551
0.109559
0.109558
0.109547
0.109524
0.109504
0.109488
0.109299
0.109315
0.109328
0.10934
0.109345
0.109344
0.109337
0.109323
0.10931
0.1093
0.109112
0.10912
0.109129
0.109136
0.109139
0.109137
0.109133
0.109124
0.109116
0.109111
0.108923
0.108927
0.108935
0.108938
0.108939
0.108937
0.108933
0.108928
0.108923
0.108921
0.108735
0.108738
0.108743
0.108744
0.108743
0.10874
0.108737
0.108733
0.108731
0.10873
0.108548
0.10855
0.108553
0.108552
0.108549
0.108546
0.108542
0.108539
0.108537
0.108538
0.108361
0.108365
0.108366
0.108363
0.108358
0.108352
0.108347
0.108343
0.108343
0.108346
0.108174
0.108182
0.10818
0.108175
0.108168
0.108159
0.108151
0.108147
0.108147
0.108152
0.107989
0.107997
0.107997
0.10799
0.107979
0.107966
0.107954
0.107948
0.107948
0.107956
0.107807
0.107814
0.107817
0.107808
0.107792
0.107772
0.107755
0.107744
0.107746
0.107757
0.10763
0.107638
0.107644
0.107631
0.107606
0.107578
0.107551
0.107535
0.107537
0.107554
0.107458
0.107477
0.107481
0.10746
0.107425
0.107382
0.107342
0.107317
0.107319
0.107344
0.107295
0.107328
0.107329
0.1073
0.107248
0.107184
0.107123
0.107085
0.107086
0.107123
0.107145
0.107183
0.107194
0.107155
0.107079
0.106985
0.106892
0.106831
0.10683
0.106884
0.107012
0.10706
0.107085
0.107031
0.106923
0.106785
0.106644
0.106545
0.106536
0.106615
0.106901
0.10698
0.107015
0.106941
0.106787
0.106584
0.10637
0.10621
0.106182
0.106294
0.106822
0.106945
0.106996
0.106896
0.10668
0.106388
0.106062
0.105802
0.105727
0.10588
0.106782
0.106966
0.107044
0.106916
0.10662
0.106202
0.105712
0.105284
0.105106
0.105297
0.106788
0.107056
0.107179
0.107022
0.106627
0.106042
0.105311
0.104606
0.104205
0.104396
0.106844
0.107227
0.107419
0.107237
0.106728
0.10593
0.104863
0.103704
0.102819
0.102847
0.106951
0.107484
0.107777
0.107582
0.106948
0.105897
0.104397
0.102551
0.100641
0.0999818
0.1071
0.107822
0.108251
0.108057
0.107293
0.105952
0.103916
0.101097
0.0968892
0.0938007
0.107272
0.108225
0.108827
0.108637
0.10773
0.106064
0.103402
0.0993702
0.0922525
0.0807445
0.111132
0.111526
0.111179
0.111
0.110934
0.110934
0.111
0.11118
0.111526
0.111124
0.110532
0.111018
0.110888
0.110814
0.110774
0.110775
0.110816
0.110894
0.111024
0.110521
0.110245
0.110663
0.110648
0.110624
0.110605
0.110605
0.110625
0.110653
0.110665
0.110236
0.110157
0.110413
0.110446
0.110444
0.110434
0.110433
0.11044
0.110438
0.110401
0.11016
0.110034
0.110149
0.11018
0.110195
0.110194
0.110192
0.110188
0.110168
0.110137
0.110042
0.109856
0.109916
0.109937
0.109953
0.109955
0.109953
0.109947
0.109928
0.109909
0.109864
0.109669
0.10971
0.109725
0.109736
0.109737
0.109735
0.109731
0.109718
0.109705
0.109674
0.109484
0.109512
0.109523
0.109528
0.109528
0.109527
0.109525
0.109517
0.109508
0.109486
0.109298
0.109317
0.109324
0.109326
0.109325
0.109324
0.109323
0.109319
0.109313
0.109298
0.10911
0.109124
0.109128
0.109128
0.109127
0.109126
0.109125
0.109123
0.109119
0.109109
0.108922
0.108931
0.108934
0.108934
0.108932
0.10893
0.108929
0.108928
0.108925
0.108919
0.108735
0.10874
0.108743
0.108742
0.108739
0.108736
0.108734
0.108733
0.108731
0.108728
0.108549
0.108552
0.108554
0.108551
0.108547
0.108543
0.10854
0.108538
0.108537
0.108535
0.108364
0.108367
0.108367
0.108363
0.108357
0.108351
0.108346
0.108342
0.108341
0.108342
0.108178
0.108184
0.108182
0.108176
0.108167
0.108158
0.10815
0.108145
0.108144
0.108147
0.107993
0.108001
0.107999
0.107991
0.107979
0.107965
0.107953
0.107945
0.107943
0.107949
0.107812
0.10782
0.10782
0.107809
0.107791
0.107772
0.107753
0.10774
0.107738
0.107748
0.107639
0.107647
0.107648
0.107632
0.107606
0.107577
0.107549
0.107529
0.107526
0.10754
0.107472
0.107487
0.107486
0.107461
0.107424
0.10738
0.107338
0.107307
0.107302
0.107324
0.107314
0.107338
0.107335
0.1073
0.107246
0.107182
0.107118
0.107071
0.107061
0.107093
0.107168
0.107201
0.107202
0.107154
0.107075
0.10698
0.106884
0.10681
0.106793
0.106841
0.107042
0.107089
0.107094
0.107027
0.106915
0.106776
0.106631
0.106516
0.106484
0.106552
0.106943
0.107014
0.107022
0.106931
0.106772
0.10657
0.106351
0.10617
0.106108
0.106204
0.106875
0.106983
0.106998
0.106876
0.106655
0.106364
0.106035
0.105747
0.105626
0.105757
0.106847
0.107007
0.107037
0.106877
0.106576
0.106163
0.105673
0.105213
0.104973
0.105133
0.106866
0.107098
0.107154
0.106953
0.106552
0.105977
0.105256
0.104518
0.10404
0.104187
0.106935
0.107265
0.107364
0.107122
0.106603
0.10582
0.104777
0.103597
0.102627
0.102599
0.107051
0.107509
0.107674
0.107397
0.106746
0.105713
0.104251
0.10241
0.10045
0.0997225
0.107203
0.107821
0.108079
0.107775
0.106983
0.105659
0.103681
0.100931
0.0967205
0.093546
0.10737
0.108179
0.108557
0.108226
0.107279
0.105625
0.103008
0.0990636
0.0920228
0.0804669
0.111502
0.111881
0.111524
0.111354
0.111292
0.111292
0.111354
0.111526
0.111882
0.111494
0.110693
0.111143
0.111017
0.11095
0.110912
0.110913
0.110952
0.111023
0.111149
0.110683
0.11032
0.110689
0.110662
0.110639
0.11062
0.110621
0.110639
0.110665
0.110691
0.110313
0.110204
0.110423
0.11041
0.110395
0.110384
0.110382
0.11039
0.110401
0.110406
0.110208
0.11006
0.110157
0.110146
0.110141
0.110135
0.110133
0.110135
0.110138
0.110149
0.110068
0.109869
0.109921
0.109915
0.10991
0.109906
0.109905
0.109907
0.109909
0.109921
0.109876
0.109673
0.109715
0.109709
0.109703
0.109699
0.109699
0.109701
0.109705
0.109712
0.10968
0.109487
0.109513
0.109511
0.109506
0.109502
0.109502
0.109504
0.109508
0.109513
0.109489
0.109301
0.109317
0.109317
0.109312
0.109309
0.109308
0.10931
0.109313
0.109316
0.109299
0.10911
0.109127
0.109124
0.10912
0.109117
0.109116
0.109117
0.109119
0.10912
0.109108
0.108921
0.10893
0.108931
0.108928
0.108926
0.108924
0.108924
0.108925
0.108925
0.108917
0.108736
0.108736
0.10874
0.108738
0.108735
0.108733
0.108731
0.108731
0.108731
0.108725
0.108551
0.108551
0.108553
0.108549
0.108545
0.108541
0.108538
0.108537
0.108536
0.108533
0.108366
0.108372
0.108368
0.108362
0.108356
0.10835
0.108345
0.108341
0.108339
0.108339
0.108181
0.108195
0.108184
0.108176
0.108167
0.108158
0.10815
0.108144
0.108141
0.108142
0.107997
0.108009
0.108
0.107991
0.107979
0.107965
0.107953
0.107943
0.107939
0.107942
0.10782
0.10782
0.10782
0.107809
0.107791
0.107772
0.107753
0.107738
0.107732
0.107737
0.107651
0.107647
0.107648
0.107631
0.107606
0.107577
0.107549
0.107526
0.107517
0.107525
0.107489
0.107495
0.107487
0.10746
0.107423
0.10738
0.107338
0.107304
0.107288
0.107301
0.107335
0.107353
0.107337
0.107299
0.107245
0.107182
0.107118
0.107065
0.107041
0.107059
0.107197
0.107217
0.107201
0.107149
0.107072
0.10698
0.106884
0.106802
0.106763
0.106789
0.107081
0.107105
0.107091
0.107019
0.106909
0.106774
0.10663
0.106504
0.106439
0.106477
0.106994
0.107035
0.107015
0.106916
0.106761
0.106564
0.106349
0.106153
0.106044
0.106096
0.106941
0.107008
0.106982
0.106849
0.106634
0.106352
0.10603
0.105723
0.105538
0.105603
0.106929
0.107033
0.107006
0.106833
0.106539
0.106139
0.105661
0.105181
0.104856
0.104921
0.106966
0.107121
0.107098
0.106879
0.106489
0.105931
0.10523
0.104475
0.103892
0.103908
0.107054
0.107277
0.10727
0.107004
0.106497
0.105734
0.10472
0.103536
0.102455
0.102261
0.107189
0.1075
0.107526
0.107215
0.106574
0.105555
0.104122
0.102298
0.100273
0.0993719
0.107357
0.107777
0.107857
0.107507
0.106716
0.105389
0.103411
0.100681
0.0965711
0.093308
0.107535
0.108083
0.108237
0.107853
0.106899
0.105209
0.102536
0.0986049
0.091744
0.0803057
0.11111
0.111501
0.11113
0.110963
0.110905
0.110904
0.110959
0.111124
0.111495
0.111103
0.110447
0.110693
0.11053
0.110464
0.110428
0.110426
0.110458
0.110522
0.110683
0.110439
0.110194
0.110324
0.110246
0.110222
0.110203
0.110201
0.110216
0.110236
0.110313
0.110189
0.110115
0.110212
0.110162
0.110146
0.110134
0.110134
0.110144
0.110159
0.110208
0.110119
0.109996
0.110066
0.11004
0.110033
0.110028
0.110028
0.110033
0.110041
0.110068
0.110002
0.109826
0.109871
0.109861
0.109861
0.109859
0.109859
0.109861
0.109864
0.109876
0.109833
0.109646
0.109676
0.109673
0.109674
0.109674
0.109674
0.109674
0.109674
0.10968
0.109653
0.109467
0.109488
0.109486
0.109488
0.109489
0.109488
0.109487
0.109486
0.109489
0.109472
0.109284
0.1093
0.1093
0.109301
0.109302
0.109301
0.1093
0.109298
0.109299
0.109288
0.109102
0.109111
0.109112
0.109113
0.109113
0.109112
0.10911
0.109108
0.109108
0.1091
0.108921
0.108921
0.108923
0.108924
0.108924
0.108922
0.10892
0.108918
0.108916
0.108911
0.108737
0.108734
0.108736
0.108736
0.108734
0.108732
0.108729
0.108726
0.108725
0.108721
0.10855
0.10855
0.10855
0.108548
0.108545
0.108541
0.108537
0.108534
0.108532
0.108529
0.108362
0.108368
0.108366
0.108361
0.108356
0.10835
0.108345
0.10834
0.108337
0.108336
0.108176
0.108188
0.108182
0.108175
0.108168
0.108159
0.10815
0.108144
0.10814
0.108139
0.108001
0.108004
0.107998
0.10799
0.107979
0.107966
0.107954
0.107944
0.107939
0.107938
0.107831
0.107823
0.107819
0.107808
0.107792
0.107773
0.107755
0.107741
0.107732
0.107732
0.107661
0.107653
0.107647
0.10763
0.107606
0.107579
0.107552
0.10753
0.107517
0.107517
0.107496
0.107496
0.107484
0.107459
0.107424
0.107383
0.107342
0.107309
0.107289
0.107289
0.107344
0.107351
0.107332
0.107296
0.107245
0.107185
0.107123
0.107073
0.107042
0.107041
0.107217
0.107217
0.107194
0.107146
0.107073
0.106984
0.106892
0.106814
0.106765
0.106763
0.107111
0.107107
0.10708
0.107013
0.106909
0.106779
0.106641
0.106521
0.106442
0.106437
0.10703
0.107033
0.106998
0.106907
0.10676
0.106571
0.106364
0.106176
0.106048
0.106037
0.106984
0.107
0.106957
0.106836
0.106633
0.10636
0.106051
0.105756
0.105543
0.105515
0.106983
0.107017
0.10697
0.106813
0.106535
0.106147
0.105687
0.105225
0.104862
0.104793
0.107033
0.107093
0.107048
0.106852
0.106481
0.105937
0.105258
0.10453
0.1039
0.10373
0.107135
0.107234
0.107203
0.106967
0.106481
0.105731
0.104741
0.103597
0.102475
0.102042
0.107287
0.10744
0.107439
0.107167
0.106548
0.105532
0.104108
0.102328
0.100312
0.0991762
0.107477
0.107701
0.107752
0.107453
0.106681
0.105331
0.103308
0.100544
0.0967895
0.0934829
0.107682
0.107995
0.108123
0.107807
0.106866
0.105116
0.102324
0.0981765
0.0917836
0.0812958
0.10788
0.108297
0.10852
0.108197
0.107076
0.104853
0.101043
0.0944237
0.0822818
0.0485086
0.108002
0.10853
0.108858
0.108533
0.107243
0.104617
0.100104
0.0924716
0.0803827
0.0604099
0.108007
0.10864
0.109062
0.108727
0.107289
0.104395
0.0996179
0.0923121
0.0819242
0.0686139
0.107844
0.108559
0.109039
0.108656
0.107041
0.103857
0.0987464
0.0912846
0.0810214
0.0678356
0.107472
0.108227
0.108718
0.108247
0.106414
0.1029
0.0973813
0.0894984
0.078908
0.0654761
0.106878
0.107622
0.10806
0.107452
0.105371
0.101533
0.0956284
0.087342
0.0763402
0.0619945
0.106071
0.106755
0.107048
0.106228
0.103878
0.0997341
0.0934569
0.0847392
0.0730217
0.0565297
0.105077
0.105654
0.105703
0.104613
0.101984
0.0975378
0.0908198
0.0814155
0.0682935
0.0482441
0.103939
0.104371
0.104119
0.102762
0.0999219
0.0952551
0.0881895
0.0776431
0.0616669
0.0337863
0.102729
0.102993
0.102476
0.100952
0.098105
0.0936243
0.0870311
0.0768654
0.0607359
0.0244189
0.107699
0.108391
0.108632
0.10821
0.107062
0.104906
0.101246
0.0946257
0.0824788
0.048862
0.107784
0.108628
0.108952
0.108479
0.10713
0.104533
0.100137
0.0923464
0.080185
0.0613863
0.107757
0.108754
0.109144
0.108598
0.107056
0.104169
0.0994817
0.0921146
0.081582
0.068945
0.107574
0.108706
0.109143
0.108489
0.106708
0.103475
0.0983641
0.0908634
0.0804924
0.0675866
0.107197
0.108432
0.10891
0.108127
0.106078
0.102474
0.0969075
0.0889209
0.078145
0.0645558
0.106622
0.107898
0.108392
0.107475
0.105145
0.101194
0.095199
0.0867456
0.0754427
0.0600798
0.105853
0.107105
0.107519
0.10643
0.103818
0.099572
0.0931137
0.0844312
0.0722151
0.0527864
0.104897
0.106029
0.10625
0.104942
0.102061
0.0975404
0.0905182
0.0821585
0.0675356
0.0431213
0.103781
0.104698
0.104648
0.103117
0.10003
0.0951988
0.0876172
0.0783841
0.0606242
0.0298406
0.102574
0.103218
0.102906
0.101254
0.0981803
0.0933645
0.0860786
0.0745107
0.057683
0.0219319
0.107537
0.108565
0.109075
0.108697
0.107537
0.1054
0.101745
0.0949163
0.0825972
0.0494607
0.107643
0.108917
0.109552
0.109084
0.107675
0.105042
0.100601
0.0925696
0.0801198
0.0623722
0.10766
0.109193
0.10994
0.109344
0.107666
0.104667
0.0998666
0.0922106
0.0813688
0.0689467
0.107534
0.109301
0.110154
0.109389
0.107365
0.103896
0.0985199
0.0906387
0.079839
0.066954
0.107194
0.109133
0.110083
0.109159
0.106769
0.102818
0.0968674
0.0883973
0.0771069
0.0632443
0.106607
0.108614
0.109604
0.108554
0.105829
0.101466