/*--------------------------------*- C++ -*----------------------------------*\
| =========                 |                                                 |
| \\      /  F ield         | OpenFOAM: The Open Source CFD Toolbox           |
|  \\    /   O peration     | Version:  2112                                  |
|   \\  /    A nd           | Website:  www.openfoam.com                      |
|    \\/     M anipulation  |                                                 |
\*---------------------------------------------------------------------------*/
FoamFile
{
    version     2.0;
    format      ascii;
    arch        "LSB;label=32;scalar=64";
    class       surfaceScalarField;
    location    "65";
    object      phi;
}
// * * * * * * * * * * * * * * * * * * * * * * * * * * * * * * * * * * * * * //

dimensions      [0 3 -1 0 0 0 0];

oriented        oriented;

internalField   nonuniform List<scalar> 
27900
(
4.48995e-05
0.00091008
4.50219e-05
2.41599e-05
0.000976366
4.43752e-05
1.04704e-05
0.000968404
4.5287e-05
4.42172e-06
0.000960804
4.52464e-05
4.02059e-07
0.000958464
4.55578e-05
-4.37035e-06
0.000959046
4.57282e-05
-1.03185e-05
0.000960954
4.49956e-05
-2.39597e-05
0.000968594
4.50484e-05
-4.478e-05
0.00097655
4.42725e-05
0.00091037
4.4851e-05
3.16375e-05
0.000846716
3.17312e-05
2.95296e-05
0.000950205
2.82742e-05
1.93578e-05
0.000950197
2.83844e-05
9.55614e-06
0.0009421
2.85111e-05
5.88237e-07
0.000938093
2.93431e-05
-9.11481e-06
0.000938644
3.01095e-05
-1.89417e-05
0.000942357
2.84291e-05
-2.90433e-05
0.000950622
2.80789e-05
-3.09663e-05
0.000950542
2.7936e-05
0.000848304
3.11036e-05
2.01745e-05
0.000806699
1.98478e-05
2.69171e-05
0.000928578
1.48894e-05
2.10298e-05
0.000942647
1.34414e-05
1.09897e-05
0.000938434
1.37103e-05
2.70221e-07
0.000934706
1.41111e-05
-1.02723e-05
0.000934872
1.43196e-05
-2.04719e-05
0.000938898
1.3663e-05
-2.64352e-05
0.000943412
1.31786e-05
-1.98377e-05
0.000929425
1.45232e-05
0.000808544
1.9925e-05
1.24869e-05
0.000782073
1.21439e-05
2.21993e-05
0.000910058
8.81271e-06
1.94756e-05
0.000939142
6.23357e-06
1.06404e-05
0.000941222
6.05201e-06
9.31851e-08
0.0009392
6.05827e-06
-1.01254e-05
0.000939386
5.70867e-06
-1.90836e-05
0.00094176
6.10067e-06
-2.20074e-05
0.000940119
6.22104e-06
-1.26354e-05
0.000911527
8.53078e-06
0.000783306
1.26058e-05
8.06644e-06
0.00076618
7.83119e-06
1.68972e-05
0.000894773
6.45833e-06
1.63032e-05
0.000936302
3.43804e-06
9.38604e-06
0.000945483
2.65957e-06
7.15338e-08
0.000946099
2.41942e-06
-9.09947e-06
0.000946305
2.25608e-06
-1.6101e-05
0.000945969
2.79631e-06
-1.69145e-05
0.000937343
3.59329e-06
-8.09184e-06
0.000896794
5.91464e-06
0.000767277
7.94027e-06
5.33828e-06
0.000755522
5.32513e-06
1.22025e-05
0.000883605
4.30901e-06
1.2653e-05
0.000933727
2.12909e-06
7.64408e-06
0.00094932
1.17731e-06
6.75578e-08
0.000952856
8.24291e-07
-7.45599e-06
0.000953029
8.04451e-07
-1.2581e-05
0.000949749
1.34958e-06
-1.23361e-05
0.000934741
2.36158e-06
-5.40809e-06
0.000885607
4.26394e-06
0.000756696
5.17627e-06
3.60324e-06
0.000748186
3.73781e-06
8.61898e-06
0.000876067
2.52681e-06
9.36457e-06
0.000931686
1.30079e-06
5.87332e-06
0.000952398
4.17115e-07
8.89719e-08
0.000958592
5.30427e-08
-5.69186e-06
0.000958719
9.49944e-08
-9.33033e-06
0.000952793
5.99409e-07
-8.77477e-06
0.000932615
1.57457e-06
-3.76348e-06
0.000877546
3.05366e-06
0.00074943
3.50556e-06
2.5418e-06
0.000743029
2.62064e-06
6.04249e-06
0.000870743
1.82821e-06
6.74744e-06
0.000930167
8.18501e-07
4.35677e-06
0.000954726
6.70251e-08
1.46654e-07
0.000963077
-2.70668e-07
-4.10829e-06
0.000963193
-2.14624e-07
-6.65832e-06
0.00095512
2.26731e-07
-6.14216e-06
0.000931039
1.06451e-06
-2.66685e-06
0.000871893
2.18274e-06
0.000744339
2.4282e-06
1.81585e-06
0.000739388
1.83055e-06
4.20748e-06
0.00086699
1.36699e-06
4.7819e-06
0.000929058
5.39041e-07
3.18746e-06
0.000956395
-6.93793e-08
2.28193e-07
0.000966402
-3.61612e-07
-2.80898e-06
0.000966547
-3.12763e-07
-4.58597e-06
0.000956849
5.31083e-08
-4.21438e-06
0.000929959
7.13622e-07
-1.87568e-06
0.000868022
1.53709e-06
0.000740791
1.67512e-06
1.29668e-06
0.000736811
1.28569e-06
2.91772e-06
0.000864378
9.95663e-07
3.38469e-06
0.000928256
3.40106e-07
2.35982e-06
0.000957549
-1.2415e-07
3.31772e-07
0.000968806
-3.71299e-07
-1.79325e-06
0.000968998
-3.20553e-07
-3.03231e-06
0.000958125
-3.24438e-08
-2.80162e-06
0.000929289
4.43498e-07
-1.25007e-06
0.00086544
1.03516e-06
0.000738456
1.08867e-06
9.51533e-07
0.000734949
9.15031e-07
2.08398e-06
0.000862516
7.3496e-07
2.44509e-06
0.000927412
4.87613e-07
1.84965e-06
0.000958201
-5.21803e-08
4.51626e-07
0.000970264
-5.48202e-08
-1.00858e-06
0.000970688
-2.25849e-07
-1.8818e-06
0.00095904
-3.76582e-08
-1.85481e-06
0.000928736
5.30925e-07
-9.22533e-07
0.000863773
7.40177e-07
0.000736763
7.74091e-07
7.37816e-07
0.000733539
6.77673e-07
1.58831e-06
0.000861073
5.9782e-07
1.8739e-06
0.00092632
8.11422e-07
1.59149e-06
0.00095841
7.79233e-08
6.34937e-07
0.000970817
4.0857e-07
-3.59614e-07
0.0009718
-1.12043e-07
-1.01123e-06
0.000959668
2.88937e-08
-1.18443e-06
0.000928128
7.85564e-07
-7.4732e-07
0.000862788
5.52247e-07
0.000735416
6.03488e-07
6.14754e-07
0.00073236
5.70031e-07
1.29516e-06
0.000859851
5.46623e-07
1.61752e-06
0.000925428
5.75054e-07
1.53131e-06
0.000958346
1.55626e-07
9.4952e-07
0.000971142
2.61128e-07
2.56497e-07
0.000972525
-2.78311e-08
-2.74024e-07
0.000960146
5.73442e-08
-5.19981e-07
0.000927921
4.58384e-07
-3.43247e-07
0.000862263
3.53563e-07
0.00073485
2.26317e-07
5.77249e-07
0.000731234
5.54729e-07
1.24176e-06
0.000858648
5.44017e-07
1.65033e-06
0.000924595
4.29431e-07
1.72759e-06
0.000958085
1.88254e-07
1.40704e-06
0.000971307
1.60905e-07
9.18935e-07
0.000973019
-5.18066e-10
4.36555e-07
0.000960607
2.61536e-08
6.98437e-08
0.000928085
2.07576e-07
-1.89641e-08
0.000862208
1.49513e-07
0.000734907
-7.29513e-08
7.63682e-07
0.000729709
7.66891e-07
1.42926e-06
0.000857389
5.99198e-07
1.99237e-06
0.000923923
1.13258e-07
2.19928e-06
0.000957752
1.31127e-07
2.13188e-06
0.000971495
-1.16085e-07
1.7219e-06
0.000973204
2.29982e-07
1.15916e-06
0.000960909
2.65678e-07
6.74851e-07
0.000928762
-1.88527e-07
3.01508e-07
0.000862703
-1.16574e-07
0.000735574
-3.61052e-07
1.16136e-06
0.000727353
1.20029e-06
1.90934e-06
0.000856014
6.32104e-07
2.66333e-06
0.000923171
3.77063e-09
3.05698e-06
0.000957243
1.20594e-07
3.20622e-06
0.000971793
-4.41622e-07
2.7828e-06
0.000973017
6.15697e-07
2.06268e-06
0.00096104
5.94027e-07
1.28717e-06
0.000929946
-4.03045e-07
4.75569e-07
0.000863823
-3.03269e-07
0.000736605
-5.51945e-07
1.30357e-06
0.000724759
1.2971e-06
2.58837e-06
0.000854109
6.26278e-07
3.68814e-06
0.000921454
6.22776e-07
4.43852e-06
0.000956335
1.63194e-07
4.68903e-06
0.000971763
-2.16091e-07
4.30013e-06
0.000973304
1.0639e-07
3.41122e-06
0.000961885
4.93705e-08
2.11408e-06
0.000931235
1.38482e-08
7.96574e-07
0.000865711
-5.65397e-07
0.000738336
-9.30501e-07
1.58223e-06
0.000721848
1.33448e-06
3.43897e-06
0.000851321
9.36532e-07
5.16837e-06
0.000919048
6.81931e-07
6.45153e-06
0.00095484
2.1747e-07
6.88811e-06
0.000971184
1.48604e-07
6.54032e-06
0.000974161
-5.03116e-07
5.36044e-06
0.000963712
-6.41904e-07
3.51164e-06
0.000933385
-2.95527e-07
1.64213e-06
0.000868623
-1.03605e-06
0.000741788
-1.80587e-06
2.57477e-06
0.000717225
2.05445e-06
4.85404e-06
0.000847238
1.80956e-06
7.39706e-06
0.000915647
8.63185e-07
9.37113e-06
0.000952311
5.60531e-07
1.02235e-05
0.00096973
6.06446e-07
9.83956e-06
0.000974709
-1.58385e-07
8.10752e-06
0.000965831
-3.81631e-07
5.43532e-06
0.000936688
-6.25842e-07
2.37649e-06
0.000873025
-1.33719e-06
0.000746766
-2.59688e-06
3.83946e-06
0.000710169
3.22356e-06
6.91268e-06
0.000841447
2.72454e-06
1.06362e-05
0.000911078
8.52319e-07
1.35517e-05
0.0009485
9.01225e-07
1.51576e-05
0.000967949
1.80918e-07
1.47325e-05
0.000974873
2.67033e-07
1.22632e-05
0.000968331
-2.4408e-08
8.41748e-06
0.00094178
-1.23974e-06
3.79107e-06
0.000879461
-1.80379e-06
0.00075448
-3.91887e-06
4.83596e-06
0.000701057
4.28226e-06
9.59025e-06
0.000833972
2.7265e-06
1.51101e-05
0.000904977
5.87122e-07
1.96563e-05
0.000943672
2.87769e-07
2.22914e-05
0.000965834
-5.13249e-07
2.20345e-05
0.000975497
-3.61099e-07
1.87288e-05
0.000972471
-8.27845e-07
1.30168e-05
0.000949773
-2.27474e-06
6.24598e-06
0.000889793
-3.55355e-06
0.000766643
-5.91135e-06
6.26399e-06
0.000689187
5.61322e-06
1.34007e-05
0.000824031
2.81192e-06
2.14806e-05
0.000896111
7.91967e-07
2.85295e-05
0.000937082
-4.51853e-07
3.27402e-05
0.00096239
-7.59723e-07
3.29494e-05
0.000976604
-1.30996e-06
2.85203e-05
0.000978832
-1.92453e-06
1.99701e-05
0.00096139
-3.05903e-06
9.60541e-06
0.000906032
-5.86753e-06
0.00078481
-8.55607e-06
8.62677e-06
0.000672984
7.58375e-06
1.87356e-05
0.000810123
3.80609e-06
3.04852e-05
0.000883446
9.2281e-07
4.11218e-05
0.000927117
-6.65321e-07
4.80176e-05
0.000956693
-1.19175e-06
4.9192e-05
0.000977228
-1.79086e-06
4.33847e-05
0.000987195
-2.5479e-06
3.09658e-05
0.000977977
-4.15997e-06
1.49654e-05
0.000930165
-8.12375e-06
0.000812315
-1.25335e-05
1.14715e-05
0.000651518
1.00021e-05
2.56921e-05
0.000790969
4.94087e-06
4.27118e-05
0.00086562
8.14009e-07
5.87106e-05
0.000912326
-1.19924e-06
6.99629e-05
0.000947447
-1.99803e-06
7.32551e-05
0.000976523
-2.5784e-06
6.62192e-05
0.000997676
-3.43718e-06
4.85825e-05
0.00100128
-5.65395e-06
2.39548e-05
0.000965936
-1.11326e-05
0.000854358
-1.80809e-05
1.47064e-05
0.000623909
1.29102e-05
3.44435e-05
0.000765245
5.99536e-06
5.88681e-05
0.000840924
2.79814e-07
8.27982e-05
0.000890794
-2.38937e-06
0.000101022
0.000932683
-3.45186e-06
0.000108624
0.000972932
-4.00177e-06
0.00010129
0.00100987
-4.84404e-06
7.70304e-05
0.00103313
-7.58232e-06
3.93274e-05
0.00101868
-1.50288e-05
0.000919084
-2.53902e-05
1.81048e-05
0.000589552
1.62612e-05
4.50081e-05
0.000731566
6.78449e-06
7.95947e-05
0.000807324
-9.77586e-07
0.000114979
0.000860031
-4.61239e-06
0.000144153
0.000909532
-6.01224e-06
0.000159924
0.000963679
-6.50717e-06
0.00015486
0.00102205
-7.10481e-06
0.000123337
0.00107468
-1.00163e-05
6.62787e-05
0.00109534
-1.95939e-05
0.00101966
-3.42928e-05
2.1243e-05
0.000548337
1.99819e-05
5.70623e-05
0.000688717
7.03931e-06
0.000105175
0.000762655
-3.4346e-06
0.000156649
0.000817004
-8.43794e-06
0.00020254
0.000874042
-1.039e-05
0.000232961
0.000944147
-1.08779e-05
0.000236071
0.00102991
-1.09592e-05
0.000199501
0.00112444
-1.31744e-05
0.000115117
0.00120375
-2.40155e-05
0.00117787
-4.30751e-05
2.34328e-05
0.000500999
2.39151e-05
6.98748e-05
0.000635936
6.34853e-06
0.000135303
0.000704926
-7.68786e-06
0.000208545
0.00075841
-1.46371e-05
0.000278886
0.000821302
-1.75896e-05
0.000333945
0.00090754
-1.84397e-05
0.000356628
0.00102526
-1.8027e-05
0.000323765
0.00117559
-1.82827e-05
0.000205904
0.00134892
-2.72865e-05
0.00143227
-4.84908e-05
2.38835e-05
0.000449229
2.78971e-05
8.24139e-05
0.000573172
4.24505e-06
0.000169102
0.000632678
-1.44297e-05
0.000270409
0.000681192
-2.40777e-05
0.000374709
0.000745798
-2.87839e-05
0.00046892
0.000844274
-3.09335e-05
0.000533106
0.000992321
-3.12326e-05
0.000531822
0.00120697
-3.0077e-05
0.000393938
0.00151149
-2.46792e-05
0.00186348
-3.7265e-05
2.20435e-05
3.16177e-05
0.000395579
9.40066e-05
1.05058e-07
0.000501115
0.000205544
-2.43254e-05
0.000545478
0.00034072
-3.73467e-05
0.000583374
0.000488365
-4.45446e-05
0.00064271
0.000637798
-4.91399e-05
0.000743994
0.000771727
-5.21304e-05
0.00091054
0.000844055
-5.4114e-05
0.00118877
0.000747259
-3.89246e-05
0.00164724
-9.38106e-06
0.00262015
4.62526e-05
0.00097474
2.40308e-05
2.31597e-05
0.00104457
2.29005e-05
9.75042e-06
0.00103545
2.32471e-05
3.67152e-06
0.00102774
2.35861e-05
-7.50474e-08
0.00102531
2.40009e-05
-3.56524e-06
0.00102491
2.43066e-05
-9.65137e-06
0.00102743
2.3653e-05
-2.25488e-05
0.00103472
2.323e-05
-4.43427e-05
0.00104351
2.25571e-05
0.000976467
2.40427e-05
3.03166e-05
0.000947048
2.9112e-05
2.84444e-05
0.00104679
2.79293e-05
1.92587e-05
0.00104501
2.80154e-05
8.78909e-06
0.00103787
2.88535e-05
-3.44174e-07
0.00103419
2.95996e-05
-8.68492e-06
0.00103344
2.99286e-05
-1.90149e-05
0.00103727
2.89245e-05
-2.76549e-05
0.00104341
2.80291e-05
-2.79689e-05
0.00104411
2.7654e-05
0.000950339
2.92664e-05
1.34583e-05
0.000926678
2.67652e-05
2.33112e-05
0.00102858
2.32548e-05
1.93524e-05
0.00103992
2.24965e-05
1.00719e-05
0.00103777
2.3098e-05
-1.07088e-07
0.00103491
2.35695e-05
-1.01815e-05
0.00103435
2.34917e-05
-1.91782e-05
0.00103693
2.29995e-05
-2.31274e-05
0.00103822
2.23221e-05
-1.41198e-05
0.00102641
2.32215e-05
0.000929413
2.67345e-05
7.0653e-06
0.000909506
2.22547e-05
1.75473e-05
0.00100908
1.78334e-05
1.65205e-05
0.00103164
1.55395e-05
9.44655e-06
0.0010357
1.52024e-05
1.56538e-07
0.00103509
1.51693e-05
-9.40385e-06
0.00103466
1.49558e-05
-1.62496e-05
0.00103485
1.50378e-05
-1.738e-05
0.00103026
1.5317e-05
-8.01674e-06
0.00100795
1.76308e-05
0.000911821
2.21834e-05
4.77663e-06
0.000895453
1.71125e-05
1.28624e-05
0.000994167
1.32881e-05
1.30625e-05
0.00102474
1.0143e-05
7.93372e-06
0.00103459
8.90157e-06
2.40614e-07
0.00103675
8.45968e-06
-7.62034e-06
0.00103644
8.3444e-06
-1.26877e-05
0.00103389
8.82212e-06
-1.26549e-05
0.00102382
1.00047e-05
-5.56388e-06
0.000993842
1.29353e-05
0.000897297
1.69042e-05
3.71581e-06
0.000884606
1.24615e-05
9.26076e-06
0.000983368
9.56624e-06
9.80391e-06
0.0010197
6.62492e-06
6.16841e-06
0.00103437
5.02915e-06
2.64845e-07
0.00103911
4.36525e-06
-5.72672e-06
0.00103891
4.32723e-06
-9.44002e-06
0.00103391
5.04269e-06
-9.17221e-06
0.00101929
6.62081e-06
-4.12398e-06
0.000983672
9.38883e-06
0.000886168
1.21839e-05
2.95569e-06
0.000876623
8.76982e-06
6.56064e-06
0.00097565
6.64334e-06
7.10329e-06
0.00101617
4.29813e-06
4.58078e-06
0.00103456
2.75328e-06
2.77204e-07
0.00104143
2.0456e-06
-4.09662e-06
0.00104133
2.05411e-06
-6.77685e-06
0.00103437
2.82588e-06
-6.54309e-06
0.00101624
4.39265e-06
-3.02406e-06
0.000976511
6.69971e-06
0.00087808
8.57314e-06
2.203e-06
0.000870967
6.07871e-06
4.63039e-06
0.00097047
4.58386e-06
5.03932e-06
0.00101381
2.76657e-06
3.32387e-06
0.00103489
1.45416e-06
2.96671e-07
0.00104337
8.13591e-07
-2.79934e-06
0.00104336
8.46147e-07
-4.70458e-06
0.00103496
1.5477e-06
-4.56554e-06
0.00101428
2.89509e-06
-2.18598e-06
0.000971618
4.69959e-06
0.000872365
5.96083e-06
1.59025e-06
0.00086703
4.18194e-06
3.25614e-06
0.000967022
3.15254e-06
3.55388e-06
0.00101228
1.78028e-06
2.41056e-06
0.00103522
7.49775e-07
3.38446e-07
0.00104486
2.29156e-07
-1.80643e-06
0.00104493
2.66179e-07
-3.14955e-06
0.00103552
8.38971e-07
-3.10144e-06
0.00101305
1.89735e-06
-1.53234e-06
0.000968345
3.24479e-06
0.000868428
4.083e-06
1.12883e-06
0.000864313
2.87961e-06
2.28273e-06
0.00096469
2.17698e-06
2.52875e-06
0.00101121
1.16138e-06
1.79364e-06
0.00103544
3.90487e-07
4.20735e-07
0.00104586
-2.24477e-10
-1.04776e-06
0.00104605
2.76316e-08
-1.99845e-06
0.00103598
4.57624e-07
-2.00611e-06
0.00101226
1.23851e-06
-1.00276e-06
0.000966178
2.20257e-06
0.000865775
2.74249e-06
7.87371e-07
0.00086243
2.01525e-06
1.57343e-06
0.000963081
1.56165e-06
1.89702e-06
0.00101049
8.89952e-07
1.39955e-06
0.00103561
2.80218e-07
5.97684e-07
0.00104658
3.35269e-08
-4.41555e-07
0.00104688
-1.13143e-08
-1.1786e-06
0.00103639
2.89536e-07
-1.15027e-06
0.00101187
9.01495e-07
-6.11121e-07
0.000964864
1.51811e-06
0.000864094
1.84659e-06
5.47043e-07
0.00086108
1.48566e-06
1.09063e-06
0.000961938
1.20061e-06
1.55229e-06
0.00101004
8.0153e-07
1.21456e-06
0.00103573
2.96514e-07
8.59301e-07
0.00104718
1.64457e-07
8.36078e-08
0.00104751
3.83874e-08
-5.28129e-07
0.0010368
2.37266e-07
-4.56286e-07
0.00101185
7.31139e-07
-2.82957e-07
0.000964176
1.07102e-06
0.000863186
1.2321e-06
4.83219e-07
0.000859981
1.19164e-06
9.89886e-07
0.000960995
9.86303e-07
1.43279e-06
0.00100949
6.82713e-07
1.33783e-06
0.00103567
3.10213e-07
1.13973e-06
0.00104745
1.93288e-07
6.02623e-07
0.00104794
8.33983e-08
1.18125e-07
0.00103714
1.99473e-07
3.26612e-08
0.00101189
5.06513e-07
6.42173e-09
0.000963874
6.84719e-07
0.00086274
6.82296e-07
5.80658e-07
0.000858891
1.06937e-06
1.15182e-06
0.000960089
8.83261e-07
1.59546e-06
0.00100889
5.92017e-07
1.69385e-06
0.00103546
3.11469e-07
1.57009e-06
0.00104755
1.85029e-07
1.20652e-06
0.0010482
1.04191e-07
7.9226e-07
0.00103743
1.52628e-07
4.94762e-07
0.00101212
2.84138e-07
2.55575e-07
0.000963942
3.25228e-07
0.000862725
2.01875e-07
8.49243e-07
0.000857673
1.14172e-06
1.58907e-06
0.000959076
8.7548e-07
2.03476e-06
0.00100808
4.80481e-07
2.33914e-06
0.00103501
2.77504e-07
2.16727e-06
0.0010475
1.13657e-07
1.98967e-06
0.00104844
1.7092e-07
1.67126e-06
0.00103785
1.70336e-07
1.02057e-06
0.00101256
2.39729e-08
5.1614e-07
0.000964372
-3.89247e-08
0.000863139
-2.55522e-07
1.52812e-06
0.000855982
1.36795e-06
2.32607e-06
0.000957899
1.01487e-06
2.87966e-06
0.00100702
5.12968e-07
3.38054e-06
0.00103435
2.76006e-07
3.14106e-06
0.00104725
4.84974e-08
3.0999e-06
0.00104887
2.33698e-07
2.73358e-06
0.00103863
1.82837e-07
1.72811e-06
0.00101334
-1.72282e-07
8.28065e-07
0.000965367
-3.93552e-07
0.000864131
-7.12289e-07
2.27687e-06
0.00085339
1.61866e-06
3.11334e-06
0.000956446
1.24745e-06
4.16059e-06
0.00100587
7.29429e-07
4.85744e-06
0.00103349
3.35758e-07
4.93919e-06
0.00104689
6.70486e-08
4.72166e-06
0.00104913
6.00746e-08
3.94885e-06
0.00103952
-6.64289e-08
2.83914e-06
0.00101481
-3.44196e-07
1.38387e-06
0.00096708
-8.1931e-07
0.000865917
-1.32823e-06
2.32761e-06
0.000850372
2.03057e-06
4.12271e-06
0.000954094
1.49671e-06
5.84021e-06
0.00100393
9.0318e-07
6.99818e-06
0.00103213
4.24288e-07
7.59349e-06
0.00104629
1.47163e-07
7.13996e-06
0.00104926
-1.71993e-07
5.88917e-06
0.00104056
-4.28701e-07
4.31109e-06
0.00101682
-7.30915e-07
2.20234e-06
0.000969625
-1.46787e-06
0.000868611
-2.29364e-06
2.70938e-06
0.000846835
2.88747e-06
5.74996e-06
0.000950806
2.06116e-06
8.23735e-06
0.00100115
1.16323e-06
1.01479e-05
0.00103018
6.01384e-07
1.11953e-05
0.00104561
2.48244e-07
1.07355e-05
0.00104976
-1.99703e-07
9.0961e-06
0.00104243
-6.11512e-07
6.51188e-06
0.00102001
-1.22662e-06
3.41369e-06
0.000973651
-2.26124e-06
0.000872961
-3.5294e-06
4.21567e-06
0.000841727
4.12171e-06
8.36517e-06
0.000946531
2.85446e-06
1.18221e-05
0.000997146
1.40266e-06
1.49156e-05
0.0010273
6.90741e-07
1.63142e-05
0.0010443
9.67382e-08
1.60607e-05
0.00105058
-2.94796e-07
1.39508e-05
0.00104541
-8.81487e-07
9.91012e-06
0.00102482
-2.00523e-06
5.29277e-06
0.000979924
-3.45447e-06
0.000879684
-5.34363e-06
6.44265e-06
0.000834124
5.44913e-06
1.21062e-05
0.000940085
3.5135e-06
1.72718e-05
0.000991039
1.5323e-06
2.17945e-05
0.00102261
4.61449e-07
2.40845e-05
0.00104181
-3.08771e-07
2.39686e-05
0.00105115
-8.06385e-07
2.09679e-05
0.00104921
-1.62648e-06
1.51621e-05
0.00103157
-3.20889e-06
7.89134e-06
0.000989105
-5.45867e-06
0.000889747
-8.07865e-06
9.32237e-06
0.000823303
7.11824e-06
1.71989e-05
0.000930712
4.31272e-06
2.5032e-05
0.000982291
1.71025e-06
3.15694e-05
0.00101553
8.82521e-08
3.55658e-05
0.00103788
-8.23524e-07
3.57027e-05
0.0010513
-1.59329e-06
3.14956e-05
0.00105418
-2.68633e-06
2.33425e-05
0.00104141
-4.74194e-06
1.20181e-05
0.00100276
-8.19674e-06
0.000905108
-1.18931e-05
1.28585e-05
0.00080855
9.48548e-06
2.4147e-05
0.000917713
5.52086e-06
3.55955e-05
0.000969868
1.90145e-06
4.54922e-05
0.00100532
-3.45675e-07
5.19967e-05
0.00103173
-1.54275e-06
5.30733e-05
0.00105095
-2.51744e-06
4.7699e-05
0.00106093
-3.92068e-06
3.60533e-05
0.00105561
-6.71239e-06
1.8963e-05
0.00102341
-1.1677e-05
0.0009287
-1.71559e-05
1.74098e-05
0.000788655
1.24942e-05
3.34432e-05
0.000899626
7.00023e-06
4.99763e-05
0.000952236
1.9172e-06
6.49165e-05
0.000990321
-1.13609e-06
7.54511e-05
0.00102191
-2.71358e-06
7.86245e-05
0.00104906
-3.85786e-06
7.23463e-05
0.00106934
-5.55854e-06
5.60284e-05
0.00107554
-9.2616e-06
3.02897e-05
0.00105421
-1.61858e-05
0.000965179
-2.42627e-05
2.31275e-05
0.000762351
1.60952e-05
4.551e-05
0.000874744
8.49951e-06
6.91461e-05
0.000927423
1.46224e-06
9.14606e-05
0.000968296
-2.67433e-06
0.000108477
0.00100616
-4.71402e-06
0.000115818
0.00104371
-5.98321e-06
0.000109629
0.00107854
-7.85653e-06
8.76445e-05
0.00110242
-1.24663e-05
4.90401e-05
0.00109962
-2.18194e-05
0.00102225
-3.3408e-05
2.99783e-05
0.000728442
2.01995e-05
6.06541e-05
0.000841113
9.74536e-06
9.3956e-05
0.000893026
1.22021e-07
0.000126835
0.000936288
-5.47831e-06
0.000153989
0.000981118
-8.11523e-06
0.000169102
0.00103154
-9.44485e-06
0.000165604
0.00108613
-1.11847e-05
0.000137893
0.00113647
-1.63471e-05
8.07749e-05
0.00116543
-2.82804e-05
0.00111298
-4.42463e-05
3.78169e-05
0.00068604
2.45757e-05
7.89195e-05
0.000796705
1.03505e-05
0.000124945
0.000846263
-2.6918e-06
0.000172488
0.000890602
-1.02896e-05
0.000214963
0.000942055
-1.37957e-05
0.000243814
0.00100699
-1.51792e-05
0.000248683
0.00108663
-1.63166e-05
0.000218092
0.00117492
-2.1034e-05
0.000135873
0.0012584
-3.47567e-05
0.00126104
-5.52555e-05
4.62774e-05
0.00063484
2.88472e-05
9.99665e-05
0.000739698
9.67259e-06
0.00016216
0.000784166
-7.77821e-06
0.000229278
0.000826947
-1.80947e-05
0.000293844
0.000882883
-2.29763e-05
0.00034535
0.00096173
-2.46738e-05
0.000369105
0.00106978
-2.49323e-05
0.000345112
0.00120802
-2.73803e-05
0.000233493
0.00138231
-3.95658e-05
0.00150945
-6.33877e-05
5.50985e-05
0.000575229
3.24189e-05
0.000123467
0.000668734
6.84798e-06
0.000205379
0.000703934
-1.61042e-05
0.000297344
0.00074086
-2.99506e-05
0.000391925
0.000796488
-3.69638e-05
0.000478318
0.000884202
-3.97929e-05
0.000539001
0.00101778
-3.99081e-05
0.000546428
0.00120894
-3.84069e-05
0.000422557
0.00152232
-4.07957e-05
0.00195719
-6.24385e-05
6.45302e-05
3.4379e-05
0.000507947
0.000149573
7.3812e-07
0.000583064
0.000254575
-2.86256e-05
0.000603237
0.00037631
-4.65638e-05
0.000628347
0.000508593
-5.63302e-05
0.000675997
0.000643372
-6.13544e-05
0.000761646
0.000765416
-6.29016e-05
0.000906523
0.000828075
-5.8653e-05
0.00115084
0.000732228
-4.60036e-05
0.00162527
-5.47991e-05
0.00273484
4.55643e-05
0.000968
1.04679e-05
2.33718e-05
0.00103541
9.68248e-06
9.94839e-06
0.00102678
9.89659e-06
3.79682e-06
0.00101944
1.03028e-05
-4.03746e-08
0.00101728
1.05612e-05
-3.72915e-06
0.00101735
1.06469e-05
-9.93925e-06
0.00101948
1.03815e-05
-2.32088e-05
0.00102653
9.96879e-06
-4.49353e-05
0.00103467
9.6201e-06
0.000968615
1.04936e-05
2.87695e-05
0.000949111
1.9237e-05
2.8255e-05
0.00104488
1.89804e-05
1.94792e-05
0.00104421
1.93624e-05
9.19699e-06
0.00103847
2.01121e-05
-1.63711e-07
0.00103554
2.07005e-05
-9.34208e-06
0.00103557
2.089e-05
-1.9575e-05
0.00103841
2.02328e-05
-2.80619e-05
0.00104359
1.94677e-05
-2.79579e-05
0.00104328
1.89375e-05
0.000950575
1.93523e-05
1.34665e-05
0.000941576
2.08386e-05
2.26225e-05
0.0010397
1.92843e-05
1.8882e-05
0.00105162
1.88266e-05
9.93945e-06
0.00105119
1.93194e-05
-1.59193e-07
0.00104947
1.97399e-05
-1.02083e-05
0.00104936
1.97547e-05
-1.88651e-05
0.00105081
1.92616e-05
-2.22744e-05
0.00105062
1.87037e-05
-1.29045e-05
0.00103802
1.9117e-05
0.000943489
2.09189e-05
5.95823e-06
0.000938467
1.94098e-05
1.54692e-05
0.00103142
1.66068e-05
1.49247e-05
0.00105276
1.49478e-05
8.64299e-06
0.001058
1.46718e-05
3.32777e-08
0.00105857
1.4683e-05
-8.59754e-06
0.00105835
1.46006e-05
-1.46518e-05
0.00105737
1.45363e-05
-1.50388e-05
0.00105157
1.47479e-05
-5.81379e-06
0.00103009
1.63439e-05
0.000940531
1.93309e-05
3.04264e-06
0.000936148
1.63933e-05
9.96265e-06
0.00102458
1.32044e-05
1.0719e-05
0.00105137
1.07814e-05
6.69254e-06
0.00106121
9.72583e-06
2.04848e-07
0.00106419
9.33422e-06
-6.30249e-06
0.00106394
9.26098e-06
-1.02538e-05
0.00106053
9.6113e-06
-9.58776e-06
0.00105032
1.05906e-05
-3.25862e-06
0.00102381
1.28882e-05
0.000938
1.61792e-05
1.89703e-06
0.000933911
1.28058e-05
6.47531e-06
0.00101964
9.93552e-06
7.35649e-06
0.0010497
7.41098e-06
4.81476e-06
0.00106282
5.96535e-06
3.06434e-07
0.00106773
5.33215e-06
-4.24061e-06
0.00106752
5.29538e-06
-6.84038e-06
0.00106226
5.91234e-06
-6.19576e-06
0.00104901
7.29725e-06
-2.1455e-06
0.00101946
9.69178e-06
0.000935479
1.25626e-05
1.26936e-06
0.000931934
9.4825e-06
4.23859e-06
0.00101616
7.15176e-06
4.94592e-06
0.00104835
4.94648e-06
3.34819e-06
0.00106367
3.49852e-06
3.52204e-07
0.00106996
2.81008e-06
-2.69924e-06
0.00106983
2.80271e-06
-4.43854e-06
0.00106333
3.49859e-06
-4.02846e-06
0.00104807
4.92007e-06
-1.4412e-06
0.00101652
7.0506e-06
0.000933324
9.28949e-06
8.82857e-07
0.000930346
6.78854e-06
2.79207e-06
0.00101385
4.99237e-06
3.30403e-06
0.00104738
3.23052e-06
2.31446e-06
0.00106412
1.9908e-06
3.75972e-07
0.00107135
1.37295e-06
-1.62261e-06
0.00107129
1.3833e-06
-2.79089e-06
0.00106403
2.02293e-06
-2.57838e-06
0.00104749
3.26188e-06
-9.59177e-07
0.00101461
4.99199e-06
0.000931675
6.65425e-06
6.39799e-07
0.000929138
4.75468e-06
1.87797e-06
0.00101234
3.42889e-06
2.24325e-06
0.0010467
2.09225e-06
1.64257e-06
0.00106436
1.12186e-06
4.10288e-07
0.00107218
6.27574e-07
-8.84327e-07
0.00107221
6.44407e-07
-1.67223e-06
0.00106449
1.16566e-06
-1.58665e-06
0.00104716
2.14352e-06
-5.99569e-07
0.00101341
3.45972e-06
0.000930514
4.6477e-06
4.77285e-07
0.000928246
3.29891e-06
1.31248e-06
0.00101132
2.36349e-06
1.59445e-06
0.00104621
1.37773e-06
1.24711e-06
0.00106444
6.52421e-07
4.80613e-07
0.00107267
2.83193e-07
-3.58115e-07
0.00107278
2.96001e-07
-9.01313e-07
0.00106481
6.86873e-07
-8.95053e-07
0.00104699
1.41204e-06
-3.16175e-07
0.00101268
2.36285e-06
0.000929775
3.16853e-06
3.67489e-07
0.000927586
2.31325e-06
9.65299e-07
0.0010106
1.68563e-06
1.23875e-06
0.00104584
9.80944e-07
1.06193e-06
0.00106446
4.3992e-07
6.1725e-07
0.00107297
1.76131e-07
5.91001e-08
0.00107316
1.66683e-07
-3.4211e-07
0.00106506
4.40801e-07
-3.76732e-07
0.00104696
9.64231e-07
-8.66771e-08
0.00101229
1.6142e-06
0.000929407
2.13119e-06
3.24858e-07
0.000927061
1.6909e-06
8.01191e-07
0.00101005
1.27345e-06
1.10644e-06
0.00104556
7.76687e-07
1.06237e-06
0.00106444
3.67601e-07
8.35585e-07
0.00107318
1.80261e-07
4.50115e-07
0.00107344
1.44611e-07
1.26624e-07
0.0010653
3.21893e-07
4.68523e-08
0.00104708
6.87992e-07
1.12682e-07
0.0010122
1.10609e-06
0.00092934
1.41523e-06
3.83242e-07
0.00092655
1.3241e-06
8.43703e-07
0.00100956
1.02495e-06
1.18771e-06
0.00104525
6.57849e-07
1.26127e-06
0.00106433
3.45099e-07
1.16041e-06
0.00107328
1.98605e-07
8.86517e-07
0.00107365
1.50281e-07
5.95979e-07
0.00106554
2.50401e-07
4.22278e-07
0.00104729
4.77529e-07
2.95622e-07
0.0010123
7.13819e-07
0.000929463
8.58537e-07
5.48187e-07
0.000925936
1.13987e-06
1.08293e-06
0.00100902
8.88572e-07
1.49545e-06
0.00104484
5.85824e-07
1.67863e-06
0.00106412
3.38512e-07
1.65691e-06
0.00107328
2.0577e-07
1.44657e-06
0.00107382
1.52872e-07
1.1418e-06
0.00106581
1.91134e-07
8.2833e-07
0.0010476
2.8853e-07
4.90642e-07
0.00101259
3.72819e-07
0.000929776
3.82246e-07
8.39908e-07
0.000925116
1.12733e-06
1.54029e-06
0.00100836
8.43518e-07
2.06078e-06
0.00104427
5.40226e-07
2.37051e-06
0.00106376
3.28513e-07
2.39266e-06
0.00107318
1.93717e-07
2.22819e-06
0.001074
1.57421e-07
1.8791e-06
0.00106619
1.40201e-07
1.34389e-06
0.00104807
9.32945e-08
7.36076e-07
0.00101312
4.1926e-08
0.000930327
-6.67283e-08
1.32042e-06
0.000923894
1.27477e-06
2.25062e-06
0.00100751
9.33312e-07
2.97111e-06
0.00104348
5.76993e-07
3.44147e-06
0.00106323
3.40024e-07
3.52174e-06
0.00107297
1.80481e-07
3.36514e-06
0.00107424
1.46196e-07
2.89423e-06
0.00106678
7.0141e-08
2.08048e-06
0.00104882
-1.05819e-07
1.09245e-06
0.00101402
-3.05126e-07
0.000931248
-5.3662e-07
1.92203e-06
0.000922056
1.53938e-06
3.22301e-06
0.00100631
1.14713e-06
4.30804e-06
0.00104243
7.04047e-07
5.03733e-06
0.00106245
3.84629e-07
5.27337e-06
0.00107263
1.71917e-07
5.04735e-06
0.00107447
6.32589e-08
4.31896e-06
0.00106753
-9.14542e-08
3.15273e-06
0.00105
-3.5662e-07
1.64097e-06
0.00101545
-7.2682e-07
0.000932691
-1.12726e-06
2.6374e-06
0.00091952
1.93514e-06
4.5633e-06
0.00100444
1.4437e-06
6.2131e-06
0.00104081
8.76049e-07
7.36784e-06
0.00106127
4.52752e-07
7.87021e-06
0.00107211
1.68449e-07
7.55649e-06
0.00107468
-6.70675e-08
6.46326e-06
0.00106853
-3.33512e-07
4.73919e-06
0.00105172
-7.23772e-07
2.47018e-06
0.00101757
-1.32175e-06
0.00093484
-1.96793e-06
3.67822e-06
0.000916132
2.60247e-06
6.52238e-06
0.00100176
1.89883e-06
8.97153e-06
0.00103841
1.10967e-06
1.07776e-05
0.00105952
5.48754e-07
1.16417e-05
0.00107134
1.58857e-07
1.12984e-05
0.00107502
-1.94388e-07
9.7612e-06
0.00107006
-6.05215e-07
7.16926e-06
0.00105431
-1.2226e-06
3.75764e-06
0.00102085
-2.12486e-06
0.000938187
-3.1147e-06
5.28077e-06
0.0009114
3.57884e-06
9.42075e-06
0.000997983
2.49872e-06
1.30222e-05
0.00103485
1.36582e-06
1.57964e-05
0.00105684
6.03023e-07
1.71739e-05
0.00107
5.78374e-08
1.68668e-05
0.00107543
-3.99615e-07
1.47435e-05
0.0010723
-9.94633e-07
1.08796e-05
0.00105812
-1.95189e-06
5.72888e-06
0.00102583
-3.28206e-06
0.000943325
-4.74836e-06
7.63002e-06
0.000904457
4.76797e-06
1.36089e-05
0.000992361
3.16036e-06
1.89345e-05
0.00102947
1.59028e-06
2.3107e-05
0.0010526
5.31095e-07
2.53498e-05
0.00106765
-2.00448e-07
2.5147e-05
0.00107564
-8.06013e-07
2.21997e-05
0.00107526
-1.63838e-06
1.65611e-05
0.00106358
-3.02436e-06
8.73146e-06
0.00103322
-5.00794e-06
0.00095112
-7.1376e-06
1.08711e-05
0.000894458
6.25164e-06
1.94916e-05
0.000984091
3.96586e-06
2.73345e-05
0.00102153
1.81296e-06
3.36011e-05
0.00104609
3.33865e-07
3.72883e-05
0.00106377
-6.26669e-07
3.7424e-05
0.00107535
-1.43594e-06
3.3458e-05
0.0010791
-2.55651e-06
2.5343e-05
0.00107144
-4.47966e-06
1.34782e-05
0.00104428
-7.39145e-06
0.000963195
-1.04837e-05
1.52025e-05
0.000880541
8.20692e-06
2.75559e-05
0.000972204
5.05808e-06
3.89986e-05
0.00100994
2.0435e-06
4.84526e-05
0.0010363
-1.1799e-08
5.44836e-05
0.00105748
-1.27677e-06
5.55343e-05
0.00107409
-2.31295e-06
5.05225e-05
0.00108396
-3.7672e-06
3.90033e-05
0.00108263
-6.38137e-06
2.11194e-05
0.00106102
-1.05274e-05
0.00098218
-1.50151e-05
2.08491e-05
0.000861496
1.06963e-05
3.83829e-05
0.000955306
6.36872e-06
5.49318e-05
0.000993166
2.14892e-06
6.91441e-05
0.00102162
-6.63891e-07
7.89759e-05
0.00104725
-2.31895e-06
8.20369e-05
0.00107076
-3.58535e-06
7.62856e-05
0.00108954
-5.37993e-06
6.03492e-05
0.00109813
-8.81968e-06
3.35135e-05
0.00108623
-1.45501e-05
0.00101243
-2.09953e-05
2.80165e-05
0.00083594
1.36422e-05
5.25589e-05