/*--------------------------------*- C++ -*----------------------------------*\
| =========                 |                                                 |
| \\      /  F ield         | OpenFOAM: The Open Source CFD Toolbox           |
|  \\    /   O peration     | Version:  2112                                  |
|   \\  /    A nd           | Website:  www.openfoam.com                      |
|    \\/     M anipulation  |                                                 |
\*---------------------------------------------------------------------------*/
FoamFile
{
    version     2.0;
    format      ascii;
    arch        "LSB;label=32;scalar=64";
    class       volScalarField;
    location    "21.5";
    object      p;
}
// * * * * * * * * * * * * * * * * * * * * * * * * * * * * * * * * * * * * * //

dimensions      [0 2 -2 0 0 0 0];

internalField   nonuniform List<scalar> 
8800
(
0.41345
0.365665
0.326979
0.297984
0.277119
0.262282
0.251672
0.244166
0.239292
0.237132
0.238248
0.24228
0.248784
0.257985
0.27068
0.288354
0.313089
0.346999
0.38952
0.448218
0.244698
0.252377
0.259858
0.263169
0.261668
0.256591
0.250101
0.244008
0.239245
0.236322
0.235907
0.238238
0.242568
0.248383
0.255047
0.261246
0.26483
0.264061
0.258595
0.249878
0.223098
0.229264
0.233403
0.236362
0.238423
0.239033
0.237921
0.235796
0.233721
0.232689
0.233484
0.235687
0.23832
0.240362
0.240856
0.239567
0.23715
0.2337
0.229114
0.225345
0.2173
0.219957
0.222731
0.225161
0.226818
0.227992
0.228732
0.228824
0.228459
0.228277
0.228837
0.229807
0.230459
0.230358
0.229609
0.228402
0.226488
0.223837
0.221386
0.219881
0.211936
0.213368
0.21519
0.217274
0.219106
0.220484
0.221483
0.222256
0.222805
0.223229
0.223654
0.223898
0.223768
0.223277
0.222393
0.220979
0.219139
0.217171
0.2158
0.214972
0.206898
0.207822
0.209132
0.210794
0.212517
0.214119
0.215449
0.216503
0.217383
0.218106
0.218531
0.218569
0.218247
0.217535
0.216392
0.214953
0.213414
0.21198
0.211078
0.210539
0.202113
0.202781
0.203834
0.205269
0.206811
0.208386
0.20992
0.211289
0.212434
0.213344
0.213851
0.213844
0.213362
0.212466
0.21131
0.210044
0.208743
0.207594
0.206917
0.206533
0.19752
0.198018
0.198923
0.20025
0.201713
0.203238
0.204797
0.206314
0.207667
0.208765
0.209398
0.209428
0.208932
0.208078
0.207035
0.205896
0.204735
0.203748
0.203212
0.202933
0.193214
0.193586
0.194365
0.195598
0.197009
0.198469
0.199961
0.201498
0.203026
0.204375
0.205147
0.205242
0.204878
0.20423
0.20338
0.202385
0.201348
0.200507
0.200088
0.199885
0.189152
0.18942
0.190122
0.191323
0.19273
0.194223
0.195799
0.197387
0.198955
0.200427
0.201474
0.201884
0.20177
0.201247
0.200481
0.199584
0.198629
0.197879
0.197547
0.197409
0.185473
0.18564
0.186252
0.18738
0.188708
0.190124
0.191659
0.193351
0.195145
0.196908
0.198228
0.198855
0.198936
0.19867
0.198159
0.19747
0.196674
0.196051
0.195814
0.195738
0.182256
0.182347
0.182805
0.183736
0.184895
0.186204
0.187689
0.189364
0.191233
0.193246
0.194967
0.196051
0.196567
0.196668
0.196478
0.196094
0.1956
0.195222
0.195101
0.195061
0.179137
0.179197
0.17952
0.180251
0.181267
0.182501
0.184004
0.185826
0.187982
0.190404
0.192592
0.194075
0.194935
0.195374
0.195517
0.195467
0.195301
0.195182
0.195147
0.195112
0.175531
0.175592
0.175847
0.176413
0.17728
0.178423
0.179939
0.181877
0.184305
0.187203
0.189986
0.192061
0.193474
0.194354
0.194909
0.19524
0.195412
0.195502
0.195513
0.195473
0.171081
0.171142
0.171408
0.171958
0.172805
0.174033
0.175741
0.178014
0.180925
0.184473
0.187981
0.190677
0.192577
0.193884
0.194753
0.195362
0.19578
0.195981
0.196014
0.195969
0.165631
0.165687
0.165998
0.166665
0.167641
0.169075
0.171079
0.173786
0.177321
0.181704
0.1861
0.189551
0.192006
0.193739
0.195018
0.195907
0.196466
0.19672
0.196779
0.196736
0.159225
0.159269
0.159634
0.160474
0.161664
0.163454
0.165926
0.169265
0.173618
0.179037
0.184537
0.188905
0.19207
0.194333
0.195922
0.197043
0.197702
0.198018
0.198115
0.198075
0.151851
0.151887
0.152317
0.15335
0.15492
0.1571
0.16019
0.164317
0.169707
0.176435
0.183288
0.18876
0.192769
0.195627
0.197643
0.198984
0.199797
0.200208
0.200348
0.200307
0.143311
0.143337
0.143843
0.145055
0.147057
0.149803
0.153642
0.158777
0.165479
0.173846
0.182365
0.189196
0.194211
0.197799
0.20032
0.201976
0.203005
0.203549
0.203731
0.203683
0.133245
0.133284
0.133909
0.135342
0.137773
0.141269
0.146036
0.152478
0.160873
0.171298
0.181863
0.190321
0.196522
0.200979
0.204098
0.206196
0.207515
0.20822
0.208442
0.208381
0.120968
0.121016
0.121795
0.123629
0.126656
0.131035
0.1371
0.145266
0.155826
0.168814
0.181865
0.192254
0.199884
0.20536
0.2092
0.211816
0.213482
0.21436
0.21463
0.214552
0.105685
0.105755
0.106797
0.109181
0.113089
0.118731
0.126538
0.136968
0.150299
0.166466
0.182507
0.195187
0.204472
0.211133
0.215832
0.219062
0.221134
0.222206
0.222532
0.222433
0.0862351
0.0863449
0.0877825
0.0910262
0.0962769
0.103746
0.113984
0.127447
0.144318
0.164362
0.183925
0.199252
0.210447
0.2185
0.224211
0.228173
0.230737
0.232067
0.232446
0.232318
0.0608177
0.0610011
0.0631228
0.067804
0.0751879
0.0854439
0.0991633
0.116687
0.138007
0.162682
0.186298
0.204618
0.21798
0.227638
0.234547
0.239389
0.242536
0.244151
0.244595
0.244432
0.0264105
0.0267848
0.0302891
0.0376742
0.0486668
0.0632787
0.0819749
0.10484
0.131627
0.16168
0.189819
0.211424
0.22718
0.238658
0.246979
0.252903
0.256789
0.258758
0.259261
0.259048
-0.0228084
-0.0214128
-0.0143288
-0.00142849
0.0158412
0.0371709
0.062736
0.0923632
0.1256
0.161656
0.194654
0.219736
0.23805
0.251528
0.26148
0.268732
0.273578
0.276026
0.276601
0.276316
-0.0962074
-0.0878225
-0.0714738
-0.0485563
-0.0218354
0.00846427
0.0424444
0.0798791
0.120299
0.16294
0.201275
0.230267
0.251572
0.267501
0.279592
0.288753
0.295142
0.298548
0.299451
0.29931
-0.174765
-0.15572
-0.129502
-0.0962148
-0.0597735
-0.0203668
0.0221229
0.0675812
0.115635
0.165648
0.210415
0.244451
0.269781
0.289083
0.304117
0.315895
0.324556
0.329669
0.33142
0.331456
-0.238285
-0.216571
-0.182288
-0.140624
-0.0956467
-0.047773
0.00285395
0.056068
0.111501
0.168536
0.219257
0.25779
0.286583
0.308678
0.325985
0.339558
0.349771
0.355943
0.357359
0.357585
-0.289972
-0.266266
-0.227039
-0.17937
-0.127703
-0.0728436
-0.01513
0.0450854
0.107309
0.170837
0.226933
0.26931
0.300839
0.324932
0.343737
0.358515
0.369529
0.376101
0.377839
0.37817
-0.332503
-0.307875
-0.265129
-0.212868
-0.155914
-0.0953644
-0.0316533
0.0346938
0.102994
0.172368
0.233213
0.278814
0.312453
0.337952
0.357706
0.373145
0.384521
0.391372
0.393467
0.393804
-0.368794
-0.34364
-0.298316
-0.242367
-0.181071
-0.115729
-0.0468781
0.0248333
0.0985683
0.173215
0.238314
0.286672
0.321988
0.348476
0.368766
0.384439
0.395899
0.402796
0.405039
0.405331
-0.400783
-0.375324
-0.328021
-0.269026
-0.204084
-0.134602
-0.061229
0.0152788
0.09395
0.173469
0.242493
0.293379
0.33018
0.35745
0.378061
0.393811
0.405227
0.412117
0.414486
0.41476
-0.429919
-0.40418
-0.355258
-0.293678
-0.225601
-0.152502
-0.0751058
0.00575101
0.0889848
0.173106
0.245939
0.299272
0.337456
0.365445
0.386375
0.402166
0.413575
0.420387
0.422858
0.423112
-0.457052
-0.431065
-0.380735
-0.316935
-0.246115
-0.169823
-0.0888265
-0.00399631
0.0835093
0.172044
0.248607
0.304418
0.344082
0.372895
0.394219
0.410148
0.421559
0.428235
0.430722
0.43106
-0.482879
-0.456579
-0.404961
-0.339248
-0.26598
-0.186848
-0.102604
-0.0141371
0.0773601
0.170154
0.250507
0.309001
0.350351
0.38013
0.401961
0.418109
0.429566
0.436146
0.43856
0.438888
-0.507684
-0.481048
-0.428309
-0.360872
-0.28542
-0.20375
-0.116587
-0.0247919
0.0704568
0.167436
0.251719
0.313083
0.356326
0.387276
0.409779
0.426269
0.43784
0.44437
0.446644
0.446901
-0.531803
-0.504773
-0.451061
-0.38199
-0.304593
-0.22066
-0.130853
-0.0360053
0.062776
0.163836
0.252115
0.316609
0.362026
0.3944
0.417766
0.434731
0.446477
0.452975
0.455081
0.455243
-0.555285
-0.527762
-0.473268
-0.402705
-0.32358
-0.237613
-0.14543
-0.0477969
0.0542605
0.15923
0.251592
0.319504
0.36744
0.401503
0.425933
0.443504
0.455482
0.461943
0.46391
0.463931
-0.578211
-0.550275
-0.49491
-0.423052
-0.342385
-0.254615
-0.16032
-0.0601924
0.0448646
0.153571
0.250057
0.321636
0.372448
0.408535
0.434254
0.452562
0.464809
0.471182
0.472985
0.472879
-0.600657
-0.572237
-0.516048
-0.443036
-0.36101
-0.271646
-0.175491
-0.0731517
0.0346246
0.146836
0.247387
0.322849
0.376898
0.415402
0.44269
0.461857
0.474373
0.48058
0.482159
0.481945
-0.622636
-0.593672
-0.536697
-0.462628
-0.379396
-0.288649
-0.190871
-0.086599
0.0235922
0.138996
0.243484
0.322956
0.380603
0.421987
0.451217
0.471381
0.484093
0.490018
0.491308
0.491
-0.643985
-0.614513
-0.556792
-0.481788
-0.397493
-0.305543
-0.206382
-0.100445
0.0118303
0.130086
0.238266
0.321766
0.383299
0.4281
0.45983
0.481226
0.493945
0.499308
0.500209
0.499812
-0.664647
-0.634701
-0.576299
-0.500453
-0.415238
-0.322264
-0.221928
-0.114607
-0.000565555
0.120157
0.231692
0.319104
0.384692
0.433434
0.468466
0.491668
0.504175
0.508352
0.508593
0.508144
-0.6847
-0.654201
-0.595181
-0.518583
-0.432563
-0.338723
-0.237417
-0.12897
-0.0134831
0.109297
0.223752
0.314837
0.384458
0.437512
0.476853
0.503115
0.51571
0.517636
0.51629
0.51585
-0.703964
-0.672996
-0.613385
-0.536111
-0.449407
-0.35484
-0.252751
-0.143413
-0.0267936
0.097629
0.214493
0.308868
0.382301
0.439659
0.484223
0.515564
0.530316
0.529905
0.524787
0.523209
-0.72253
-0.691077
-0.63093
-0.553064
-0.465803
-0.370661
-0.267986
-0.158
-0.0405667
0.0850855
0.2038
0.300958
0.377926
0.439055
0.489093
0.527725
0.548744
0.551147
0.54103
0.52122
-0.740338
-0.70845
-0.64794
-0.569627
-0.482038
-0.386513
-0.283536
-0.173215
-0.0553516
0.071
0.190972
0.290239
0.370571
0.434521
0.488335
0.534661
0.562243
0.561086
0.545731
0.523039
-0.757229
-0.725279
-0.664242
-0.58555
-0.497825
-0.402054
-0.299173
-0.188724
-0.0708157
0.0556917
0.176214
0.276504
0.359818
0.425501
0.476927
0.524365
0.55143
0.541117
0.470031
0.431641
-0.772592
-0.742635
-0.679482
-0.600262
-0.512467
-0.416819
-0.31461
-0.204309
-0.0867409
0.0393129
0.159557
0.259664
0.34491
0.412404
0.454301
0.484931
0.497627
0.451661
0.377243
0.329621
-0.826961
-0.757507
-0.693361
-0.615115
-0.527362
-0.432165
-0.329913
-0.220225
-0.103454
0.0214814
0.140537
0.239415
0.323236
0.397055
0.403313
0.416044
0.385858
0.321141
0.239897
0.194014
-0.787976
-0.772618
-0.713332
-0.636228
-0.548846
-0.454114
-0.353017
-0.244413
-0.129263
-0.00671769
0.108962
0.204369
0.279769
0.350199
0.352596
0.241173
0.130685
0.053971
-0.0250286
0.0153082
-0.817557
-0.789297
-0.729604
-0.652575
-0.5656
-0.471277
-0.37015
-0.262445
-0.148732
-0.0285181
0.0836835
0.1747
0.242576
0.280404
0.23196
0.0780499
-0.0620681
-0.16318
-0.27553
-0.210236
-0.840223
-0.808845
-0.74834
-0.670953
-0.584103
-0.489999
-0.389173
-0.282554
-0.170582
-0.0532185
0.0548288
0.140172
0.198445
0.207626
0.0949618
-0.10104
-0.272624
-0.406662
-0.569752
-0.512091
-0.862102
-0.829249
-0.767773
-0.689663
-0.602727
-0.508836
-0.408686
-0.303263
-0.193203
-0.0790011
0.0241975
0.103248
0.14905
0.119857
-0.0520437
-0.280151
-0.500074
-0.697695
-0.926958
-0.925266
-0.883031
-0.850025
-0.787828
-0.709098
-0.622055
-0.528436
-0.429061
-0.324933
-0.217004
-0.10628
-0.00848433
0.0635958
0.0919337
0.0266965
-0.193924
-0.442433
-0.702187
-0.935742
-1.22954
-1.58822
-0.904074
-0.871304
-0.808729
-0.729623
-0.642467
-0.54908
-0.450403
-0.347584
-0.241861
-0.134805
-0.0425962
0.0217883
0.0339264
-0.0833461
-0.318784
-0.568267
-0.821034
-1.03753
-1.12249
-1.25195
-0.925952
-0.893432
-0.830754
-0.751528
-0.664376
-0.571305
-0.473411
-0.372058
-0.268838
-0.165903
-0.0797198
-0.0242888
-0.0366305
-0.201318
-0.428933
-0.658745
-0.861705
-0.982523
-1.00743
-1.03194
-0.948998
-0.916693
-0.854023
-0.774842
-0.687851
-0.595241
-0.49834
-0.398727
-0.298403
-0.2002
-0.120561
-0.0761502
-0.114757
-0.309799
-0.529001
-0.732702
-0.889451
-0.948041
-0.964052
-0.968327
-0.973397
-0.94118
-0.878566
-0.799492
-0.712781
-0.620817
-0.525116
-0.427539
-0.330518
-0.237668
-0.165077
-0.133455
-0.1947
-0.413255
-0.622521
-0.806027
-0.927532
-0.940901
-0.94362
-0.943887
-0.999066
-0.966777
-0.904328
-0.825415
-0.739099
-0.64793
-0.553634
-0.458382
-0.365048
-0.278106
-0.213219
-0.194379
-0.283514
-0.51019
-0.710778
-0.871663
-0.919703
-0.932151
-0.934189
-0.933812
-1.02571
-0.993321
-0.931211
-0.852455
-0.766633
-0.676411
-0.583724
-0.491058
-0.401813
-0.32117
-0.264798
-0.257259
-0.386844
-0.601018
-0.792949
-0.915129
-0.935117
-0.930035
-0.929216
-0.928642
-1.05273
-1.02059
-0.958693
-0.880323
-0.795103
-0.705974
-0.615078
-0.525225
-0.440433
-0.366439
-0.318918
-0.327777
-0.489152
-0.688479
-0.862787
-0.934938
-0.939014
-0.932816
-0.928179
-0.926651
-1.07978
-1.04795
-0.986375
-0.908568
-0.824075
-0.736164
-0.647229
-0.560365
-0.480257
-0.413359
-0.374285
-0.401953
-0.588056
-0.776054
-0.91411
-0.965996
-0.949873
-0.931856
-0.920784
-0.918308
-1.10587
-1.07466
-1.01377
-0.936572
-0.852915
-0.766366
-0.679494
-0.595752
-0.520324
-0.461002
-0.430177
-0.473986
-0.678508
-0.87358
-0.931717
-0.911204
-0.946222
-0.964292
-0.96618
-0.962243
-1.13004
-1.09951
-1.04005
-0.963521
-0.88087
-0.79574
-0.710965
-0.630379
-0.55942
-0.507684
-0.486009
-0.549145
-0.765218
-0.97555
-1.17434
-1.18747
-1.15817
-1.16392
-1.16195
-1.14923
-1.15094
-1.12175
-1.06368
-0.988403
-0.906967
-0.823281
-0.740512
-0.662857
-0.596133
-0.551044
-0.540857
-0.624317
-0.882535
-1.0992
-1.31449
-1.35466
-1.37982
-1.42089
-1.40764
-1.40025
-1.1672
-1.13983
-1.08379
-1.01002
-0.929948
-0.847787
-0.766826
-0.691437
-0.628583
-0.588782
-0.59294
-0.688844
-1.01761
-1.0655
-0.764725
-0.925482
-1.34278
-1.49791
-1.49215
-1.49227
-1.17741
-1.15248
-1.09909
-1.02714
-0.948552
-0.867874
-0.788344
-0.714398
-0.653825
-0.618326
-0.635566
-0.758334
-1.14505
-1.46999
-1.59951
-1.93135
-1.98098
-1.7989
-1.6415
-1.6465
-1.17993
-1.15832
-1.10829
-1.03861
-0.961607
-0.882185
-0.803518
-0.729929
-0.668742
-0.635384
-0.654417
-0.8242
-1.35995
-2.24279
-3.1673
-3.66907
-3.64305
-3.18128
-2.69825
-2.48578
-1.17412
-1.15619
-1.11035
-1.04356
-0.968172
-0.88972
-0.811039
-0.736138
-0.67145
-0.629946
-0.642862
-0.793113
-1.32246
-2.04648
-2.78603
-3.16317
-3.14946
-2.87265
-2.54196
-2.3702
-1.15886
-1.14448
-1.10453
-1.04154
-0.96788
-0.889976
-0.810328
-0.732152
-0.660159
-0.60226
-0.584653
-0.597911
-0.76989
-0.872445
-0.927085
-0.837993
-0.606246
-0.364933
-0.17587
-0.0821576
-1.1352
-1.12481
-1.09112
-1.03293
-0.961028
-0.883272
-0.802059
-0.719124
-0.635587
-0.5562
-0.47571
-0.380099
-0.160243
0.258958
0.747464
1.23254
1.60009
1.83619
1.95509
1.98984
-1.10544
-1.09891
-1.0722
-1.0191
-0.948769
-0.870991
-0.787979
-0.700255
-0.607458
-0.503556
-0.390853
-0.272837
0.051855
0.641355
1.29237
1.87409
2.30576
2.56042
2.67762
2.71331
-1.07288
-1.06936
-1.05069
-1.00198
-0.932844
-0.854986
-0.771119
-0.681478
-0.582878
-0.46732
-0.343216
-0.200815
0.00811477
0.490054
1.06779
1.56927
1.93822
2.15602
2.26227
2.29961
-1.04048
-1.03909
-1.02669
-0.982533
-0.913907
-0.835852
-0.753364
-0.665287
-0.567934
-0.454478
-0.331539
-0.206654
-0.0777267
0.182922
0.57653
0.925822
1.19545
1.3619
1.44474
1.47154
-0.99454
-0.99576
-0.987773
-0.949121
-0.88428
-0.810051
-0.733374
-0.652245
-0.562542
-0.457358
-0.347027
-0.253798
-0.166076
-0.0316951
0.235296
0.48232
0.671179
0.790144
0.853746
0.869455
-0.915378
-0.916512
-0.910709
-0.882068
-0.831216
-0.771211
-0.70757
-0.638613
-0.559298
-0.464406
-0.365272
-0.294035
-0.247713
-0.168585
0.016822
0.183492
0.303635
0.375672
0.40777
0.415648
-0.816568
-0.816236
-0.811468
-0.794863
-0.763403
-0.723426
-0.677763
-0.624274
-0.557542
-0.471458
-0.38108
-0.319017
-0.298975
-0.251073
-0.122663
-0.0138634
0.0606411
0.101676
0.119602
0.1222
-0.73571
-0.734413
-0.731036
-0.722935
-0.706774
-0.683338
-0.653775
-0.615484
-0.561683
-0.481475
-0.388696
-0.316495
-0.282512
-0.241915
-0.171438
-0.114839
-0.077219
-0.0555782
-0.046168
-0.0458234
-0.693647
-0.692178
-0.689761
-0.68562
-0.677346
-0.664151
-0.646264
-0.621005
-0.579839
-0.508133
-0.408869
-0.31368
-0.246374
-0.207801
-0.182134
-0.159116
-0.141265
-0.130497
-0.126054
-0.126687
-0.686701
-0.685607
-0.68404
-0.68181
-0.677661
-0.671484
-0.663831
-0.653094
-0.631218
-0.57786
-0.478257
-0.357101
-0.260387
-0.228122
-0.218725
-0.201857
-0.181994
-0.167054
-0.157489
-0.158509
-0.702378
-0.701859
-0.701599
-0.701778
-0.702405
-0.704819
-0.711326
-0.723825
-0.738852
-0.737719
-0.662719
-0.512192
-0.390536
-0.346308
-0.325284
-0.282838
-0.23665
-0.200678
-0.187281
-0.189932
-0.728246
-0.728617
-0.730228
-0.733831
-0.741178
-0.755939
-0.784322
-0.836853
-0.92685
-1.03725
-1.01939
-0.80986
-0.627064
-0.56008
-0.485668
-0.394916
-0.311812
-0.253766
-0.233093
-0.238134
-0.748924
-0.75045
-0.754296
-0.762043
-0.777592
-0.807705
-0.865038
-0.976227
-1.18813
-1.49077
-1.56169
-1.25236
-0.950944
-0.808362
-0.680554
-0.540552
-0.42117
-0.347959
-0.332651
-0.336723
-0.747635
-0.750267
-0.755982
-0.767334
-0.790609
-0.834297
-0.920007
-1.0927
-1.43619
-1.96257
-2.15869
-1.75227
-1.30792
-1.07274
-0.896044
-0.724851
-0.595679
-0.529725
-0.521991
-0.526901
-0.710151
-0.713263
-0.719857
-0.733216
-0.760007
-0.810788
-0.910919
-1.11381
-1.51842
-2.14341
-2.40462
-2.0043
-1.52165
-1.27644
-1.07441
-0.9332
-0.857162
-0.823716
-0.809494
-0.80847
-0.632268
-0.635107
-0.641092
-0.653258
-0.678006
-0.725765
-0.818794
-1.00808
-1.38492
-1.93362
-2.11926
-1.79768
-1.48508
-1.28465
-1.1348
-1.07456
-1.0616
-1.04548
-1.02628
-1.01858
-0.522622
-0.524596
-0.52879
-0.537529
-0.555804
-0.591343
-0.660514
-0.800409
-1.08013
-1.48475
-1.6181
-1.43917
-1.25125
-1.08708
-1.01181
-1.01162
-1.03408
-1.02746
-1.01484
-1.00802
-0.398692
-0.399576
-0.401577
-0.40614
-0.416362
-0.436692
-0.476358
-0.556156
-0.717494
-0.968567
-1.07281
-0.991335
-0.859588
-0.76531
-0.75981
-0.812867
-0.836288
-0.837097
-0.833725
-0.830896
-0.279294
-0.279259
-0.279496
-0.280617
-0.284054
-0.291523
-0.306468
-0.336556
-0.397635
-0.507313
-0.562109
-0.508474
-0.451515
-0.458551
-0.530573
-0.583095
-0.600448
-0.604486
-0.605141
-0.604441
-0.178106
-0.177541
-0.176783
-0.17593
-0.175266
-0.174798
-0.174689
-0.175385
-0.176955
-0.16963
-0.155737
-0.156365
-0.190077
-0.269257
-0.339836
-0.376445
-0.390745
-0.396671
-0.399652
-0.400214
-0.101121
-0.100391
-0.0993517
-0.0978794
-0.0956463
-0.0919233
-0.0857008
-0.0753505
-0.0580863
-0.030223
-0.00339326
-0.015333
-0.0816755
-0.151253
-0.198682
-0.22422
-0.235985
-0.2418
-0.245244
-0.246267
-0.047891
-0.0472295
-0.0463217
-0.0450389
-0.0428259
-0.0388012
-0.0319048
-0.0206461
-0.00337855
0.0191155
0.0311444
0.0131362
-0.0338384
-0.0806958
-0.111956
-0.129212
-0.13723
-0.141589
-0.144283
-0.145172
-0.0143199
-0.0138207
-0.0131904
-0.0123786
-0.0108341
-0.00777315
-0.00241496
0.00610559
0.01818
0.031256
0.0331951
0.0158965
-0.014337
-0.0427957
-0.0625228
-0.0735572
-0.0789619
-0.0818283
-0.0835755
-0.0841628
0.00471711
0.00505191
0.00542694
0.00577269
0.00659089
0.00847084
0.0119123
0.0173101
0.0243999
0.0305051
0.0277742
0.0137625
-0.00552058
-0.0227852
-0.0348783
-0.0418182
-0.0452914
-0.0470973
-0.0481501
-0.0484983
0.0138319
0.0140372
0.0142145
0.0142411
0.0145111
0.0154296
0.017298
0.0202415
0.0238058
0.0258504
0.0217335
0.0113361
-0.00100025
-0.011601
-0.0190201
-0.0234197
-0.0256975
-0.0268538
-0.0274924
-0.0276969
0.0165688
0.0166855
0.0167407
0.0165927
0.0165376
0.0168252
0.0176445
0.0189982
0.0204525
0.0204897
0.0165306
0.00919393
0.00129828
-0.00527907
-0.00990049
-0.0127274
-0.0142445
-0.0149984
-0.0153792
-0.0155015
0.0153936
0.0154557
0.0154477
0.0152396
0.0150257
0.0149728
0.0151955
0.0156573
0.0160248
0.0153024
0.0121183
0.00717506
0.00219139
-0.00187332
-0.00474661
-0.00655241
-0.00754743
-0.00803855
-0.00826012
-0.00833497
0.0119004
0.011931
0.0118973
0.0116924
0.0114424
0.011261
0.0112179
0.0112742
0.0112064
0.0104158
0.00821042
0.00513122
0.0021544
-0.00024271
-0.00195085
-0.00305138
-0.00367178
-0.00397057
-0.00410432
-0.00414927
0.00707016
0.00708274
0.00704721
0.00688919
0.006693
0.00653288
0.00644233
0.00639367
0.00626477
0.0057532
0.00455076
0.00296969
0.00148106
0.000291046
-0.000564235
-0.00112953
-0.00145707
-0.00161572
-0.00169049
-0.00171454
0.001505
0.00151541
0.00157315
0.00162575
0.00159874
0.00154222
0.00148383
0.00143165
0.0013686
0.00125346
0.00101962
0.000671158
0.000318191
1.77399e-05
-0.000207815
-0.000356583
-0.000418638
-0.00038846
-0.000331755
-0.000303553
-0.657808
-0.449573
-0.212967
-0.0152787
0.144903
0.273534
0.381683
0.472876
0.514034
0.491474
-0.283519
-0.138955
0.0129292
0.144177
0.255522
0.348602
0.424202
0.478051
0.505814
0.517342
-0.0238649
0.0731261
0.175497
0.266458
0.34492
0.410729
0.463034
0.501237
0.528304
0.545667
0.160551
0.227601
0.299373
0.364704
0.421481
0.469587
0.508895
0.539973
0.56478
0.582684
0.300986
0.349584
0.401362
0.45047
0.493739
0.531305
0.563224
0.589512
0.611151
0.628752
0.414645
0.450976
0.49261
0.531618
0.567167
0.598811
0.626271
0.649153
0.667832
0.685074
0.512971
0.543639
0.580084
0.614312
0.646095
0.674795
0.699753
0.720367
0.736441
0.753495
0.605138
0.635583
0.67111
0.704457
0.735199
0.76276
0.786409
0.805479
0.819252
0.836307
0.702689
0.736576
0.774171
0.808582
0.839352
0.86616
0.888618
0.906275
0.918432
0.935869
0.819151
0.857203
0.896469
0.931282
0.96108
0.986212
1.0069
1.02304
1.0347
1.05281
0.965031
1.00389
1.04016
1.07114
1.09709
1.11942
1.13867
1.15435
1.1669
1.18494
1.14029
1.17229
1.19867
1.22125
1.24138
1.26024
1.27807
1.29463
1.31006
1.32816
1.32921
1.34656
1.36178
1.37813
1.39413
1.40873
1.42201
1.43599
1.45359
1.47376
1.51133
1.52078
1.53237
1.54322
1.55254
1.5622
1.57307
1.58449
1.59588
1.61125
1.71851
1.72222
1.70729
1.69251
1.6863
1.69203
1.71052
1.74087
1.77307
1.79973
2.02486
1.89
1.81341
1.77114
1.75374
1.75771
1.78514
1.84156
1.94419
2.16856
0.304046
0.301919
0.297434
0.288811
0.27659
0.264462
0.254227
0.246313
0.240653
0.237316
0.236819
0.239382
0.244324
0.251413
0.260697
0.272156
0.284746
0.295737
0.30183
0.304866
0.228493
0.234341
0.240683
0.245183
0.247657
0.247337
0.2446
0.240778
0.237223
0.234868
0.234569
0.236584
0.240078
0.244219
0.247906
0.249697
0.248692
0.245154
0.239948
0.233311
0.220072
0.222369
0.225786
0.228801
0.230895
0.232403
0.23316
0.232827
0.231755
0.230776
0.230785
0.232008
0.23363
0.234768
0.234808
0.233803
0.232158
0.229743
0.226424
0.22348
0.21457
0.215655
0.21751
0.219926
0.221989
0.223449
0.224483
0.225223
0.225577
0.225688
0.225991
0.226567
0.226939
0.226802
0.226214
0.225211
0.223608
0.221409
0.219239
0.217829
0.209386
0.210044
0.211185
0.212954
0.214801
0.216493
0.217828
0.218844
0.219675
0.220353
0.22087
0.221133
0.221049
0.220633
0.219836
0.218569
0.216954
0.215248
0.213816
0.21301
0.204477
0.204924
0.205756
0.207163
0.208774
0.210402
0.211956
0.2133
0.2144
0.215316
0.215974
0.216212
0.216018
0.215402
0.214377
0.213087
0.211685
0.210314
0.209245
0.208703
0.199789
0.200113
0.200776
0.201983
0.203437
0.204959
0.206525
0.208053
0.209423
0.210554
0.211359
0.21165
0.211383
0.210658
0.209636
0.208473
0.20727
0.2061
0.205241
0.204842
0.195329
0.195559
0.196104
0.197206
0.198599
0.200071
0.201579
0.203125
0.20465
0.20602
0.207014
0.207371
0.207133
0.206495
0.205629
0.204617
0.203518
0.202469
0.201751
0.201457
0.191152
0.191314
0.191763
0.192763
0.194097
0.195536
0.197029
0.198548
0.200075
0.20157
0.202768
0.203336
0.203334
0.202936
0.202244
0.201364
0.200385
0.199465
0.198877
0.198661
0.187247
0.187341
0.18772
0.188682
0.190009
0.191444
0.192982
0.194623
0.196324
0.197991
0.199428
0.200283
0.200483
0.20021
0.199628
0.198876
0.198003
0.197159
0.196657
0.196513
0.183825
0.183864
0.184147
0.184957
0.186123
0.18741
0.188816
0.190371
0.192112
0.193992
0.195748
0.196938
0.197489
0.197604
0.197398
0.196953
0.196356
0.195741
0.1954
0.195324
0.180721
0.180733
0.180928
0.181545
0.182532
0.183722
0.185113
0.186744
0.18863
0.190738
0.192879
0.194519
0.195478
0.1959
0.195985
0.195839
0.195558
0.195245
0.195095
0.195059
0.177431
0.177442
0.177592
0.178041
0.17883
0.179887
0.181199
0.182862
0.184936
0.187418
0.190059
0.192221
0.193648
0.19453
0.195004
0.195254
0.19533
0.195335
0.195337
0.195315
0.173425
0.173435
0.173582
0.173968
0.174653
0.175659
0.177033
0.178852
0.181208
0.184142
0.18741
0.190232
0.192216
0.193561
0.194462
0.195051
0.195438
0.19568
0.195765
0.19575
0.168489
0.168496
0.168655
0.1691
0.169831
0.170928
0.172483
0.174629
0.177472
0.181053
0.185108
0.188677
0.191264
0.1931
0.194317
0.195176
0.195841
0.196226
0.196355
0.196352
0.162548
0.162537
0.162723
0.163246
0.164165
0.165483
0.167361
0.169956
0.173401
0.177804
0.182856
0.187367
0.190676
0.193037
0.194723
0.195946
0.196764
0.197203
0.197365
0.197376
0.155669
0.155641
0.155842
0.156494
0.157669
0.159319
0.16165
0.164867
0.169126
0.174576
0.180853
0.186509
0.190704
0.193715
0.195854
0.197363
0.198327
0.198871
0.199099
0.199131
0.14774
0.147695
0.147937
0.148709
0.150135
0.152297
0.155185
0.159155
0.16444
0.171204
0.179009
0.186064
0.191324
0.195124
0.197817
0.199684
0.200875
0.201568
0.201877
0.201923
0.138491
0.138432
0.138727
0.139674
0.141399
0.144069
0.147695
0.152657
0.159258
0.167685
0.177384
0.18614
0.192689
0.197422
0.200778
0.203087
0.204603
0.205506
0.205905
0.20596
0.127385
0.127315
0.127712
0.128914
0.13104
0.134267
0.13885
0.145126
0.15343
0.163972
0.176018
0.186835
0.194891
0.200736
0.204888
0.207757
0.209674
0.210834
0.211333
0.211398
0.113693
0.113609
0.114156
0.115685
0.118379
0.122481
0.128324
0.136325
0.146852
0.160071
0.174993
0.188276
0.198145
0.205298
0.210367
0.213899
0.216286
0.217737
0.218354
0.218429
0.0964458
0.0963516
0.0971317
0.0991852
0.102725
0.108092
0.115713
0.126055
0.139473
0.156036
0.174429
0.190618
0.202581
0.211244
0.217413
0.221734
0.224676
0.226461
0.227215
0.227297
0.0741771
0.0740837
0.0752532
0.0781443
0.0830199
0.0903321
0.100539
0.114101
0.131279
0.151982
0.174488
0.194022
0.20838
0.218787
0.226236
0.231498
0.23511
0.237297
0.238202
0.238295
0.0445858
0.0445413
0.0464206
0.0507779
0.0579025
0.0683056
0.0823582
0.100371
0.122399
0.148115
0.175366
0.198654
0.215683
0.228062
0.236999
0.243384
0.24781
0.250482
0.251565
0.251662
0.00350071
0.00366184
0.00712206
0.0145289
0.0258054
0.0413179
0.0610842
0.0851081
0.11318
0.144758
0.177298
0.204657
0.224571
0.239123
0.249762
0.257494
0.262951
0.266228
0.267499
0.267588
-0.0568438
-0.0553834
-0.0470125
-0.0330958
-0.0141315
0.0095323
0.0373057
0.0689759
0.104192
0.142315
0.180498
0.21209
0.235002
0.251847
0.264348
0.273637
0.280319
0.284368
0.285884
0.285972
-0.129049
-0.126678
-0.110909
-0.0866708
-0.0571242
-0.0239509
0.0126062
0.0524886
0.0954285
0.140868
0.185736
0.222765
0.249855
0.270108
0.285471
0.297208
0.305929
0.311114
0.312707
0.313005
-0.203332
-0.19569
-0.172449
-0.138207
-0.0989598
-0.0565826
-0.0113148
0.0367658
0.0874378
0.140236
0.191908
0.234484
0.265794
0.289482
0.307811
0.322122
0.333001
0.339064
0.341738
0.342465
-0.261883
-0.252603
-0.224544
-0.183581
-0.136851
-0.0867508
-0.033772
0.021866
0.0798192
0.139554
0.197529
0.245062
0.279961
0.306362
0.326784
0.342733
0.354858
0.362222
0.365929
0.366851
-0.309422
-0.299599
-0.268103
-0.222336
-0.169922
-0.113677
-0.0542764
0.00791353
0.0723891
0.138456
0.202131
0.253965
0.291757
0.320167
0.342028
0.359071
0.372036
0.380393
0.384444
0.385426
-0.349017
-0.339051
-0.305385
-0.255863
-0.198915
-0.137678
-0.0728886
-0.00504474
0.0651766
0.136922
0.205704
0.261277
0.301419
0.331302
0.354089
0.371707
0.385069
0.393823
0.398028
0.399065
-0.383398
-0.373408
-0.338134
-0.285614
-0.22493
-0.159477
-0.0900493
-0.0172562
0.0581023
0.134985
0.208439
0.267364
0.309529
0.340585
0.36399
0.381862
0.395292
0.404153
0.408316
0.409445
-0.414129
-0.40416
-0.367671
-0.312659
-0.248869
-0.179789
-0.106278
-0.029063
0.0509683
0.132609
0.210443
0.272566
0.316644
0.348735
0.372624
0.390669
0.404108
0.413019
0.417188
0.41824
-0.442409
-0.432431
-0.394936
-0.337805
-0.271348
-0.199094
-0.121981
-0.040778
0.0435485
0.12968
0.211756
0.277001
0.322949
0.356097
0.380516
0.398786
0.412285
0.421183
0.425391
0.426253
-0.469004
-0.458986
-0.420609
-0.361668
-0.292838
-0.217786
-0.137463
-0.0526392
0.035665
0.126049
0.212266
0.280698
0.328668
0.363025
0.388095
0.406661
0.420256
0.42915
0.433345
0.434117
-0.494378
-0.484323
-0.445146
-0.38462
-0.313661
-0.236112
-0.152907
-0.0648056
0.0271707
0.121603
0.211969
0.283802
0.334005
0.369738
0.39561
0.414601
0.428385
0.437288
0.441442
0.44219
-0.518943
-0.508755
-0.468757
-0.406876
-0.334015
-0.254244
-0.168458
-0.0773784
0.01801
0.116333
0.210867
0.286253
0.338949
0.376309
0.403181
0.422747
0.436819
0.445784
0.44982
0.450555
-0.54286
-0.532463
-0.491802
-0.428604
-0.354033
-0.272287
-0.184173
-0.0903871
0.00815502
0.110176
0.208821
0.287955
0.34345
0.382745
0.410845
0.431144
0.445597
0.45465
0.458571
0.459261
-0.566164
-0.555572
-0.514307
-0.449846
-0.373773
-0.290255
-0.200068
-0.103849
-0.00243578
0.103034
0.205739
0.288825
0.347435
0.388985
0.418577
0.439786
0.45471
0.463862
0.467645
0.468225
-0.588994
-0.57814
-0.536206
-0.470649
-0.393239
-0.308154
-0.216135
-0.11776
-0.0137626
0.0949135
0.201558
0.288711
0.350768
0.394949
0.426339
0.448638
0.464098
0.473333
0.476933
0.477372
-0.611258
-0.600151
-0.557587
-0.491017
-0.412411
-0.325947
-0.232319
-0.132056
-0.0257635
0.0858292
0.196205
0.287469
0.353249
0.400489
0.434064
0.457675
0.473703
0.482927
0.486279
0.486555
-0.632975
-0.621606
-0.578407
-0.510916
-0.431241
-0.343573
-0.248552
-0.146651
-0.0383623
0.0758067
0.18964
0.284958
0.354666
0.405397
0.441672
0.466924
0.483526
0.492539
0.495488
0.495587
-0.654002
-0.642427
-0.598604
-0.530291
-0.44967
-0.360953
-0.264757
-0.161462
-0.0514798
0.0649221
0.181858
0.281052
0.354781
0.409399
0.449022
0.47649
0.493723
0.502128
0.504354
0.504231
-0.674422
-0.662564
-0.618154
-0.549104
-0.467657
-0.378038
-0.280836
-0.1764
-0.0650106
0.0532797
0.172892
0.27566
0.353354
0.41211
0.455805
0.486485
0.504824
0.512037
0.512734
0.51222
-0.69411
-0.681973
-0.637028
-0.567303
-0.485117
-0.394741
-0.296705
-0.191338
-0.0788293
0.0409668
0.162819
0.268734
0.350188
0.413072
0.461425
0.49674
0.517746
0.523786
0.521302
0.519235
-0.713087
-0.700718
-0.655175
-0.584835
-0.50201
-0.410994
-0.312277
-0.206189