/*--------------------------------*- C++ -*----------------------------------*\
| =========                 |                                                 |
| \\      /  F ield         | OpenFOAM: The Open Source CFD Toolbox           |
|  \\    /   O peration     | Version:  2112                                  |
|   \\  /    A nd           | Website:  www.openfoam.com                      |
|    \\/     M anipulation  |                                                 |
\*---------------------------------------------------------------------------*/
FoamFile
{
    version     2.0;
    format      ascii;
    arch        "LSB;label=32;scalar=64";
    class       volScalarField;
    location    "0.05";
    object      p;
}
// * * * * * * * * * * * * * * * * * * * * * * * * * * * * * * * * * * * * * //

dimensions      [1 -1 -2 0 0 0 0];

internalField   nonuniform List<scalar> 
1000
(
1
1
1
1
1
1
1
1
1
1
1
1
1
1
1
1
1
1
1
1
1
1
1
1
1
1
1
1
1
1
1
1
1
1
1
1
1
1
1
1
1
1
1
1
1
1
1
1
1
1
1
1
1
1
1
1
1
1
1
1
1
1
1
1
1
1
1
1
1
1
1
1
1
1
1
1
1
1
1
1
1
1
1
1
1
1
1
1
1
1
1
1
1
1
1
1
1
1
1
1
1
1
1
1
1
1
1
1
1
1
1
1
1
1
1
1
1
1
1
1
1
1
1
1
1
1
1
1
1
1
1
1
1
1
1
1
1
1
1
1
1
1
1
1
1
1
1
1
1
1
1
1
1
1
1
1
1
1
1
1
1
1
1
1
1
1
1
1
1
1
1
1
1
1
1
1
1
1
1
1
1
1
1
1
1
1
1
1
1
1
1
1
1
1
1
1
1
1
1
1
1
1
1
1
1
1
1
1
1
1
1
1
1
1
1
1
1
1
1
1
1
1
1
1
1
1
1
1
1
1
1
1
1
1
1
1
1
1
1
1
1
1
1
1
1
1
1
1
1
1
1
1
1
1
1
1
1
1
1
1
1
1
1
1
1
1
1
1
1
1
1
1
1
1
1
1
1
1
1
1
1
1
1
1
1
1
1
1
1
1
1
1
1
1
1
1
1
1
1
1
1
1
1
1
1
1
1
1
1
1
1
1
1
1
1
1
1
1
1
1
1
1
1
1
1
1
1
1
1
1
1
1
1
1
1
1
1
1
1
1
1
1
1
1
1
1
1
1
1
1
1
1
1
1
1
1
1
1
1
1
1
1
1
1
1
1
1
1
1
1
1
1
1
1
1
1
1
1
1
1
1
1
0.99999999
0.99999999
0.99999999
0.99999998
0.99999997
0.99999995
0.99999993
0.99999989
0.99999984
0.99999976
0.99999965
0.99999948
0.99999923
0.99999888
0.99999837
0.99999764
0.9999966
0.99999512
0.99999304
0.99999011
0.99998603
0.99998035
0.99997251
0.99996174
0.99994704
0.99992708
0.99990015
0.99986405
0.99981596
0.99975231
0.99966863
0.99955936
0.99941766
0.99923523
0.99900203
0.99870616
0.9983336
0.99786805
0.99729086
0.99658089
0.99571461
0.99466615
0.99340759
0.9919092
0.99013997
0.98806815
0.98566187
0.98288985
0.97972222
0.97613118
0.97209182
0.96758271
0.96258647
0.95709021
0.95108582
0.94457008
0.93754469
0.93001606
0.92199507
0.91349666
0.90453943
0.89514503
0.88533773
0.87514377
0.86459093
0.85370797
0.84252423
0.83106921
0.81937224
0.80746221
0.79536732
0.78311489
0.77073128
0.75824172
0.74567031
0.73303996
0.72037236
0.70768801
0.69500623
0.6823452
0.66972195
0.65715245
0.64465163
0.6322334
0.61991077
0.60769581
0.59559974
0.583633
0.57180526
0.56012535
0.54860203
0.53724174
0.526054
0.51504122
0.5042146
0.49357433
0.48312909
0.47288301
0.46285663
0.45314153
0.44347104
0.43414365
0.4249842
0.41607222
0.40739341
0.39897906
0.39083216
0.38295647
0.37536447
0.36807088
0.36108992
0.35443789
0.34813337
0.34219668
0.3366486
0.33150984
0.32680037
0.32253798
0.31873618
0.31540244
0.31253577
0.31012556
0.30815014
0.30657693
0.30536372
0.3044611
0.30381633
0.30337712
0.3030961
0.30292537
0.30282947
0.30277615
0.30275582
0.30274289
0.30273423
0.30273083
0.30273002
0.30272495
0.30271165
0.30272598
0.30272594
0.3027444
0.30276383
0.30281863
0.30287677
0.30292529
0.30295966
0.30298138
0.30299265
0.30299229
0.30298767
0.30297913
0.30296652
0.302952
0.30293733
0.30292403
0.30291207
0.30290782
0.30290761
0.30291156
0.30292093
0.30293642
0.30295697
0.30298172
0.30300883
0.30303659
0.30306284
0.30308554
0.30310305
0.30311456
0.30311989
0.30311768
0.30310887
0.30309415
0.30307423
0.30304942
0.30302007
0.30298629
0.30294753
0.30290095
0.30284487
0.30277582
0.30268533
0.30257804
0.30243931
0.30225333
0.30203566
0.30173605
0.30134399
0.30083927
0.30018888
0.29935221
0.29827886
0.29690645
0.29515802
0.29293929
0.29013573
0.28660975
0.28219858
0.27671361
0.26994289
0.26165914
0.25163699
0.23968511
0.22569998
0.20974901
0.19218461
0.17376494
0.15568534
0.13936716
0.12599832
0.11610408
0.10945466
0.1053359
0.10293479
0.10158966
0.10085374
0.10045641
0.1002434
0.10012963
0.10006899
0.10003669
0.10001951
0.10001037
0.10000551
0.10000293
0.10000155
0.10000082
0.10000044
0.10000023
0.10000012
0.10000007
0.10000003
0.10000002
0.10000001
0.10000001
0.1
0.1
0.1
0.1
0.1
0.1
0.1
0.1
0.1
0.1
0.1
0.1
0.1
0.1
0.1
0.1
0.1
0.1
0.1
0.1
0.1
0.1
0.1
0.1
0.1
0.1
0.1
0.1
0.1
0.1
0.1
0.1
0.1
0.1
0.1
0.1
0.1
0.1
0.1
0.1
0.1
0.1
0.1
0.1
0.1
0.1
0.1
0.1
0.1
0.1
0.1
0.1
0.1
0.1
0.1
0.1
0.1
0.1
0.1
0.1
0.1
0.1
0.1
0.1
0.1
0.1
0.1
0.1
0.1
0.1
0.1
0.1
0.1
0.1
0.1
0.1
0.1
0.1
0.1
0.1
0.1
0.1
0.1
0.1
0.1
0.1
0.1
0.1
0.1
0.1
0.1
0.1
0.1
0.1
0.1
0.1
0.1
0.1
0.1
0.1
0.1
0.1
0.1
0.1
0.1
0.1
0.1
0.1
0.1
0.1
0.1
0.1
0.1
0.1
0.1
0.1
0.1
0.1
0.1
0.1
0.1
0.1
0.1
0.1
0.1
0.1
0.1
0.1
0.1
0.1
0.1
0.1
0.1
0.1
0.1
0.1
0.1
0.1
0.1
0.1
0.1
0.1
0.1
0.1
0.1
0.1
0.1
0.1
0.1
0.1
0.1
0.1
0.1
0.1
0.1
0.1
0.1
0.1
0.1
0.1
0.1
0.1
0.1
0.1
0.1
0.1
0.1
0.1
0.1
0.1
0.1
0.1
0.1
0.1
0.1
0.1
0.1
0.1
0.1
0.1
0.1
0.1
0.1
0.1
0.1
0.1
0.1
0.1
0.1
0.1
0.1
0.1
0.1
0.1
0.1
0.1
0.1
0.1
0.1
0.1
0.1
0.1
0.1
0.1
0.1
0.1
0.1
0.1
0.1
0.1
0.1
0.1
0.1
0.1
0.1
0.1
0.1
0.1
0.1
0.1
0.1
0.1
0.1
0.1
0.1
0.1
0.1
0.1
0.1
0.1
0.1
0.1
0.1
0.1
0.1
0.1
0.1
0.1
0.1
0.1
0.1
0.1
0.1
0.1
0.1
0.1
0.1
0.1
0.1
0.1
0.1
0.1
0.1
0.1
0.1
0.1
0.1
0.1
0.1
0.1
0.1
0.1
0.1
0.1
0.1
0.1
0.1
0.1
0.1
0.1
0.1
0.1
0.1
0.1
0.1
0.1
0.1
0.1
0.1
0.1
0.1
0.1
0.1
0.1
0.1
0.1
0.1
0.1
0.1
0.1
0.1
0.1
0.1
0.1
0.1
0.1
0.1
0.1
0.1
0.1
0.1
0.1
0.1
0.1
0.1
0.1
0.1
0.1
0.1
0.1
0.1
0.1
0.1
0.1
0.1
0.1
0.1
0.1
0.1
0.1
0.1
0.1
0.1
0.1
0.1
0.1
0.1
0.1
0.1
0.1
0.1
0.1
0.1
0.1
0.1
0.1
0.1
0.1
0.1
0.1
0.1
0.1
0.1
0.1
0.1
0.1
0.1
0.1
0.1
0.1
0.1
0.1
0.1
0.1
0.1
0.1
0.1
0.1
0.1
0.1
0.1
0.1
0.1
0.1
0.1
0.1
0.1
0.1
0.1
0.1
0.1
0.1
0.1
0.1
0.1
0.1
0.1
0.1
0.1
0.1
0.1
0.1
)
;

boundaryField
{
    sides
    {
        type            zeroGradient;
    }
    emptywalls
    {
        type            empty;
    }
}


// ************************************************************************* //
