/*--------------------------------*- C++ -*----------------------------------*\
| =========                 |                                                 |
| \\      /  F ield         | OpenFOAM: The Open Source CFD Toolbox           |
|  \\    /   O peration     | Version:  2112                                  |
|   \\  /    A nd           | Website:  www.openfoam.com                      |
|    \\/     M anipulation  |                                                 |
\*---------------------------------------------------------------------------*/
FoamFile
{
    version     2.0;
    format      ascii;
    arch        "LSB;label=32;scalar=64";
    class       surfaceScalarField;
    location    "0.05";
    object      phi;
}
// * * * * * * * * * * * * * * * * * * * * * * * * * * * * * * * * * * * * * //

dimensions      [1 0 -1 0 0 0 0];

oriented        oriented;

internalField   nonuniform List<scalar> 
999
(
-1.3413715e-12
5.1714188e-13
7.1012085e-12
-6.7656991e-12
1.8308466e-11
3.5629721e-11
2.2157165e-11
4.076206e-11
4.3471893e-11
2.9456437e-11
4.0837111e-11
4.2245318e-11
5.2195581e-11
5.1745497e-11
5.997991e-11
6.8100969e-11
7.0023543e-11
5.4920068e-11
5.9032557e-11
6.1403327e-11
4.3863357e-11
3.3723468e-11
3.6945558e-11
2.9225844e-11
4.9628524e-11
4.5229598e-11
5.9828698e-11
5.7420402e-11
5.0342508e-11
3.6122327e-11
2.8754221e-11
2.2760127e-11
-7.3918649e-13
3.3283154e-11
2.8629654e-11
3.8281045e-11
8.7296836e-12
-1.0393908e-12
1.0371926e-11
1.2363222e-11
2.4396596e-11
4.0119574e-11
1.8552937e-11
3.7796766e-11
3.8925863e-11
5.1674998e-11
6.1613825e-11
5.4718341e-11
4.310674e-11
5.2161497e-11
4.7424398e-11
3.2427061e-11
2.6388336e-11
3.6130099e-11
4.050793e-11
3.9108605e-11
2.756062e-11
1.9414803e-11
4.1933124e-12
1.2808754e-11
1.2623014e-11
-1.2931878e-12
9.4375618e-12
5.0373039e-12
1.3758994e-11
4.6910253e-12
3.3604231e-12
-7.0230488e-12
-2.4279023e-11
-8.3160145e-12
1.083289e-11
-4.3265391e-12
4.1655568e-13
2.215339e-12
-7.7129414e-12
-2.8526514e-11
-3.0059621e-11
-3.7033487e-11
-2.0625834e-11
-1.1885271e-11
-1.3428147e-11
-1.2649992e-11
-1.4054646e-11
-5.8367755e-12
-7.2953865e-12
-3.8757886e-13
-2.7503555e-12
9.2559294e-13
7.5456308e-12
5.1220139e-12
1.3553603e-12
-1.0514367e-11
-4.0584203e-12
-3.2808201e-12
-2.0515811e-11
-7.5043305e-12
-1.8911539e-12
-6.6985306e-12
-1.5690893e-11
-3.99063e-11
-3.3939074e-11
-2.4831359e-11
-1.8068991e-11
-1.6369572e-11
-2.0910274e-11
-1.3610224e-11
-1.5908719e-11
-1.1629586e-11
-3.1913361e-12
1.6956436e-12
1.3656853e-11
1.4885426e-11
4.1777692e-13
1.0450418e-11
5.032974e-12
6.8027806e-12
5.4090066e-12
1.1955548e-11
1.0016876e-11
6.1126659e-12
5.6816774e-12
5.4395377e-12
7.8060891e-12
2.3904767e-11
7.3672179e-12
2.3687718e-12
1.8678836e-11
2.1339597e-12
-6.670553e-12
8.1282758e-12
3.5624836e-12
-7.8914653e-13
-1.7696955e-12
2.038858e-11
1.9330093e-12
-1.9649393e-11
-1.1704193e-11
1.5697443e-12
2.1305402e-11
-8.7509999e-12
2.3241409e-12
-5.690004e-12
-1.0658141e-12
-5.724976e-12
-1.1447066e-11
-9.6387343e-12
-1.4851786e-11
-1.4950485e-11
-7.0476958e-13
-7.1573858e-12
-1.8396951e-11
-3.5934589e-12
-2.6937008e-11
-1.2173818e-11
-2.9460989e-11
-1.5394241e-11
-2.5900726e-11
-2.1782132e-11
-2.3719582e-11
-4.2940318e-11
-3.4683589e-11
-3.2766456e-11
-1.1644907e-11
5.4043436e-12
-1.5007995e-11
-6.7541528e-12
-2.1120439e-11
-3.8179016e-11
-3.3310243e-11
-3.7711723e-11
-2.9240832e-11
-2.1071589e-11
-2.372913e-11
-4.7836513e-11
-4.8512083e-11
-3.4183323e-11
-3.5156988e-11
-2.8272273e-11
-3.7208125e-11
-2.7664315e-11
-9.8148156e-12
-1.4769963e-11
-1.9816371e-11
-2.6242453e-11
-1.0758727e-11
-2.1462832e-11
-5.0032534e-11
-1.8250512e-11
-2.302547e-11
-3.3793524e-11
-3.5470848e-11
-1.3640422e-11
-2.6871172e-11
-1.1566748e-11
-1.040279e-12
-6.3187233e-12
1.2899237e-11
-1.1559642e-11
5.5542237e-12
1.5475621e-11
-2.3654412e-12
-1.0006218e-11
-2.1092461e-11
1.4328538e-12
-8.4066087e-12
-1.1446621e-11
-8.5627061e-12
3.7392311e-12
3.8269388e-12
-2.1224134e-12
1.505418e-11
1.7694735e-11
2.4760638e-11
9.005019e-12
7.3332451e-12
7.0832229e-13
6.54099e-12
8.572254e-12
2.2588598e-12
1.6504575e-12
8.4057206e-12
2.6775249e-12
2.8202107e-11
-3.0951908e-12
1.5613288e-11
7.6900708e-12
2.2545077e-11
2.1161073e-11
1.5591084e-11
1.8099855e-11
1.2933876e-11
1.0632162e-11
1.5966339e-11
-9.4613206e-12
-2.042333e-11
-2.5010327e-11
-9.1464614e-12
-6.1557426e-12
-4.8030468e-12
-1.9577895e-11
-1.1623702e-11
3.3144598e-12
1.0276002e-11
1.1809997e-11
3.2685521e-11
3.107159e-11
2.69057e-11
2.2634672e-11
2.7273739e-12
2.1835422e-11
1.065581e-11
7.3713258e-12
1.4209744e-11
1.2557289e-11
3.3320013e-12
-9.7595265e-12
-4.4375614e-12
1.2070567e-11
1.067646e-11
8.2353013e-12
-6.3784533e-12
5.2892135e-12
-8.8147267e-12
-1.0328405e-12
1.2587931e-11
-1.5114576e-12
2.5277558e-12
-2.4236169e-12
1.3469892e-11
8.8598018e-12
-4.5288218e-12
-3.9148684e-12
-5.291545e-12
3.4139358e-12
3.0078162e-12
4.6020965e-12
-4.3784976e-12
-1.6626034e-11
-2.4693136e-11
-2.8580804e-11
-6.859957e-12
-1.2170265e-11
-1.384326e-11
-2.1966429e-11
-1.8441471e-11
-6.3592465e-12
-1.938405e-11
-9.2352792e-12
-1.6190382e-11
-7.7584605e-12
-1.0802914e-11
-6.1537442e-12
-1.6731727e-11
-1.5787371e-12
-8.5781382e-12
-1.2117418e-11
-3.6053383e-12
-2.4732882e-11
-4.8808069e-11
-8.9329655e-12
-3.350098e-11
-4.0630388e-11
-1.3559376e-11
-1.1973533e-11
-2.8966607e-11
-1.087419e-11
-1.9347857e-11
-1.3168799e-11
-1.2538415e-11
-1.0043077e-11
-1.7563728e-11
-2.0889956e-12
5.7136518e-12
1.6017632e-11
1.4867885e-11
2.5491942e-11
5.7753802e-12
1.6682877e-11
-1.4501067e-11
-4.8692161e-12
-5.1700866e-12
-1.6658008e-11
-2.95719e-12
2.0115021e-12
1.0391688e-13
-1.9895197e-12
7.1918027e-12
5.3768101e-12
-8.4687812e-12
-5.7354121e-13
-7.4988904e-12
5.1989524e-12
2.8910208e-13
1.6445734e-11
2.3814506e-11
2.7028824e-11
2.7056801e-11
2.8357539e-11
1.9210411e-11
1.5419888e-11
1.4721779e-11
-7.6738615e-12
1.0404788e-11
3.8915537e-12
1.9852786e-11
2.950884e-11
1.6894486e-11
1.3455681e-11
2.8097413e-11
1.1332935e-11
7.6159079e-12
2.0365376e-11
-8.5709218e-13
1.220779e-11
2.2371216e-11
9.8854258e-13
1.7656321e-11
7.332801e-12
7.9025675e-13
4.9266147e-12
-1.1142198e-12
-2.7747804e-12
3.6665115e-12
-9.2706953e-12
9.9855679e-12
2.7797764e-12
2.6910696e-12
6.7318373e-12
1.6548873e-11
2.4621638e-11
3.1956771e-11
4.6948223e-11
8.5908725e-11
1.2247614e-10
1.5990365e-10
2.542605e-10
4.2958537e-10
6.8791772e-10
1.0931619e-09
1.6972689e-09
2.5909727e-09
4.040475e-09
6.1834373e-09
9.4714342e-09
1.4458677e-08
2.1924418e-08
3.3177111e-08
5.0005319e-08
7.5071897e-08
1.12229e-07
1.6706584e-07
2.4771833e-07
3.6573313e-07
5.3766378e-07
7.869549e-07
1.1467593e-06
1.6635708e-06
2.4023115e-06
3.4528755e-06
4.9394653e-06
7.03209e-06
9.9621575e-06
1.404273e-05
1.9694218e-05
2.747726e-05
3.8134059e-05
5.2639972e-05
7.226648e-05
9.8658042e-05
0.00013392335
0.0001807432
0.00024249474
0.00032339242
0.00042864386
0.00056461838
0.00073902245
0.00096107654
0.0012416832
0.0015935758
0.0020314342
0.0025719534
0.0032338487
0.0040377839
0.0050062098
0.0061631037
0.0075336068
0.0091435612
0.011018959
0.013185318
0.01566701
0.018486572
0.021664033
0.02521629
0.029156562
0.033493957
0.038233167
0.0433743
0.04891286
0.054839867
0.0611421
0.067802447
0.074800349
0.082112289
0.08971233
0.097572663
0.10566414
0.11395679
0.12242027
0.13102426
0.13973888
0.14853493
0.15738415
0.16625942
0.1751349
0.18398613
0.19279009
0.20152523
0.21017148
0.21871027
0.22712444
0.23539826
0.24351738
0.25146879
0.25924065
0.26682264
0.27420474
0.28138057
0.28833797
0.29508268
0.30158354
0.30788689
0.31390184
0.31975578
0.32528863
0.33063591
0.33577081
0.34050842
0.34530287
0.34948141
0.35379415
0.35752483
0.36132349
0.36476555
0.36778083
0.37095637
0.37371837
0.37623162
0.37858113
0.38075353
0.38269988
0.38444285
0.38600293
0.38738649
0.38859457
0.3896318
0.39051106
0.39123835
0.39183341
0.3922954
0.39264632
0.39289347
0.39305378
0.39314518
0.39317519
0.39316677
0.39312397
0.39306495
0.39299294
0.39291695
0.39283926
0.39275965
0.39267988
0.39260733
0.39252627
0.3924355
0.39236843
0.39228166
0.39217974
0.39206269
0.39197393
0.39183683
0.39171998
0.39159279
0.39144083
0.39126498
0.39106365
0.39084155
0.39059679
0.39029297
0.38988665
0.38930029
0.38841355
0.3870862
0.38516715
0.38250676
0.37897896
0.3744927
0.36900942
0.36255227
0.35520012
0.34710098
0.33844156
0.32944037
0.32032844
0.31133266
0.30265701
0.29447655
0.28692165
0.28008483
0.27401229
0.26871646
0.2641752
0.2603483
0.25717198
0.25457898
0.25249305
0.25083964
0.24954764
0.24855045
0.24778927
0.2472113
0.24677314
0.24643402
0.24616057
0.24592154
0.24569379
0.2454528
0.24516379
0.2448259
0.24439587
0.24383453
0.24310211
0.24214992
0.24091793
0.23933207
0.23730122
0.23471385
0.23143462
0.22730109
0.2221213
0.21567315
0.20770746
0.19795734
0.18615799
0.1720827
0.1556016
0.13676923
0.11593944
0.09388591
0.071864663
0.051499896
0.034374451
0.021426758
0.012608068
0.007112282
0.0039047834
0.0021105751
0.0011313532
0.00060393138
0.00032174026
0.00017123995
9.1093798e-05
4.844353e-05
2.5755439e-05
1.3689491e-05
7.27413e-06
3.8640073e-06
2.0518584e-06
1.0891663e-06
5.7792513e-07
3.0652588e-07
1.6250202e-07
8.6115336e-08
4.5611992e-08
2.4146288e-08
1.2779746e-08
6.7566595e-09
3.5695238e-09
1.8841991e-09
9.9308145e-10
5.276163e-10
2.7759203e-10
1.4519712e-10
8.0901952e-11
3.9845349e-11
2.1772084e-11
1.1515844e-11
7.5792428e-12
4.1873727e-12
4.5528858e-13
-2.7923774e-12
-1.7631729e-12
-4.4358683e-12
-4.8830523e-12
-2.5363184e-12
-3.7337633e-12
-5.2220867e-12
-1.4375445e-12
5.7270855e-13
3.3796715e-12
2.2656044e-12
2.2076646e-12
3.1734476e-12
4.8318155e-12
-1.1949608e-12
-1.9759056e-12
-2.8819586e-12
-6.7452988e-13
-5.3569926e-12
-1.904768e-12
-5.0443399e-12
-3.9729053e-12
-3.4368619e-12
-4.130668e-12
-3.3171799e-12
-3.5293157e-12
-4.7612053e-12
-4.5592835e-12
-9.7241798e-12
-7.8251017e-12
-6.3452299e-12
-5.5144361e-12
-3.3727743e-12
-4.6901927e-12
-2.9664743e-12
-2.2006702e-12
3.6516484e-12
2.196951e-12
2.894629e-12
5.1240123e-12
4.1861792e-12
2.0316943e-12
-1.5514812e-12
3.4715425e-12
1.8293561e-12
-1.0830226e-12
-1.5423912e-12
1.3004181e-12
-1.1694118e-12
5.3244215e-12
9.5215502e-13
2.0439345e-12
4.013942e-12
-5.1643412e-13
-3.6143588e-12
-4.7900572e-13
1.1892431e-12
2.8161362e-12
2.0264623e-12
3.8012649e-12
3.8790915e-12
4.4358545e-12
8.9346169e-12
5.5341842e-12
7.2194611e-12
7.322129e-12
8.2557711e-12
5.2411825e-12
1.4924312e-12
3.3070213e-12
3.2425868e-12
6.3708622e-12
4.0275006e-12
2.8054642e-12
5.1267601e-12
4.3467591e-12
1.995154e-12
-4.3932913e-13
-1.1058099e-12
-1.0792756e-12
2.5699165e-12
-2.2340879e-12
-1.5296236e-12
3.4558467e-13
8.4725282e-13
1.736819e-12
2.5234537e-12
-8.6965157e-13
-1.7620627e-12
-3.1227937e-12
-3.2915476e-12
-2.7578911e-12
-1.012801e-12
-2.0902308e-12
-3.7996273e-12
-2.8966968e-12
-2.0834723e-13
-1.9004104e-12
-1.5194374e-12
2.312206e-12
5.4159455e-13
3.2852193e-12
6.5654426e-12
1.8956919e-12
-5.1955662e-13
7.8681506e-13
1.9801799e-12
-4.3194615e-13
-2.0405344e-12
-4.4209081e-13
1.2894547e-12
-2.4872326e-12
2.4049374e-12
3.9916959e-12
1.9694107e-12
1.424097e-12
-3.053946e-13
1.1659979e-12
-2.1700697e-12
-1.9992064e-12
-2.1943142e-12
-3.4448971e-12
-3.2095021e-12
-6.146611e-12
-4.7664095e-12
-5.7055471e-12
-5.6266103e-12
-3.0571379e-12
-6.8705042e-12
-7.2080397e-12
-4.2920667e-12
-1.0211693e-12
-2.3985675e-12
9.2009733e-13
-4.4935305e-12
-3.1286779e-12
-3.263334e-12
-3.8720416e-12
-6.1822492e-12
-6.0670358e-12
-3.9326736e-12
-2.3072655e-12
-1.979375e-12
-2.314815e-12
-1.2095602e-12
-2.7717134e-12
-1.3592322e-12
-1.6330132e-12
-1.7110896e-12
-1.1374512e-12
-1.4091922e-12
-5.006523e-12
6.2608252e-13
-3.1136482e-12
-1.8312851e-12
-3.5235564e-12
-3.8578724e-12
-2.2151309e-12
-1.5533269e-12
-3.5164927e-12
-3.9496184e-13
-1.7430918e-12
-2.627093e-12
-1.9493712e-12
-1.0842993e-12
-3.7351511e-12
-3.3765629e-12
-2.0204949e-12
-3.0474234e-13
-1.7666701e-12
-3.3133912e-12
-6.4249578e-12
-8.1048085e-12
-7.8616696e-12
-7.3423628e-12
-4.492906e-12
-7.2025719e-14
8.258394e-13
8.3369422e-13
-2.7952501e-12
-1.4008378e-12
-3.4682396e-12
-7.6799678e-13
-3.1872005e-12
-3.4153375e-12
-4.1633086e-12
-7.7431117e-13
-1.3152257e-12
-4.5715931e-12
1.5091678e-12
1.5363544e-12
4.0520087e-12
3.7827241e-12
1.8321872e-12
5.6258193e-12
2.7278041e-12
1.4942908e-12
3.2489983e-12
3.7597286e-12
1.5895757e-12
1.0592083e-12
7.4262818e-13
-1.6695395e-12
-1.4002272e-12
-1.047884e-12
-1.3470614e-12
-1.2597978e-12
-4.4151904e-12
-1.0601658e-12
1.6302515e-12
1.0537821e-12
2.6454533e-12
-1.5083906e-12
-1.2261026e-12
2.4583946e-12
2.8146513e-12
2.1374708e-12
3.3367892e-12
2.5411201e-12
2.4360791e-12
3.9729053e-12
3.4743458e-12
2.574857e-12
8.8500041e-13
2.8032299e-12
2.5503627e-12
2.9456992e-13
-3.2529535e-14
3.610362e-12
7.8999307e-13
-1.1239759e-12
-2.5243002e-12
-3.0068725e-12
-4.1527892e-13
2.1005558e-12
5.0325022e-12
7.891604e-13
2.0441426e-12
1.4775542e-12
1.3206797e-12
-6.4014072e-13
1.508238e-13
-2.3208518e-12
-1.7140456e-12
-4.7216397e-13
-2.6259828e-12
-2.0791147e-12
-3.757078e-12
-4.3032106e-12
-5.4122262e-12
-4.375722e-12
-3.3434921e-12
-4.7553211e-12
-1.4700047e-12
7.0395079e-13
4.8484827e-13
-4.5470572e-13
-2.5342506e-12
-4.0511483e-12
1.7938706e-12
-6.0461358e-13
-2.2091079e-12
1.9852037e-12
-3.666234e-13
2.0476815e-12
2.6040281e-13
-2.0247692e-14
-2.833761e-12
-2.0814739e-12
-2.8300279e-12
-2.5378588e-12
-5.048878e-13
-6.2172489e-13
-2.553513e-15
7.2594708e-13
1.9331342e-12
2.0073804e-12
7.7296503e-13
3.0053737e-13
-9.8746011e-13
6.5538269e-12
7.2869488e-12
4.9393545e-12
4.1346648e-12
3.9257486e-12
2.9806713e-12
5.3740346e-13
-1.104089e-12
1.1729506e-13
-7.4433515e-13
-7.9636298e-13
-4.6772308e-13
-2.6544322e-12
-5.4292265e-12
-4.0966397e-12
-2.2121194e-13
-2.3338137e-12
-1.9149404e-12
-1.6066176e-12
-4.0517451e-12
-7.942258e-14
-5.0427718e-13
1.7369994e-12
1.7899016e-12
-5.4484195e-14
5.0235927e-12
3.7541914e-12
6.0764865e-12
5.2410437e-12
6.1494559e-12
3.1410152e-12
1.8344354e-12
2.4706348e-12
2.2299523e-12
2.9219682e-12
2.1912888e-12
4.8526599e-12
1.9430846e-12
8.3572038e-13
5.7667343e-12
4.3959281e-13
-2.277234e-12
-1.0820372e-12
1.383102e-12
-3.0539321e-12
-3.053946e-12
-3.8038878e-12
1.3632151e-13
1.1902979e-12
4.8273885e-13
9.8832054e-13
1.1720902e-12
-8.7824192e-13
3.5111081e-12
4.8180487e-12
4.6845028e-12
6.1716188e-12
7.1833373e-12
5.1265381e-12
4.240594e-12
6.2250344e-12
6.2548022e-12
4.655179e-12
2.6827429e-12
7.1063572e-12
6.2754246e-12
6.3970218e-12
3.7337772e-12
5.0507931e-12
3.9780262e-12
2.8471253e-12
4.3598875e-12
1.1941975e-12
-1.9496904e-13
-1.7074259e-12
-5.7592819e-14
6.5170092e-14
2.9689862e-12
3.2977787e-12
1.5087653e-12
-1.0286216e-13
-7.1796735e-13
4.2975623e-12
1.638939e-12
4.3429843e-12
4.2177511e-12
8.2465978e-13
1.7022495e-12
-5.7404081e-13
)
;

boundaryField
{
    sides
    {
        type            calculated;
        value           nonuniform List<scalar> 2(1.2898267e-21 2.7494153e-21);
    }
    emptywalls
    {
        type            empty;
        value           nonuniform List<scalar> 0();
    }
}


// ************************************************************************* //
