/*--------------------------------*- C++ -*----------------------------------*\
| =========                 |                                                 |
| \\      /  F ield         | OpenFOAM: The Open Source CFD Toolbox           |
|  \\    /   O peration     | Version:  2112                                  |
|   \\  /    A nd           | Website:  www.openfoam.com                      |
|    \\/     M anipulation  |                                                 |
\*---------------------------------------------------------------------------*/
FoamFile
{
    version     2.0;
    format      ascii;
    arch        "LSB;label=32;scalar=64";
    class       volScalarField;
    location    "0.05";
    object      T;
}
// * * * * * * * * * * * * * * * * * * * * * * * * * * * * * * * * * * * * * //

dimensions      [0 0 0 1 0 0 0];

internalField   nonuniform List<scalar> 
1000
(
0.00348
0.00348
0.00348
0.00348
0.00348
0.00348
0.00348
0.00348
0.00348
0.00348
0.00348
0.00348
0.00348
0.00348
0.00348
0.00348
0.00348
0.00348
0.00348
0.00348
0.00348
0.00348
0.00348
0.00348
0.00348
0.00348
0.00348
0.00348
0.00348
0.00348
0.00348
0.00348
0.00348
0.00348
0.00348
0.00348
0.00348
0.00348
0.00348
0.00348
0.00348
0.00348
0.00348
0.00348
0.00348
0.00348
0.00348
0.00348
0.00348
0.00348
0.00348
0.00348
0.00348
0.00348
0.00348
0.00348
0.00348
0.00348
0.00348
0.00348
0.00348
0.00348
0.00348
0.00348
0.00348
0.00348
0.00348
0.00348
0.00348
0.00348
0.00348
0.00348
0.00348
0.00348
0.00348
0.00348
0.00348
0.00348
0.00348
0.00348
0.00348
0.00348
0.00348
0.00348
0.00348
0.00348
0.00348
0.00348
0.00348
0.00348
0.00348
0.00348
0.00348
0.00348
0.00348
0.00348
0.00348
0.00348
0.00348
0.00348
0.00348
0.00348
0.00348
0.00348
0.00348
0.00348
0.00348
0.00348
0.00348
0.00348
0.00348
0.00348
0.00348
0.00348
0.00348
0.00348
0.00348
0.00348
0.00348
0.00348
0.00348
0.00348
0.00348
0.00348
0.00348
0.00348
0.00348
0.00348
0.00348
0.00348
0.00348
0.00348
0.00348
0.00348
0.00348
0.00348
0.00348
0.00348
0.00348
0.00348
0.00348
0.00348
0.00348
0.00348
0.00348
0.00348
0.00348
0.00348
0.00348
0.00348
0.00348
0.00348
0.00348
0.00348
0.00348
0.00348
0.00348
0.00348
0.00348
0.00348
0.00348
0.00348
0.00348
0.00348
0.00348
0.00348
0.00348
0.00348
0.00348
0.00348
0.00348
0.00348
0.00348
0.00348
0.00348
0.00348
0.00348
0.00348
0.00348
0.00348
0.00348
0.00348
0.00348
0.00348
0.00348
0.00348
0.00348
0.00348
0.00348
0.00348
0.00348
0.00348
0.00348
0.00348
0.00348
0.00348
0.00348
0.00348
0.00348
0.00348
0.00348
0.00348
0.00348
0.00348
0.00348
0.00348
0.00348
0.00348
0.00348
0.00348
0.00348
0.00348
0.00348
0.00348
0.00348
0.00348
0.00348
0.00348
0.00348
0.00348
0.00348
0.00348
0.00348
0.00348
0.00348
0.00348
0.00348
0.00348
0.00348
0.00348
0.00348
0.00348
0.00348
0.00348
0.00348
0.00348
0.00348
0.00348
0.00348
0.00348
0.00348
0.00348
0.00348
0.00348
0.00348
0.00348
0.00348
0.00348
0.00348
0.00348
0.00348
0.00348
0.00348
0.00348
0.00348
0.00348
0.00348
0.00348
0.00348
0.00348
0.00348
0.00348
0.00348
0.00348
0.00348
0.00348
0.00348
0.00348
0.00348
0.00348
0.00348
0.00348
0.00348
0.00348
0.00348
0.00348
0.00348
0.00348
0.00348
0.00348
0.00348
0.00348
0.00348
0.00348
0.00348
0.00348
0.00348
0.00348
0.00348
0.00348
0.00348
0.00348
0.00348
0.00348
0.00348
0.00348
0.00348
0.00348
0.00348
0.00348
0.00348
0.00348
0.00348
0.00348
0.00348
0.00348
0.00348
0.00348
0.00348
0.00348
0.00348
0.00348
0.00348
0.00348
0.00348
0.00348
0.00348
0.00348
0.00348
0.00348
0.00348
0.00348
0.00348
0.00348
0.00348
0.00348
0.00348
0.00348
0.00348
0.00348
0.00348
0.00348
0.00348
0.00348
0.00348
0.00348
0.00348
0.00348
0.00348
0.00348
0.00348
0.00348
0.00348
0.00348
0.00348
0.00348
0.00348
0.00348
0.00348
0.00348
0.00348
0.00348
0.00348
0.00348
0.00348
0.00348
0.00348
0.00348
0.00348
0.00348
0.00348
0.00348
0.00348
0.00348
0.00348
0.00348
0.00348
0.00348
0.00348
0.00348
0.00348
0.00348
0.00348
0.00348
0.00348
0.00348
0.00348
0.00348
0.00348
0.00348
0.00348
0.00348
0.00348
0.00348
0.00348
0.00348
0.00348
0.00348
0.0034799999
0.0034799999
0.0034799998
0.0034799998
0.0034799997
0.0034799995
0.0034799992
0.0034799989
0.0034799984
0.0034799977
0.0034799967
0.0034799952
0.0034799932
0.0034799903
0.0034799863
0.0034799807
0.0034799729
0.0034799623
0.0034799478
0.003479928
0.0034799014
0.0034798657
0.003479818
0.003479755
0.003479672
0.0034795635
0.0034794229
0.0034792416
0.0034790099
0.0034787156
0.0034783449
0.0034778813
0.0034773062
0.0034765982
0.0034757338
0.0034746867
0.0034734286
0.0034719292
0.0034701568
0.0034680785
0.003465661
0.0034628714
0.0034596774
0.0034560486
0.0034519566
0.003447376
0.0034422846
0.003436664
0.0034304999
0.0034237821
0.0034165049
0.0034086662
0.0034002684
0.0033913171
0.0033818215
0.0033717935
0.0033612478
0.0033502007
0.0033386706
0.0033266768
0.0033142398
0.0033013805
0.0032881201
0.00327448
0.0032604813
0.0032461451
0.003231492
0.003216542
0.0032013148
0.0031858296
0.0031701048
0.0031541584
0.003138008
0.0031216703
0.0031051621
0.0030884987
0.0030716978
0.0030547674
0.0030377446
0.0030205791
0.0030034586
0.002985969
0.0029690916
0.0029508467
0.0029349643
0.002915247
0.0029008695
0.0028802221
0.0028653351
0.0028475644
0.0028276911
0.0028163462
0.0027905636
0.0027843946
0.0027565758
0.0027479815
0.0027281798
0.002711485
0.0026958955
0.002680266
0.0026644592
0.0026489522
0.00263417
0.0026195758
0.0026055867
0.0025918884
0.0025790061
0.0025665975
0.002555091
0.0025442498
0.0025343301
0.0025253788
0.0025173495
0.0025104573
0.0025045066
0.0024996434
0.0024957568
0.0024927192
0.0024905924
0.0024890042
0.00248815
0.0024875575
0.0024874758
0.0024874808
0.0024879891
0.0024878565
0.0024889359
0.0024888354
0.0024896674
0.0024898825
0.0024907542
0.0024917495
0.0024914314
0.0024932419
0.0024931983
0.0024943709
0.0024953551
0.0024966879
0.0024981042
0.0024997087
0.0025013485
0.0025036351
0.0025065358
0.0025110161
0.0025176995
0.0025279197
0.0025424458
0.0025627565
0.0025895334
0.002624059
0.0026666154
0.0027179842
0.0027778285
0.0028460896
0.0029216714
0.0030037295
0.0030903719
0.0031800541
0.0032704146
0.0033595777
0.0034453036
0.0035259348
0.003599932
0.003666355
0.0037246539
0.0037746148
0.0038166865
0.0038511612
0.0038790761
0.0039009792
0.0039180333
0.0039308172
0.0039403558
0.0039471084
0.0039518185
0.003954863
0.0039566724
0.0039575303
0.0039577247
0.0039572242
0.00395656
0.0039551182
0.0039531314
0.0039506979
0.0039477024
0.0039439926
0.0039393689
0.0039335759
0.003926287
0.0039170908
0.0039054663
0.0038907606
0.0038721519
0.0038486154
0.003818878
0.0037813814
0.0037342638
0.0036754023
0.0036026035
0.0035141006
0.0034096426
0.0032923393
0.0031704389
0.0030564148
0.0029619037
0.0028922991
0.0028459741
0.0028174325
0.002800755
0.0027913376
0.0027861339
0.002783298
0.002781766
0.0027809432
0.0027805029
0.0027802678
0.0027801425
0.0027800757
0.0027800402
0.0027800214
0.0027800113
0.002780006
0.0027800032
0.0027800017
0.0027800009
0.0027800005
0.0027800003
0.0027800001
0.0027800001
0.00278
0.00278
0.00278
0.00278
0.00278
0.00278
0.00278
0.00278
0.00278
0.00278
0.00278
0.00278
0.00278
0.00278
0.00278
0.00278
0.00278
0.00278
0.00278
0.00278
0.00278
0.00278
0.00278
0.00278
0.00278
0.00278
0.00278
0.00278
0.00278
0.00278
0.00278
0.00278
0.00278
0.00278
0.00278
0.00278
0.00278
0.00278
0.00278
0.00278
0.00278
0.00278
0.00278
0.00278
0.00278
0.00278
0.00278
0.00278
0.00278
0.00278
0.00278
0.00278
0.00278
0.00278
0.00278
0.00278
0.00278
0.00278
0.00278
0.00278
0.00278
0.00278
0.00278
0.00278
0.00278
0.00278
0.00278
0.00278
0.00278
0.00278
0.00278
0.00278
0.00278
0.00278
0.00278
0.00278
0.00278
0.00278
0.00278
0.00278
0.00278
0.00278
0.00278
0.00278
0.00278
0.00278
0.00278
0.00278
0.00278
0.00278
0.00278
0.00278
0.00278
0.00278
0.00278
0.00278
0.00278
0.00278
0.00278
0.00278
0.00278
0.00278
0.00278
0.00278
0.00278
0.00278
0.00278
0.00278
0.00278
0.00278
0.00278
0.00278
0.00278
0.00278
0.00278
0.00278
0.00278
0.00278
0.00278
0.00278
0.00278
0.00278
0.00278
0.00278
0.00278
0.00278
0.00278
0.00278
0.00278
0.00278
0.00278
0.00278
0.00278
0.00278
0.00278
0.00278
0.00278
0.00278
0.00278
0.00278
0.00278
0.00278
0.00278
0.00278
0.00278
0.00278
0.00278
0.00278
0.00278
0.00278
0.00278
0.00278
0.00278
0.00278
0.00278
0.00278
0.00278
0.00278
0.00278
0.00278
0.00278
0.00278
0.00278
0.00278
0.00278
0.00278
0.00278
0.00278
0.00278
0.00278
0.00278
0.00278
0.00278
0.00278
0.00278
0.00278
0.00278
0.00278
0.00278
0.00278
0.00278
0.00278
0.00278
0.00278
0.00278
0.00278
0.00278
0.00278
0.00278
0.00278
0.00278
0.00278
0.00278
0.00278
0.00278
0.00278
0.00278
0.00278
0.00278
0.00278
0.00278
0.00278
0.00278
0.00278
0.00278
0.00278
0.00278
0.00278
0.00278
0.00278
0.00278
0.00278
0.00278
0.00278
0.00278
0.00278
0.00278
0.00278
0.00278
0.00278
0.00278
0.00278
0.00278
0.00278
0.00278
0.00278
0.00278
0.00278
0.00278
0.00278
0.00278
0.00278
0.00278
0.00278
0.00278
0.00278
0.00278
0.00278
0.00278
0.00278
0.00278
0.00278
0.00278
0.00278
0.00278
0.00278
0.00278
0.00278
0.00278
0.00278
0.00278
0.00278
0.00278
0.00278
0.00278
0.00278
0.00278
0.00278
0.00278
0.00278
0.00278
0.00278
0.00278
0.00278
0.00278
0.00278
0.00278
0.00278
0.00278
0.00278
0.00278
0.00278
0.00278
0.00278
0.00278
0.00278
0.00278
0.00278
0.00278
0.00278
0.00278
0.00278
0.00278
0.00278
0.00278
0.00278
0.00278
0.00278
0.00278
0.00278
0.00278
0.00278
0.00278
0.00278
0.00278
0.00278
0.00278
0.00278
0.00278
0.00278
0.00278
0.00278
0.00278
0.00278
0.00278
0.00278
0.00278
0.00278
0.00278
0.00278
0.00278
0.00278
0.00278
0.00278
0.00278
0.00278
0.00278
0.00278
0.00278
0.00278
0.00278
0.00278
0.00278
0.00278
0.00278
0.00278
0.00278
0.00278
0.00278
0.00278
0.00278
0.00278
0.00278
0.00278
0.00278
0.00278
0.00278
0.00278
0.00278
0.00278
0.00278
0.00278
0.00278
0.00278
0.00278
0.00278
0.00278
0.00278
0.00278
0.00278
0.00278
0.00278
0.00278
0.00278
0.00278
0.00278
0.00278
0.00278
0.00278
0.00278
0.00278
0.00278
0.00278
0.00278
0.00278
0.00278
0.00278
0.00278
0.00278
0.00278
0.00278
0.00278
0.00278
0.00278
0.00278
0.00278
0.00278
0.00278
0.00278
0.00278
0.00278
0.00278
0.00278
)
;

boundaryField
{
    sides
    {
        type            zeroGradient;
    }
    emptywalls
    {
        type            empty;
    }
}


// ************************************************************************* //
