/*--------------------------------*- C++ -*----------------------------------*\
| =========                 |                                                 |
| \\      /  F ield         | OpenFOAM: The Open Source CFD Toolbox           |
|  \\    /   O peration     | Version:  2112                                  |
|   \\  /    A nd           | Website:  www.openfoam.com                      |
|    \\/     M anipulation  |                                                 |
\*---------------------------------------------------------------------------*/
FoamFile
{
    version     2.0;
    format      ascii;
    arch        "LSB;label=32;scalar=64";
    class       volVectorField;
    location    "0.05";
    object      U;
}
// * * * * * * * * * * * * * * * * * * * * * * * * * * * * * * * * * * * * * //

dimensions      [0 1 -1 0 0 0 0];

internalField   nonuniform List<vector> 
1000
(
(-2.7526837e-21 0 0)
(1.7746893e-12 0 0)
(-2.0736943e-12 0 0)
(6.5976737e-12 0 0)
(3.0231742e-12 0 0)
(1.973511e-11 0 0)
(3.8429815e-11 0 0)
(3.5043055e-11 0 0)
(3.6740048e-11 0 0)
(3.4151487e-11 0 0)
(3.312531e-11 0 0)
(3.7551919e-11 0 0)
(5.101537e-11 0 0)
(5.7644389e-11 0 0)
(4.5714756e-11 0 0)
(6.0436696e-11 0 0)
(5.3138084e-11 0 0)
(6.9859912e-11 0 0)
(3.6375573e-11 0 0)
(6.6125017e-11 0 0)
(4.3634948e-11 0 0)
(4.9585704e-11 0 0)
(3.6472722e-11 0 0)
(3.8493395e-11 0 0)
(5.0170931e-11 0 0)
(4.0155819e-11 0 0)
(5.4661564e-11 0 0)
(4.9487666e-11 0 0)
(4.2020654e-11 0 0)
(3.9245132e-11 0 0)
(2.1069961e-11 0 0)
(3.8967024e-11 0 0)
(1.1786022e-11 0 0)
(2.0277876e-11 0 0)
(3.4493286e-11 0 0)
(1.3071522e-11 0 0)
(3.5496898e-11 0 0)
(-4.6400244e-12 0 0)
(7.3079495e-12 0 0)
(1.1963536e-11 0 0)
(1.7105533e-11 0 0)
(2.5129983e-11 0 0)
(3.7205451e-11 0 0)
(2.2064014e-11 0 0)
(3.9234016e-11 0 0)
(3.1747887e-11 0 0)
(6.2667118e-11 0 0)
(4.7624831e-11 0 0)
(4.2233181e-11 0 0)
(3.2656017e-11 0 0)
(5.2609767e-11 0 0)
(2.0011995e-11 0 0)
(3.3357734e-11 0 0)
(2.4112254e-11 0 0)
(4.5811015e-11 0 0)
(3.5296154e-11 0 0)
(3.1764004e-11 0 0)
(1.9090304e-11 0 0)
(1.6184175e-11 0 0)
(-1.6574215e-12 0 0)
(8.2339759e-12 0 0)
(1.4057238e-11 0 0)
(-3.7013265e-12 0 0)
(1.0988713e-11 0 0)
(8.7490648e-12 0 0)
(7.1971287e-12 0 0)
(2.1961863e-12 0 0)
(-1.2606341e-11 0 0)
(3.4703479e-12 0 0)
(-1.6139935e-11 0 0)
(-2.207524e-13 0 0)
(9.9411945e-12 0 0)
(-8.4736245e-12 0 0)
(7.7101057e-12 0 0)
(-3.2740494e-12 0 0)
(-1.3583832e-11 0 0)
(-3.6973472e-11 0 0)
(-2.5358849e-11 0 0)
(-3.7302822e-11 0 0)
(-8.4778484e-12 0 0)
(-1.9442996e-11 0 0)
(-1.394764e-12 0 0)
(-2.4509742e-11 0 0)
(5.974765e-12 0 0)
(-1.7662305e-11 0 0)
(7.4792383e-12 0 0)
(-8.4985231e-12 0 0)
(4.8352113e-12 0 0)
(7.5670502e-12 0 0)
(4.4170489e-12 0 0)
(8.6703676e-12 0 0)
(-5.4265521e-12 0 0)
(-1.316478e-11 0 0)
(-5.1367729e-12 0 0)
(-9.5374822e-12 0 0)
(-1.5554152e-11 0 0)
(3.0192838e-12 0 0)
(-9.9525323e-12 0 0)
(-2.7526247e-12 0 0)
(-2.7248583e-11 0 0)
(-3.3253027e-11 0 0)
(-3.1303269e-11 0 0)
(-1.7980095e-11 0 0)
(-1.951458e-11 0 0)
(-9.1953493e-12 0 0)
(-2.1479232e-11 0 0)
(-7.0794164e-13 0 0)
(-9.7363372e-12 0 0)
(-7.5860576e-12 0 0)
(-4.1366067e-12 0 0)
(8.4655103e-12 0 0)
(1.1759456e-11 0 0)
(-2.4599555e-12 0 0)
(7.461009e-12 0 0)
(1.9657635e-12 0 0)
(9.1824554e-12 0 0)
(2.9520355e-12 0 0)
(7.2265846e-12 0 0)
(1.0029118e-11 0 0)
(5.016504e-12 0 0)
(8.9391387e-12 0 0)
(2.7870825e-12 0 0)
(-1.7783574e-12 0 0)
(2.2438271e-11 0 0)
(6.3403515e-12 0 0)
(1.3698654e-12 0 0)
(1.5806473e-11 0 0)
(-7.5124734e-12 0 0)
(1.1785578e-11 0 0)
(-1.1362747e-11 0 0)
(8.198073e-12 0 0)
(-2.9655963e-13 0 0)
(1.951269e-11 0 0)
(-1.4532422e-11 0 0)
(1.8755173e-11 0 0)
(-1.5073521e-11 0 0)
(-1.2059351e-11 0 0)
(-8.4621756e-12 0 0)
(1.7486792e-11 0 0)
(1.5758676e-11 0 0)
(-8.2220824e-13 0 0)
(-2.1127095e-12 0 0)
(-2.430833e-12 0 0)
(-2.216861e-12 0 0)
(-5.2233621e-12 0 0)
(-1.6759509e-11 0 0)
(-3.7577929e-12 0 0)
(-2.2094693e-11 0 0)
(-7.1176534e-12 0 0)
(9.0312855e-13 0 0)
(-1.2740615e-11 0 0)
(-1.5995435e-11 0 0)
(-9.7078817e-12 0 0)
(-6.9774879e-12 0 0)
(-2.2850653e-11 0 0)
(-1.884732e-11 0 0)
(-1.3578163e-11 0 0)
(-2.3461001e-11 0 0)
(-1.4870998e-11 0 0)
(-3.4924898e-11 0 0)
(-2.0623566e-11 0 0)
(-3.7227348e-11 0 0)
(-2.4297548e-11 0 0)
(-3.2345897e-12 0 0)
(-1.2288106e-12 0 0)
(-7.8179254e-12 0 0)
(-1.2153054e-11 0 0)
(-3.1761336e-11 0 0)
(-3.0104359e-11 0 0)
(-4.9089844e-11 0 0)
(-2.2955916e-11 0 0)
(-2.0952694e-11 0 0)
(-2.4853209e-11 0 0)
(-3.0088798e-11 0 0)
(-4.6737931e-11 0 0)
(-2.7189116e-11 0 0)
(-4.3924171e-11 0 0)
(-1.3284382e-11 0 0)
(-3.5513016e-11 0 0)
(-2.3221686e-11 0 0)
(-2.319412e-11 0 0)
(-8.234087e-12 0 0)
(-1.734796e-11 0 0)
(-2.2414261e-11 0 0)
(-2.4741165e-11 0 0)
(-1.5614509e-11 0 0)
(-2.6945021e-11 0 0)
(-5.6121798e-12 0 0)
(-4.1121972e-11 0 0)
(-8.4961889e-12 0 0)
(-4.2596545e-11 0 0)
(-1.8846653e-11 0 0)
(-1.2657027e-11 0 0)
(-1.5474788e-11 0 0)
(-7.6406343e-12 0 0)
(-1.8764066e-11 0 0)
(1.7795356e-11 0 0)
(-1.3170226e-11 0 0)
(-4.3859257e-12 0 0)
(2.884676e-12 0 0)
(5.1427752e-12 0 0)
(-8.762848e-12 0 0)
(-1.4342904e-11 0 0)
(-1.5868386e-12 0 0)
(-9.2896081e-12 0 0)
(-5.1143198e-12 0 0)
(-2.4338342e-12 0 0)
(-1.4113148e-11 0 0)
(1.9066961e-11 0 0)
(-1.4434273e-11 0 0)
(1.4013221e-11 0 0)
(1.6488515e-11 0 0)
(1.4173283e-11 0 0)
(1.7451223e-12 0 0)
(1.1489796e-11 0 0)
(1.0233086e-11 0 0)
(-8.94792e-14 0 0)
(9.4576734e-12 0 0)
(5.5815012e-12 0 0)
(2.3282376e-12 0 0)
(7.8250393e-12 0 0)
(-3.700993e-12 0 0)
(1.3538258e-11 0 0)
(7.9166304e-12 0 0)
(1.1328956e-11 0 0)
(1.552692e-11 0 0)
(2.491212e-11 0 0)
(1.1876279e-11 0 0)
(2.5403422e-11 0 0)
(1.3682648e-11 0 0)
(1.4819311e-11 0 0)
(7.2567074e-12 0 0)
(1.8029114e-11 0 0)
(-9.459563e-12 0 0)
(-6.4721805e-12 0 0)
(-2.6007879e-11 0 0)
(-1.8672252e-11 0 0)
(-3.7137758e-12 0 0)
(-7.7164415e-12 0 0)
(-3.5919507e-12 0 0)
(-2.2041894e-11 0 0)
(-1.7168891e-12 0 0)
(1.2685371e-11 0 0)
(3.4913561e-13 0 0)
(2.913087e-11 0 0)
(3.5241355e-11 0 0)
(2.3496459e-11 0 0)
(2.2445051e-11 0 0)
(1.3253703e-11 0 0)
(1.9686202e-11 0 0)
(1.3472788e-11 0 0)
(9.4227709e-12 0 0)
(7.7783545e-12 0 0)
(6.2785497e-12 0 0)
(1.1297388e-11 0 0)
(-7.4203265e-12 0 0)
(-1.895514e-12 0 0)
(-8.443724e-12 0 0)
(1.7070741e-11 0 0)
(7.5271458e-12 0 0)
(-3.453119e-12 0 0)
(-2.4398365e-12 0 0)
(3.0328446e-12 0 0)
(-9.9857674e-12 0 0)
(7.9177419e-12 0 0)
(-9.2651542e-12 0 0)
(6.2386453e-12 0 0)
(4.6440261e-13 0 0)
(9.5724958e-12 0 0)
(1.5300832e-11 0 0)
(1.3984543e-11 0 0)
(-1.9664971e-11 0 0)
(7.1287688e-12 0 0)
(-1.0909793e-12 0 0)
(6.2078556e-12 0 0)
(6.5058603e-13 0 0)
(1.2080248e-12 0 0)
(-1.0508748e-11 0 0)
(-2.1150771e-11 0 0)
(-2.121913e-11 0 0)
(-1.6469953e-11 0 0)
(3.661422e-13 0 0)
(-2.2888557e-11 0 0)
(-1.414994e-11 0 0)
(-3.2706815e-11 0 0)
(-4.0766945e-12 0 0)
(-9.2623753e-12 0 0)
(-4.2864427e-12 0 0)
(-1.2859217e-11 0 0)
(-6.5535454e-12 0 0)
(-8.9819331e-12 0 0)
(-6.0571304e-12 0 0)
(-1.0129935e-11 0 0)
(-8.8034193e-12 0 0)
(3.2608221e-12 0 0)
(-1.6373582e-11 0 0)
(3.0313996e-12 0 0)
(-1.0250426e-11 0 0)
(-2.6355903e-11 0 0)
(-3.8825413e-11 0 0)
(-3.6182943e-12 0 0)
(-5.261577e-11 0 0)
(-1.7042175e-11 0 0)
(-1.8240307e-11 0 0)
(1.3657527e-12 0 0)
(-2.4932795e-11 0 0)
(-1.392652e-11 0 0)
(-8.7496206e-12 0 0)
(-1.8755062e-11 0 0)
(-4.4370567e-12 0 0)
(-1.006213e-11 0 0)
(-1.3591501e-11 0 0)
(4.645471e-12 0 0)
(8.8438794e-12 0 0)
(1.2362024e-11 0 0)
(1.9208016e-11 0 0)
(-2.1200456e-12 0 0)
(1.3903622e-11 0 0)
(1.041071e-11 0 0)
(-1.3068409e-12 0 0)
(-1.0112372e-11 0 0)
(-1.6072798e-11 0 0)
(-8.334904e-12 0 0)
(2.413493e-12 0 0)
(-8.6822611e-13 0 0)
(-3.4113251e-13 0 0)
(1.7007161e-11 0 0)
(-2.6067903e-12 0 0)
(-3.5556032e-12 0 0)
(-3.572721e-12 0 0)
(-5.9801002e-14 0 0)
(3.3797572e-12 0 0)
(7.3517444e-13 0 0)
(1.2026671e-11 0 0)
(1.8532198e-11 0 0)
(2.2701484e-11 0 0)
(2.8425707e-11 0 0)
(2.7368741e-11 0 0)
(3.6684248e-11 0 0)
(-1.4204406e-12 0 0)
(2.7653519e-11 0 0)
(-7.4042092e-12 0 0)
(1.1783799e-11 0 0)
(6.2465373e-12 0 0)
(2.090034e-12 0 0)
(2.0498073e-11 0 0)
(1.6841097e-11 0 0)
(2.1098083e-11 0 0)
(1.3013388e-11 0 0)
(7.9192981e-12 0 0)
(9.1871239e-12 0 0)
(1.0342462e-11 0 0)
(6.1406073e-12 0 0)
(1.0997271e-11 0 0)
(8.9376937e-12 0 0)
(1.5383419e-11 0 0)
(2.3404646e-11 0 0)
(1.1561268e-11 0 0)
(2.4725159e-12 0 0)
(-1.4597892e-12 0 0)
(3.0045003e-13 0 0)
(-3.4289985e-12 0 0)
(-3.372421e-13 0 0)
(1.9787686e-12 0 0)
(-1.5038063e-11 0 0)
(1.8585997e-11 0 0)
(-3.1100969e-12 0 0)
(5.5063609e-12 0 0)
(1.1281159e-11 0 0)
(1.0377364e-11 0 0)
(4.1110078e-11 0 0)
(2.1691536e-11 0 0)
(7.2435245e-11 0 0)
(9.4007179e-11 0 0)
(1.4702988e-10 0 0)
(1.873461e-10 0 0)
(3.4193047e-10 0 0)
(5.5960702e-10 0 0)
(8.8130008e-10 0 0)
(1.3964495e-09 0 0)
(2.1339368e-09 0 0)
(3.3073508e-09 0 0)
(5.1041885e-09 0 0)
(7.8188305e-09 0 0)
(1.1953272e-08 0 0)
(1.8175082e-08 0 0)
(2.7532744e-08 0 0)
(4.1544595e-08 0 0)
(6.2505014e-08 0 0)
(9.3586374e-08 0 0)
(1.3956788e-07 0 0)
(2.0726666e-07 0 0)
(3.0657036e-07 0 0)
(4.514647e-07 0 0)
(6.6201677e-07 0 0)
(9.6645589e-07 0 0)
(1.404633e-06 0 0)
(2.0322596e-06 0 0)
(2.9267327e-06 0 0)
(4.1950976e-06 0 0)
(5.9845039e-06 0 0)
(8.4956607e-06 0 0)
(1.2000915e-05 0 0)
(1.6867061e-05 0 0)
(2.3584868e-05 0 0)
(3.2806023e-05 0 0)
(4.5389853e-05 0 0)
(6.2460558e-05 0 0)
(8.5477424e-05 0 0)
(0.00011631903 0 0)
(0.00015738333 0 0)
(0.00021170433 0 0)
(0.00028308571 0 0)
(0.00037625082 0 0)
(0.0004970073 0 0)
(0.00065242269 0 0)
(0.00085100611 0 0)
(0.0011028885 0 0)
(0.0014199927 0 0)
(0.0018161814 0 0)
(0.0023073723 0 0)
(0.0029116041 0 0)
(0.0036490436 0 0)
(0.0045419201 0 0)
(0.0056143776 0 0)
(0.006892241 0 0)
(0.008402695 0 0)
(0.010173881 0 0)
(0.012234422 0 0)
(0.014612899 0 0)
(0.01733729 0 0)
(0.020434401 0 0)
(0.023929327 0 0)
(0.02784494 0 0)
(0.032201457 0 0)
(0.037016089 0 0)
(0.042302783 0 0)
(0.048072068 0 0)
(0.054331011 0 0)
(0.061083261 0 0)
(0.068329185 0 0)
(0.076066073 0 0)
(0.084288409 0 0)
(0.092988177 0 0)
(0.1021552 0 0)
(0.11177747 0 0)
(0.12184149 0 0)
(0.13233259 0 0)
(0.14323521 0 0)
(0.15453317 0 0)
(0.16620991 0 0)
(0.17824865 0 0)
(0.19063261 0 0)
(0.20334506 0 0)
(0.2163695 0 0)
(0.2296897 0 0)
(0.24328972 0 0)
(0.25715402 0 0)
(0.2712674 0 0)
(0.28561507 0 0)
(0.30018259 0 0)
(0.31495591 0 0)
(0.32992133 0 0)
(0.34506548 0 0)
(0.3603753 0 0)
(0.375838 0 0)
(0.3914411 0 0)
(0.40717213 0 0)
(0.4230194 0 0)
(0.43896982 0 0)
(0.45501421 0 0)
(0.47113486 0 0)
(0.4873319 0 0)
(0.50357227 0 0)
(0.51987778 0 0)
(0.53619167 0 0)
(0.5525512 0 0)
(0.5689068 0 0)
(0.58525392 0 0)
(0.60160103 0 0)
(0.61779641 0 0)
(0.63413551 0 0)
(0.65016445 0 0)
(0.66619552 0 0)
(0.68225806 0 0)
(0.69799328 0 0)
(0.71375844 0 0)
(0.72928401 0 0)
(0.74455862 0 0)
(0.75957844 0 0)
(0.77430735 0 0)
(0.78869244 0 0)
(0.80268067 0 0)
(0.81621616 0 0)
(0.82923576 0 0)
(0.8416692 0 0)
(0.85344291 0 0)
(0.86448078 0 0)
(0.87470803 0 0)
(0.88405536 0 0)
(0.89246229 0 0)
(0.89988517 0 0)
(0.90630127 0 0)
(0.91171478 0 0)
(0.91615984 0 0)
(0.91969957 0 0)
(0.92242432 0 0)
(0.92444337 0 0)
(0.92587674 0 0)
(0.92684296 0 0)
(0.92745412 0 0)
(0.92782561 0 0)
(0.92802252 0 0)
(0.92811425 0 0)
(0.9281585 0 0)
(0.92816328 0 0)
(0.92816545 0 0)
(0.92816307 0 0)
(0.92816502 0 0)
(0.92818194 0 0)
(0.92815893 0 0)
(0.9281607 0 0)
(0.92815869 0 0)
(0.92810612 0 0)
(0.9280293 0 0)
(0.92786603 0 0)
(0.92772071 0 0)
(0.92759569 0 0)
(0.92750333 0 0)
(0.92744056 0 0)
(0.92739308 0 0)
(0.9273387 0 0)
(0.9272964 0 0)
(0.92725124 0 0)
(0.92720836 0 0)
(0.92716535 0 0)
(0.92711978 0 0)
(0.92707129 0 0)
(0.92701662 0 0)
(0.92696191 0 0)
(0.9269114 0 0)
(0.92685607 0 0)
(0.92680568 0 0)
(0.92676018 0 0)
(0.92672106 0 0)
(0.92668917 0 0)
(0.92666393 0 0)
(0.92664338 0 0)
(0.92662513 0 0)
(0.92660636 0 0)
(0.92658486 0 0)
(0.92655942 0 0)
(0.9265284 0 0)
(0.92648398 0 0)
(0.92644172 0 0)
(0.92639077 0 0)
(0.92633265 0 0)
(0.92626721 0 0)
(0.92619219 0 0)
(0.92610412 0 0)
(0.92599916 0 0)
(0.92587419 0 0)
(0.92572173 0 0)
(0.92553276 0 0)
(0.92528732 0 0)
(0.92497832 0 0)
(0.92458954 0 0)
(0.92407279 0 0)
(0.92342389 0 0)
(0.92260344 0 0)
(0.92152106 0 0)
(0.92011069 0 0)
(0.91828758 0 0)
(0.91593531 0 0)
(0.912907 0 0)
(0.90901753 0 0)
(0.90403394 0 0)
(0.89766357 0 0)
(0.88953943 0 0)
(0.87920244 0 0)
(0.86608017 0 0)
(0.84946242 0 0)
(0.82847483 0 0)
(0.80205457 0 0)
(0.76893725 0 0)
(0.72767491 0 0)
(0.67672531 0 0)
(0.6146875 0 0)
(0.54080567 0 0)
(0.45587145 0 0)
(0.36344748 0 0)
(0.27064208 0 0)
(0.18685695 0 0)
(0.1198993 0 0)
(0.072332727 0 0)
(0.041652429 0 0)
(0.023221406 0 0)
(0.0126803 0 0)
(0.006840038 0 0)
(0.0036647989 0 0)
(0.001956488 0 0)
(0.0010425018 0 0)
(0.00055491097 0 0)
(0.00029518674 0 0)
(0.00015695612 0 0)
(8.3425651e-05 0 0)
(4.4327121e-05 0 0)
(2.3544368e-05 0 0)
(1.2501003e-05 0 0)
(6.6349054e-06 0 0)
(3.520053e-06 0 0)
(1.8666805e-06 0 0)
(9.894735e-07 0 0)
(5.2426179e-07 0 0)
(2.7762248e-07 0 0)
(1.469564e-07 0 0)
(7.775949e-08 0 0)
(4.1085494e-08 0 0)
(2.1714456e-08 0 0)
(1.1437251e-08 0 0)
(6.04159e-09 0 0)
(3.2008101e-09 0 0)
(1.6781005e-09 0 0)
(8.887255e-10 0 0)
(4.8582871e-10 0 0)
(2.4159369e-10 0 0)
(1.2789217e-10 0 0)
(6.846179e-11 0 0)
(4.7701807e-11 0 0)
(1.4485792e-11 0 0)
(-7.2032152e-12 0 0)
(-4.2525353e-12 0 0)
(-3.5456108e-11 0 0)
(-3.4744633e-11 0 0)
(-2.390912e-11 0 0)
(-1.3167176e-11 0 0)
(-4.0980198e-11 0 0)
(-2.350066e-11 0 0)
(1.9360785e-12 0 0)
(7.2248592e-12 0 0)
(2.3953074e-11 0 0)
(8.7078577e-12 0 0)
(3.4169348e-11 0 0)
(1.3651334e-11 0 0)
(1.7161982e-11 0 0)
(-1.4282117e-11 0 0)
(-9.9179207e-12 0 0)
(-1.338306e-11 0 0)
(-1.0024142e-11 0 0)
(-1.5322358e-11 0 0)
(-1.8447632e-11 0 0)
(-2.2058064e-11 0 0)
(-2.6624825e-11 0 0)
(-4.3126056e-11 0 0)
(-1.0092515e-11 0 0)
(-2.6679878e-11 0 0)
(-4.069927e-11 0 0)
(-3.8100665e-11 0 0)
(-5.1161065e-11 0 0)
(-6.1769371e-11 0 0)
(-4.0901725e-11 0 0)
(-6.2013005e-11 0 0)
(-2.3934982e-11 0 0)
(-3.4310422e-11 0 0)
(-4.1313958e-11 0 0)
(-1.5499616e-11 0 0)
(2.5926114e-12 0 0)
(2.5381463e-11 0 0)
(1.4737083e-11 0 0)
(1.9975361e-11 0 0)
(4.4612495e-11 0 0)
(2.2938362e-11 0 0)
(-7.2013283e-13 0 0)
(1.1165722e-11 0 0)
(5.7393077e-12 0 0)
(1.6475036e-11 0 0)
(-1.6160034e-11 0 0)
(4.5271359e-12 0 0)
(-1.2686569e-11 0 0)
(1.4670598e-11 0 0)
(8.4471315e-12 0 0)
(1.1123433e-11 0 0)
(1.7156987e-11 0 0)
(1.1998958e-11 0 0)
(-1.9852268e-11 0 0)
(-2.241369e-11 0 0)
(9.0173106e-12 0 0)
(7.331414e-12 0 0)
(1.3041308e-11 0 0)
(2.0506915e-11 0 0)
(3.1413464e-11 0 0)
(4.1332716e-11 0 0)
(4.432513e-11 0 0)
(4.9730233e-11 0 0)
(4.2880869e-11 0 0)
(4.1254354e-11 0 0)
(5.3127666e-11 0 0)
(3.460145e-11 0 0)
(2.3028711e-11 0 0)
(7.6517443e-12 0 0)
(2.492683e-11 0 0)
(3.3058182e-11 0 0)
(4.6839269e-11 0 0)
(1.5666774e-11 0 0)
(3.6082784e-11 0 0)
(3.6544965e-11 0 0)
(2.2714153e-11 0 0)
(-2.7174803e-12 0 0)
(1.8261716e-11 0 0)
(-3.2097967e-11 0 0)
(2.6347338e-11 0 0)
(8.5582371e-12 0 0)
(-1.154943e-11 0 0)
(1.5386069e-12 0 0)
(-5.4409543e-13 0 0)
(3.9761588e-12 0 0)
(2.4041759e-11 0 0)
(1.9505743e-11 0 0)
(-2.1483778e-11 0 0)
(-8.9916709e-13 0 0)
(-4.0411794e-11 0 0)
(-1.8941669e-11 0 0)
(-8.8644711e-12 0 0)
(-1.303254e-11 0 0)
(-1.1227213e-11 0 0)
(-3.74963e-11 0 0)
(-1.4763278e-11 0 0)
(-3.7201165e-11 0 0)
(1.7702858e-11 0 0)
(-1.6800029e-11 0 0)
(1.0570014e-12 0 0)
(7.6064585e-12 0 0)
(3.8021859e-11 0 0)
(4.1402088e-11 0 0)
(-1.2295425e-11 0 0)
(1.5779877e-11 0 0)
(1.7378422e-12 0 0)
(1.1381384e-11 0 0)
(-1.8291019e-11 0 0)
(-7.3319689e-12 0 0)
(3.6539416e-13 0 0)
(1.4610438e-11 0 0)
(2.5940765e-11 0 0)
(1.798867e-11 0 0)
(1.8942446e-11 0 0)
(1.6187338e-11 0 0)
(-1.9493978e-12 0 0)
(2.6127014e-12 0 0)
(-1.6806466e-11 0 0)
(-9.5316595e-12 0 0)
(-3.1374172e-11 0 0)
(-2.7692926e-11 0 0)
(-2.0836235e-11 0 0)
(-3.2322399e-11 0 0)
(-4.6491634e-11 0 0)
(-4.5170132e-11 0 0)
(-3.1998183e-11 0 0)
(-2.5776271e-11 0 0)
(-2.9988182e-11 0 0)
(-5.7459119e-11 0 0)
(-3.4059131e-11 0 0)
(-2.8962149e-11 0 0)
(-2.9244852e-12 0 0)
(-1.7393295e-11 0 0)
(1.7647694e-11 0 0)
(-4.8701425e-11 0 0)
(-2.3530867e-14 0 0)
(-3.9438261e-11 0 0)
(-2.3285997e-11 0 0)
(-5.4812453e-11 0 0)
(-2.1644498e-11 0 0)
(-1.7678773e-11 0 0)
(-1.4655835e-11 0 0)
(-3.0314174e-11 0 0)
(-2.2000236e-12 0 0)
(-2.593355e-11 0 0)
(-6.4966237e-12 0 0)
(-1.7204493e-11 0 0)
(2.3596338e-12 0 0)
(-1.9998781e-11 0 0)
(-8.909535e-13 0 0)
(-4.5973067e-11 0 0)
(-3.0734401e-13 0 0)
(-2.8339469e-11 0 0)
(8.4241556e-12 0 0)
(-3.9043453e-11 0 0)
(-9.439978e-12 0 0)
(-3.9784009e-11 0 0)
(-4.7060592e-12 0 0)
(-2.5308762e-11 0 0)
(-1.3388277e-11 0 0)
(-4.5236951e-12 0 0)
(-2.3987483e-11 0 0)
(-9.7244571e-12 0 0)
(-2.640783e-11 0 0)
(-6.0977092e-12 0 0)
(-3.5120239e-11 0 0)
(-1.2274891e-12 0 0)
(-3.1092357e-11 0 0)
(-1.1952229e-11 0 0)
(-1.2123938e-11 0 0)
(-3.6409996e-11 0 0)
(-5.7277976e-11 0 0)
(-5.6245504e-11 0 0)
(-5.5955586e-11 0 0)
(-4.4172957e-11 0 0)
(-1.8683718e-12 0 0)
(-1.7759133e-12 0 0)
(2.3527188e-11 0 0)
(-1.4473027e-11 0 0)
(-4.9990849e-12 0 0)
(-1.6587585e-11 0 0)
(-2.7347288e-11 0 0)
(-1.3574415e-11 0 0)
(-3.1368511e-11 0 0)
(-3.4290443e-11 0 0)
(-7.6660626e-12 0 0)
(-7.5250995e-12 0 0)
(-2.4565209e-11 0 0)
(-6.7414778e-12 0 0)
(1.4736084e-11 0 0)
(1.8970639e-11 0 0)
(2.9899609e-11 0 0)
(1.7816517e-11 0 0)
(1.1836573e-11 0 0)
(4.4106138e-11 0 0)
(9.2624978e-13 0 0)
(2.1118939e-11 0 0)
(2.4299488e-11 0 0)
(1.2815878e-11 0 0)
(4.1242256e-12 0 0)
(1.1753216e-11 0 0)
(-4.8575668e-12 0 0)
(-1.3768212e-11 0 0)
(-1.3605827e-11 0 0)
(7.5282073e-12 0 0)
(-2.0289809e-11 0 0)
(-4.5430081e-12 0 0)
(-2.4977776e-11 0 0)
(-1.044792e-12 0 0)
(1.9232364e-11 0 0)
(2.1420844e-12 0 0)
(1.755124e-11 0 0)
(-1.2361244e-11 0 0)
(-1.6678045e-12 0 0)
(1.1696165e-11 0 0)
(1.9228257e-11 0 0)
(2.2128545e-11 0 0)
(1.5003581e-11 0 0)
(2.0492485e-11 0 0)
(2.640217e-11 0 0)
(2.2349869e-11 0 0)
(3.1688952e-11 0 0)
(3.2666815e-12 0 0)
(7.9053669e-12 0 0)
(3.5165525e-11 0 0)
(-4.7942999e-12 0 0)
(7.8728455e-12 0 0)
(8.5277135e-13 0 0)
(-1.0669909e-12 0 0)
(1.3704057e-11 0 0)
(-2.2168947e-11 0 0)
(-1.2539502e-11 0 0)
(-2.6417598e-11 0 0)
(7.2393995e-12 0 0)
(3.1954895e-11 0 0)
(3.0696106e-11 0 0)
(1.6948539e-11 0 0)
(1.9295076e-11 0 0)
(5.1681296e-12 0 0)
(1.0599205e-11 0 0)
(4.813169e-12 0 0)
(-1.7255106e-11 0 0)
(-1.1647771e-11 0 0)
(-6.4652123e-12 0 0)
(-1.6282906e-13 0 0)
(-3.6503231e-11 0 0)
(-2.1296086e-11 0 0)
(-4.7849097e-11 0 0)
(-1.4054578e-11 0 0)
(-4.6770008e-11 0 0)
(-2.6204155e-11 0 0)
(-2.2179159e-11 0 0)
(-3.0549593e-11 0 0)
(-1.0070538e-12 0 0)
(7.5477424e-12 0 0)
(1.104385e-11 0 0)
(-2.2199471e-11 0 0)
(-6.573099e-12 0 0)
(-1.0091516e-11 0 0)
(-1.5254429e-11 0 0)
(1.1541216e-11 0 0)
(8.293404e-12 0 0)
(1.1792619e-11 0 0)
(3.038188e-11 0 0)
(-4.5352385e-12 0 0)
(9.2532851e-12 0 0)
(-1.0709867e-11 0 0)
(-1.6265479e-11 0 0)
(-3.7474767e-11 0 0)
(-3.7308608e-12 0 0)
(-2.2942802e-11 0 0)
(1.4866503e-11 0 0)
(-2.4811617e-11 0 0)
(1.2082315e-11 0 0)
(4.7931899e-12 0 0)
(2.0443426e-11 0 0)
(3.2657935e-12 0 0)
(1.4436399e-11 0 0)
(-3.3631352e-14 0 0)
(-5.9353242e-12 0 0)
(6.8583551e-11 0 0)
(3.4295993e-11 0 0)
(4.8110045e-11 0 0)
(3.3921275e-11 0 0)
(2.8829843e-11 0 0)
(1.9189187e-11 0 0)
(-1.2540168e-12 0 0)
(-2.6794092e-13 0 0)
(1.6567051e-12 0 0)
(-4.7139397e-13 0 0)
(-5.5442902e-12 0 0)
(-6.0083586e-12 0 0)
(-3.6592471e-11 0 0)
(-3.7262767e-11 0 0)
(-7.7377651e-12 0 0)
(-1.2805445e-12 0 0)
(-3.1884636e-11 0 0)
(5.324188e-12 0 0)
(-3.0548705e-11 0 0)
(-1.0731289e-11 0 0)
(9.460845e-12 0 0)
(-1.0077198e-11 0 0)
(2.2623692e-11 0 0)
(9.275706e-12 0 0)
(3.2934312e-11 0 0)
(2.3275341e-11 0 0)
(2.7616894e-11 0 0)
(5.0347696e-11 0 0)
(2.8333808e-11 0 0)
(3.6596911e-11 0 0)
(1.3657883e-11 0 0)
(1.6619884e-11 0 0)
(1.3492723e-11 0 0)
(2.0268387e-11 0 0)
(1.7280746e-11 0 0)
(3.3620036e-11 0 0)
(2.5449059e-11 0 0)
(5.6325309e-12 0 0)
(6.55201e-12 0 0)
(1.6243835e-11 0 0)
(-1.1533669e-11 0 0)
(-1.197798e-11 0 0)
(4.6577765e-12 0 0)
(8.7348294e-12 0 0)
(-2.8624836e-11 0 0)
(-2.1688896e-11 0 0)
(-2.1278771e-11 0 0)
(-8.1434503e-12 0 0)
(2.0072593e-11 0 0)
(-6.3406763e-12 0 0)
(1.3662323e-11 0 0)
(6.6460224e-12 0 0)
(8.8651371e-12 0 0)
(4.1434388e-11 0 0)
(2.1906223e-11 0 0)
(4.7026849e-11 0 0)
(4.9295135e-11 0 0)
(2.8550692e-11 0 0)
(3.9803766e-11 0 0)
(3.5018235e-11 0 0)
(5.4132056e-11 0 0)
(4.8763249e-11 0 0)
(2.8449354e-11 0 0)
(2.4437344e-11 0 0)
(4.4361093e-11 0 0)
(4.1079094e-11 0 0)
(3.7689541e-11 0 0)
(3.7126133e-11 0 0)
(2.805499e-11 0 0)
(3.1226216e-11 0 0)
(1.28484e-11 0 0)
(2.0474393e-11 0 0)
(-2.3504212e-12 0 0)
(7.9295637e-12 0 0)
(-3.077469e-11 0 0)
(1.1208233e-11 0 0)
(1.7468993e-11 0 0)
(1.4573477e-11 0 0)
(3.2186541e-11 0 0)
(-1.9953496e-12 0 0)
(-7.0891128e-12 0 0)
(2.3175224e-11 0 0)
(2.5983054e-11 0 0)
(9.3522923e-12 0 0)
(2.0891289e-11 0 0)
(3.5886767e-11 0 0)
(-1.347119e-11 0 0)
(2.8485094e-11 0 0)
(1.0316037e-20 0 0)
)
;

boundaryField
{
    sides
    {
        type            zeroGradient;
    }
    emptywalls
    {
        type            empty;
    }
}


// ************************************************************************* //
