/*--------------------------------*- C++ -*----------------------------------*\
| =========                 |                                                 |
| \\      /  F ield         | OpenFOAM: The Open Source CFD Toolbox           |
|  \\    /   O peration     | Version:  2112                                  |
|   \\  /    A nd           | Website:  www.openfoam.com                      |
|    \\/     M anipulation  |                                                 |
\*---------------------------------------------------------------------------*/
FoamFile
{
    version     2.0;
    format      ascii;
    arch        "LSB;label=32;scalar=64";
    class       volScalarField;
    location    "25";
    object      T;
}
// * * * * * * * * * * * * * * * * * * * * * * * * * * * * * * * * * * * * * //

dimensions      [0 0 0 1 0 0 0];

internalField   nonuniform List<scalar> 
10000
(
0.998115
1.00295
0.998183
0.998932
0.999069
0.998978
0.998934
0.998181
1.00289
0.998147
0.990513
0.996986
0.992574
0.993871
0.994148
0.994073
0.993871
0.992555
0.996793
0.990642
0.991596
0.995992
0.993004
0.993805
0.994037
0.9941
0.993828
0.993034
0.995887
0.991626
0.994211
0.996989
0.995141
0.995409
0.995499
0.995591
0.995458
0.995215
0.997102
0.99416
0.995099
0.997033
0.996123
0.996251
0.996288
0.996339
0.996294
0.996169
0.997209
0.9951
0.995022
0.996388
0.996021
0.996173
0.996221
0.996252
0.996207
0.996049
0.996503
0.995028
0.9945
0.995479
0.995392
0.995593
0.995671
0.995689
0.995615
0.995411
0.995521
0.994486
0.993311
0.994079
0.994209
0.994474
0.994595
0.994602
0.994486
0.994221
0.994103
0.993311
0.991192
0.991895
0.992226
0.992584
0.992763
0.992765
0.992594
0.992239
0.991924
0.991207
0.987902
0.988654
0.989203
0.989688
0.989939
0.989942
0.989702
0.989222
0.988697
0.987936
0.983128
0.984013
0.984809
0.985482
0.985817
0.985838
0.985512
0.984844
0.984102
0.983156
0.976473
0.977578
0.978675
0.979597
0.980045
0.980091
0.97965
0.978739
0.977728
0.976499
0.967469
0.968893
0.970385
0.971592
0.972216
0.97226
0.971672
0.970496
0.969081
0.967601
0.955599
0.957427
0.959394
0.960964
0.961804
0.96186
0.961097
0.959592
0.957697
0.955892
0.940305
0.942672
0.945194
0.947192
0.948301
0.948352
0.947385
0.945522
0.94308
0.940858
0.921044
0.924067
0.927213
0.929734
0.93116
0.931217
0.930034
0.927754
0.924734
0.921973
0.897454
0.901054
0.904943
0.908094
0.909867
0.910037
0.908649
0.905845
0.902191
0.898893
0.869115
0.873276
0.878026
0.881841
0.884021
0.884365
0.882792
0.879495
0.87513
0.871388
0.835552
0.84047
0.846115
0.850649
0.853323
0.853863
0.852156
0.848465
0.843433
0.839157
0.796687
0.802493
0.809064
0.814382
0.817681
0.818475
0.816741
0.812764
0.807113
0.802406
0.752757
0.75934
0.766873
0.77309
0.777097
0.778334
0.77675
0.772594
0.766505
0.761494
0.703876
0.711215
0.71971
0.726918
0.731744
0.733666
0.732482
0.728382
0.72212
0.716891
0.650346
0.658531
0.667959
0.67619
0.682031
0.684887
0.68446
0.680833
0.674665
0.669491
0.592842
0.601823
0.612136
0.621438
0.628492
0.632627
0.633437
0.630818
0.62515
0.620389
0.532144
0.541809
0.552907
0.563283
0.571729
0.577545
0.580192
0.579295
0.57469
0.570745
0.469183
0.479352
0.491044
0.502397
0.512345
0.520231
0.52541
0.527189
0.524452
0.521759
0.405058
0.415445
0.42741
0.43948
0.450869
0.461075
0.469457
0.475076
0.475312
0.474111
0.341073
0.351264
0.363
0.375293
0.387758
0.400215
0.412266
0.423196
0.428894
0.429748
0.278726
0.288178
0.29901
0.310748
0.323481
0.337471
0.352788
0.369724
0.384001
0.388664
0.219705
0.227818
0.236958
0.247153
0.258939
0.273067
0.290481
0.313831
0.349927
0.379044
1.00287
1.00829
1.00331
1.00422
1.00441
1.0044
1.00422
1.00335
1.0082
1.00288
0.996721
1.00547
1.00102
1.00245
1.00284
1.00289
1.00245
1.00114
1.00541
0.996766
0.995992
1.00276
1.00022
1.00085
1.00109
1.00106
1.00083
1.00029
1.00287
0.995905
0.997115
1.00113
0.999713
0.99975
0.999783
0.999687
0.999701
0.999638
1.00107
0.997169
0.997204
0.999443
0.998655
0.998584
0.99856
0.998497
0.998545
0.998565
0.999315
0.997287
0.996498
0.997886
0.997579
0.997546
0.997521
0.997493
0.997528
0.99753
0.997866
0.996564
0.995486
0.996421
0.996435
0.996475
0.99648
0.996471
0.996471
0.996419
0.996505
0.995561
0.994058
0.994783
0.994951
0.995079
0.995135
0.995133
0.995083
0.994955
0.994865
0.994129
0.991877
0.992539
0.992843
0.993081
0.993202
0.993203
0.993091
0.992863
0.992606
0.991944
0.988641
0.989338
0.989813
0.990187
0.99039
0.990392
0.990205
0.989846
0.989402
0.988716
0.984018
0.984828
0.985557
0.986079
0.986407
0.986387
0.986104
0.985604
0.984919
0.984138
0.977605
0.978603
0.979653
0.980358
0.980848
0.980793
0.980399
0.979728
0.978739
0.977789
0.968914
0.970174
0.971548
0.972554
0.973176
0.973156
0.972629
0.971668
0.970356
0.969148
0.957431
0.959041
0.960813
0.962185
0.962968
0.962991
0.962305
0.961004
0.959299
0.957771
0.942648
0.944679
0.946894
0.94871
0.949691
0.949805
0.948942
0.947209
0.945059
0.943156
0.923992
0.926566
0.929304
0.931615
0.932836
0.933083
0.932023
0.929822
0.92716
0.924832
0.900926
0.904179
0.907603
0.910396
0.911965
0.912215
0.910951
0.908424
0.905138
0.902343
0.873147
0.87697
0.881195
0.884602
0.886606
0.886857
0.885409
0.882507
0.878614
0.875328
0.840371
0.844793
0.849838
0.853961
0.856452
0.856861
0.855291
0.851941
0.847489
0.843729
0.802353
0.807535
0.813335
0.818255
0.821228
0.821997
0.820402
0.816651
0.81172
0.807545
0.759027
0.764984
0.771641
0.777364
0.780979
0.782189
0.780716
0.776794
0.771438
0.767032
0.710673
0.717429
0.725016
0.73155
0.736008
0.737776
0.736672
0.732887
0.727257
0.722818
0.657768
0.66533
0.673775
0.681231
0.686647
0.689289
0.688892
0.685538
0.679979
0.675706
0.600804
0.609149
0.61839
0.626831
0.633376
0.637237
0.637999
0.635556
0.630479
0.626697
0.540491
0.549543
0.559486
0.568917
0.576771
0.582234
0.584728
0.583875
0.579821
0.576932
0.477721
0.487322
0.49779
0.508129
0.517409
0.524853
0.529757
0.531404
0.529158
0.527618
0.413535
0.423429
0.43412
0.44513
0.455787
0.465462
0.473446
0.478729
0.479335
0.479401
0.349169
0.358956
0.369409
0.38062
0.392311
0.404154
0.415667
0.426027
0.432093
0.434459
0.286051
0.295194
0.304776
0.315447
0.327392
0.340709
0.355335
0.371759
0.385505
0.392476
0.225827
0.233704
0.241675
0.250849
0.261849
0.275254
0.291823
0.314975
0.351715
0.379015
0.998195
1.00336
0.998065
0.998857
0.999043
0.99906
0.998835
0.998063
1.00336
0.99818
0.992571
1.00109
0.996171
0.997492
0.997937
0.99801
0.997522
0.996296
1.00117
0.992543
0.993021
1.00024
0.997322
0.997829
0.998153
0.998187
0.997888
0.997467
1.00028
0.993041
0.995152
0.99969
0.998371
0.998388
0.998506
0.998507
0.998419
0.998398
0.999582
0.995266
0.996125
0.998617
0.998188
0.998188
0.99822
0.998215
0.998198
0.998168
0.99851
0.996241
0.996026
0.997552
0.997553
0.997607
0.997616
0.99761
0.997607
0.99752
0.997496
0.99612
0.995403
0.996424
0.996612
0.996725
0.996755
0.996749
0.996721
0.99658
0.996404
0.995467
0.994221
0.99495
0.995226
0.995406
0.995477
0.995474
0.995401
0.995207
0.99495
0.994263
0.992234
0.992845
0.993208
0.993468
0.993592
0.993592
0.993469
0.993206
0.992861
0.992277
0.989201
0.989812
0.990296
0.990661
0.990852
0.990855
0.990672
0.990312
0.989847
0.989256
0.984823
0.985515
0.986169
0.98667
0.986948
0.986953
0.986695
0.986205
0.985573
0.984899
0.978711
0.979556
0.980436
0.981115
0.981504
0.981512
0.981159
0.9805
0.979649
0.978831
0.970404
0.971474
0.972641
0.973555
0.974076
0.974093
0.973627
0.972748
0.971621
0.970596
0.959392
0.960767
0.962289
0.963495
0.964177
0.964209
0.963606
0.962463
0.960999
0.959712
0.945145
0.946896
0.948836
0.950402
0.951278
0.95134
0.95058
0.949119
0.947266
0.94566
0.927128
0.929329
0.931753
0.933739
0.934856
0.934969
0.934035
0.932217
0.929916
0.927948
0.904838
0.907545
0.910536
0.912993
0.914411
0.914591
0.913484
0.911292
0.908493
0.906133
0.877835
0.881094
0.884735
0.887725
0.8895
0.889778
0.88852
0.885952
0.882632
0.879873
0.845804
0.849682
0.854022
0.857611
0.859798
0.860234
0.858873
0.855955
0.852134
0.848993
0.808576
0.813125
0.818193
0.822452
0.825122
0.825813
0.824432
0.821231
0.816962
0.813498
0.766126
0.771382
0.777212
0.782196
0.785457
0.78653
0.785271
0.781923
0.7773
0.773626
0.718624
0.724615
0.731222
0.736985
0.740968
0.742603
0.741681
0.738407
0.733596
0.72988
0.666419
0.673157
0.680535
0.687137
0.691992
0.694435
0.694161
0.691279
0.68654
0.683011
0.610021
0.617509
0.625623
0.633115
0.639012
0.642575
0.643368
0.641335
0.637041
0.634002
0.550124
0.558318
0.567083
0.575477
0.582586
0.587632
0.590028
0.589476
0.586147
0.583977
0.487567
0.496344
0.505602
0.51483
0.523261
0.530149
0.534786
0.536577
0.534982
0.53414
0.423334
0.432466
0.441939
0.451784
0.461495
0.470465
0.477977
0.483198
0.484413
0.485197
0.35858
0.367693
0.376949
0.386977
0.397645
0.40863
0.419439
0.429477
0.43614
0.439582
0.294647
0.303227
0.311663
0.321171
0.332056
0.344381
0.358091
0.373879
0.388164
0.396773
0.233103
0.240541
0.247447
0.25552
0.26547
0.277803
0.293267
0.315361
0.352788
0.38298
0.998945
1.00424
0.998844
0.999659
0.999865
0.999867
0.999639
0.998825
1.00424
0.998925
0.993883
1.00247
0.997467
0.998739
0.999183
0.99921
0.998743
0.997529
1.0025
0.99382
0.993837
1.00084
0.997827
0.998203
0.998498
0.998522
0.998233
0.997927
1.00083
0.993825
0.995421
0.999742
0.998402
0.998309
0.998397
0.998409
0.998338
0.998438
0.999634
0.995534
0.996259
0.998577
0.998196
0.998144
0.998152
0.998155
0.998159
0.998194
0.998479
0.996393
0.996188
0.997536
0.997607
0.997663
0.997662
0.997662
0.997671
0.997593
0.997483
0.9963
0.995601
0.996466
0.996723
0.996863
0.996894
0.996894
0.996867
0.996707
0.996447
0.995688
0.994472
0.995073
0.995402
0.995609
0.995685
0.995685
0.995611
0.995394
0.995076
0.994541
0.992577
0.993078
0.993465
0.993738
0.993863
0.993865
0.993743
0.993468
0.993094
0.992642
0.989678
0.990187
0.990663
0.991019
0.991201
0.991206
0.99103
0.990679
0.990217
0.989752
0.985481
0.986066
0.986678
0.987147
0.987402
0.987407
0.987168
0.986711
0.986121
0.985572
0.979603
0.980328
0.981126
0.981747
0.982093
0.982102
0.981785
0.981186
0.980419
0.979731
0.971589
0.972521
0.97356
0.97438
0.974841
0.97486
0.974445
0.973661
0.972662
0.971787
0.960938
0.962144
0.963485
0.964557
0.965163
0.965198
0.964664
0.963652
0.962366
0.961253
0.947119
0.948666
0.950372
0.951753
0.952537
0.952597
0.951928
0.950644
0.949015
0.947616
0.929599
0.931546
0.933687
0.935433
0.936434
0.936536
0.935717
0.934126
0.932104
0.930378
0.907867
0.910269
0.912919
0.915084
0.916347
0.91651
0.915541
0.913621
0.911166
0.909088
0.881483
0.884391
0.88761
0.890254
0.891832
0.892087
0.890985
0.888731
0.88582
0.883381
0.850112
0.853581
0.857417
0.860596
0.862548
0.862952
0.861757
0.859191
0.855833
0.853048
0.813553
0.817635
0.822124
0.825899
0.828293
0.828929
0.827721
0.824905
0.821141
0.818062
0.771761
0.776502
0.781675
0.786103
0.789034
0.790022
0.788928
0.785982
0.781894
0.77862
0.724885
0.730327
0.7362
0.741336
0.744922
0.746428
0.745644
0.742763
0.7385
0.73518
0.673262
0.679414
0.685992
0.691892
0.696274
0.698525
0.698338
0.695816
0.691612
0.688457
0.617375
0.624237
0.631495
0.638204
0.643547
0.646836
0.647636
0.645898
0.6421
0.639402
0.557869
0.565421
0.573271
0.580807
0.587269
0.591938
0.594231
0.593878
0.590988
0.589117
0.495543
0.503675
0.511974
0.520275
0.527964
0.534354
0.538748
0.54061
0.539388
0.538822
0.431323
0.439829
0.44832
0.457181
0.466058
0.474399
0.481499
0.486638
0.48821
0.489319
0.366296
0.374824
0.383097
0.392112
0.401873
0.412102
0.422326
0.432124
0.439088
0.443043
0.301723
0.309775
0.31726
0.325763
0.335704
0.347161
0.3601
0.375348
0.389958
0.399507
0.23909
0.246078
0.252101
0.259228
0.268255
0.279666
0.294215
0.315571
0.353324
0.384948
0.998937
1.00448
0.999059
0.999818
1.00003
1.00003
0.999804
0.999047
1.00449
0.998922
0.994
1.00295
0.998001
0.999194
0.999616
0.999627
0.999198
0.998054
1.003
0.993957
0.994179
1.00091
0.998149
0.998518
0.998807
0.998822
0.998543
0.998241
1.00092
0.994175
0.995612
0.999636
0.998484
0.998373
0.998453
0.998466
0.9984
0.998526
0.999557
0.995716
0.996337
0.998493
0.998201
0.998132
0.998126
0.998132
0.998146
0.998203
0.998411
0.99647
0.996246
0.997493
0.997602
0.997652
0.99764
0.997644
0.997662
0.997591
0.997444
0.996368
0.995679
0.996467
0.996744
0.996889
0.996915
0.996917
0.996896
0.996733
0.996448
0.995777
0.994587
0.995129
0.995467
0.995682
0.995755
0.995757
0.995687
0.995466
0.99513
0.994668
0.992745
0.993206
0.993584
0.993861
0.993983
0.993985
0.993868
0.993592
0.993212
0.992823
0.989924
0.990391
0.99085
0.9912
0.991376
0.991381
0.991212
0.990867
0.990414
0.990003
0.985827
0.986359
0.98695
0.987398
0.987639
0.987646
0.987418
0.98698
0.986414
0.98592
0.980072
0.980741
0.9815
0.982085
0.982409
0.98242
0.982121
0.981554
0.98083
0.980204
0.972215
0.97308
0.974059
0.974828
0.975258
0.975279
0.974891
0.974156
0.973221
0.972414
0.961757
0.962883
0.964135
0.96514
0.965706
0.965741
0.965245
0.964302
0.963103
0.96207
0.948167
0.949627
0.951208
0.952499
0.953233
0.953291
0.95267
0.951479
0.949964
0.948659
0.930916
0.932762
0.934746
0.936372
0.937307
0.937403
0.936646
0.935172
0.933293
0.93168
0.909494
0.91176
0.914232
0.916242
0.917421
0.917575
0.916679
0.914901
0.912619
0.910673
0.883449
0.886187
0.8892
0.891654
0.893127
0.89337
0.89235
0.890261
0.887553
0.885265
0.852431
0.855707
0.859296
0.862253
0.864075
0.86446
0.863356
0.860974
0.857844
0.855229
0.816237
0.820101
0.824299
0.827817
0.830058
0.830662
0.829546
0.82693
0.823413
0.820516
0.774803
0.779332
0.784153
0.788284
0.791031
0.791968
0.79096
0.788221
0.784394
0.781305
0.728268
0.733519
0.738974
0.743768
0.747132
0.748561
0.747847
0.745167
0.741168
0.738031
0.676993
0.68288
0.689034
0.694551
0.698667
0.700806
0.70066
0.698317
0.694364
0.691385
0.621405
0.627948
0.634769
0.641052
0.646081
0.649209
0.650004
0.648408
0.644835
0.642299
0.562117
0.569372
0.576727
0.58379
0.589886
0.594333
0.596559
0.596295
0.593594
0.59187
0.499934
0.507759
0.515538
0.523324
0.530589
0.536689
0.540937
0.542821
0.541753
0.541327
0.435738
0.443935
0.451892
0.460202
0.468601
0.47658
0.483444
0.488528
0.490232
0.491501
0.370582
0.3788
0.386539
0.394984
0.404225
0.41402
0.423912
0.433568
0.440659
0.444852
0.305669
0.313426
0.320393
0.328328
0.33773
0.3487
0.361224
0.376222
0.390928
0.400878
0.242429
0.249169
0.254703
0.261295
0.269798
0.280703
0.294773
0.315719
0.353511
0.385515
0.999078
1.00441
0.999033
0.999855
1.00007
1.00007
0.999841
0.99902
1.00442
0.99906
0.994147
1.00284
0.997916
0.99917
0.999613
0.99962
0.999172
0.99797
1.0029
0.994083
0.994023
1.00111
0.998165
0.998501
0.998788
0.9988
0.998523
0.998253
1.00112
0.994005
0.99549
0.999813
0.998524
0.998405
0.998482
0.998493
0.998428
0.99856
0.999726
0.995595
0.996291
0.998572
0.998224
0.998154
0.998146
0.998152
0.998166
0.998224
0.998487
0.996428
0.996227
0.997526
0.997614
0.997662
0.997648
0.997653
0.99767
0.997601
0.997472
0.996355
0.99567
0.996484
0.99675
0.996894
0.996918
0.99692
0.996899
0.996737
0.996457
0.995775
0.994566
0.995168
0.995471
0.995684
0.995757
0.995759
0.995688
0.995466
0.995132
0.99467
0.992709
0.993284
0.993592
0.993864
0.993986
0.993987
0.993869
0.993593
0.993214
0.992825
0.989923
0.990415
0.990857
0.991204
0.991379
0.991383
0.991214
0.990869
0.990417
0.990008
0.985855
0.986313
0.986952
0.987401
0.987642
0.98765
0.987422
0.986982
0.98642
0.985926
0.980089
0.980706
0.981501
0.982089
0.982413
0.982426
0.982127
0.98156
0.980838
0.980211
0.972228
0.973069
0.974061
0.974835
0.975265
0.975287
0.9749
0.974166
0.973232
0.972426
0.961756
0.962917
0.964145
0.965151
0.965717
0.965754
0.965258
0.964317
0.963119
0.962086
0.948135
0.949735
0.951232
0.952518
0.95325
0.953308
0.952688
0.9515
0.949987
0.948682
0.93089
0.932866
0.934777
0.936397
0.937332
0.937426
0.936671
0.9352
0.933323
0.931712
0.90952
0.911758
0.91426
0.916271
0.917452
0.917606
0.916713
0.914937
0.912657
0.910714
0.883505
0.886132
0.889226
0.891688
0.893165
0.893411
0.892395
0.890308
0.887603
0.885317
0.852484
0.855687
0.859327
0.862295
0.864122
0.864511
0.86341
0.861032
0.857904
0.855291
0.816284
0.820123
0.824342
0.827869
0.830115
0.830723
0.82961
0.826999
0.823484
0.82059
0.774863
0.779364
0.784212
0.788348
0.791099
0.79204
0.791036
0.788302
0.784478
0.781393
0.728357
0.733538
0.739045
0.743844
0.747213
0.748645
0.747936
0.74526
0.741265
0.73813
0.677082
0.682945
0.689121
0.69464
0.698761
0.700902
0.700758
0.698419
0.694471
0.691492
0.621498
0.628057
0.634869
0.641154
0.646185
0.649315
0.650112
0.64852
0.64495
0.642414
0.562235
0.56947
0.576839
0.583904
0.59
0.594448
0.596674
0.596413
0.593715
0.591991
0.500063
0.507876
0.515662
0.523446
0.530711
0.536811
0.541059
0.542944
0.541881
0.541458
0.435878
0.444072
0.452026
0.460334
0.468732
0.476708
0.483571
0.488653
0.490354
0.491622
0.370726
0.378957
0.386685
0.395124
0.404363
0.414152
0.424032
0.433669
0.440794
0.445065
0.305813
0.313597
0.320548
0.328479
0.33788
0.348848
0.361374
0.37641
0.391054
0.400821
0.242577
0.249335
0.254864
0.261455
0.269959
0.280863
0.294934
0.315867
0.353739
0.38605
0.998919
1.00424
0.99885
0.999643
0.999844
0.999841
0.999626
0.998832
1.00424
0.9989
0.993833
1.00248
0.997505
0.998742
0.999178
0.999181
0.998739
0.997547
1.00254
0.993767
0.993793
1.00086
0.997868
0.998222
0.998511
0.998521
0.99824
0.997949
1.00087
0.993768
0.995443
0.999727
0.998405
0.998324
0.998412
0.998423
0.998344
0.998437
0.999632
0.995543
0.996286
0.998558
0.998186
0.998148
0.998156
0.998161
0.998158
0.998185
0.998466
0.996421
0.996198
0.997533
0.9976
0.997665
0.997665
0.997669
0.997672
0.997587
0.997476
0.996322
0.995601
0.996473
0.996716
0.996864
0.996897
0.996899
0.996868
0.996701
0.996444
0.995705
0.994461
0.995087
0.995394
0.995609
0.995686
0.995688
0.995612
0.995388
0.995075
0.994552
0.992567
0.9931
0.993461
0.993739
0.993866
0.993868
0.993745
0.993467
0.993099
0.992651
0.989679
0.990205
0.990669
0.991026
0.991209
0.991212
0.991037
0.990683
0.990228
0.989765
0.985491
0.986077
0.986691
0.987159
0.987412
0.987418
0.98718
0.986721
0.986137
0.985593
0.979621
0.980342
0.981144
0.981765
0.982107
0.982121
0.981804
0.981205
0.980442
0.97976
0.971613
0.972539
0.973582
0.974405
0.974864
0.974889
0.974475
0.973691
0.972697
0.971825
0.960959
0.962174
0.963511
0.964591
0.965198
0.965237
0.964706
0.963695
0.962414
0.961304
0.947139
0.948721
0.950411
0.951801
0.952589
0.952651
0.951985
0.950707
0.949083
0.947686
0.929633
0.931617
0.933747
0.935498
0.936505
0.936607
0.935794
0.934211
0.932194
0.930472
0.907932
0.910343
0.913003
0.91517
0.91644
0.916604
0.915642
0.91373
0.911281
0.909209
0.881582
0.884476
0.887719
0.890365
0.89195
0.892211
0.891116
0.88887
0.885969
0.883536
0.850214
0.853715
0.857549
0.860735
0.862694
0.863106
0.86192
0.859364
0.856015
0.853235
0.81365
0.817836
0.822284
0.826067
0.828471
0.829115
0.827915
0.825112
0.821355
0.818279
0.771906
0.776693
0.781869
0.786304
0.789246
0.790241
0.789157
0.786225
0.782145
0.778873
0.725093
0.730492
0.736427
0.741571
0.745167
0.746681
0.745908
0.74304
0.738788
0.735468
0.673508
0.679621
0.686252
0.692162
0.696553
0.698813
0.698635
0.696123
0.691931
0.688777
0.617655
0.6245
0.631787
0.638508
0.643858
0.647154
0.64796
0.646232
0.642443
0.63975
0.558186
0.565727
0.573597
0.581142
0.587609
0.592281
0.594577
0.594233
0.591349
0.589484
0.495895
0.504022
0.512332
0.520638
0.528328
0.534716
0.539109
0.540977
0.539764
0.539202
0.431706
0.44021
0.448705
0.457569
0.466443
0.474778
0.481871
0.48701
0.488587
0.489698
0.366703
0.375234
0.383508
0.392523
0.40228
0.412494
0.422694
0.432491
0.439464
0.443431
0.302144
0.310207
0.317693
0.326198
0.336135
0.347577
0.360485
0.375729
0.390314
0.399834
0.239514
0.24652
0.25255
0.259684
0.268712
0.280114
0.294634
0.315953
0.353702
0.385279
0.998186
1.00335
0.998071
0.998846
0.99904
0.999038
0.998833
0.998058
1.00336
0.998166
0.992548
1.00112
0.996278
0.997523
0.997958
0.997968
0.997539
0.99635
1.00122
0.992495
0.993014
1.00029
0.997446
0.997904
0.998219
0.998234
0.997942
0.997562
1.00035
0.993001
0.99519
0.999658
0.998382
0.998413
0.99853
0.998539
0.998431
0.998415
0.999555
0.995283
0.996141
0.998571
0.998155
0.998176
0.998208
0.998211
0.99818
0.998147
0.998458
0.996267
0.996026
0.997527
0.997511
0.997585
0.997597
0.997598
0.997584
0.997486
0.997451
0.996138
0.995395
0.996422
0.996573
0.996705
0.996738
0.996737
0.996701
0.996545
0.996372
0.995479
0.994194
0.994952
0.9952
0.995392
0.995466
0.995466
0.995389
0.995182
0.994933
0.994271
0.992209
0.992858
0.9932
0.993464
0.993591
0.993591
0.993466
0.993195
0.99286
0.992284
0.989198
0.98984
0.990306
0.990672
0.990863
0.990866
0.990682
0.990317
0.989862
0.989276
0.984836
0.985542
0.986191
0.986696
0.986969
0.986977
0.986719
0.986226
0.985604
0.984939
0.978738
0.979586
0.980471
0.981156
0.981534
0.981549
0.981199
0.980536
0.979695
0.978887
0.97044
0.971511
0.972686
0.973607
0.97412
0.974145
0.973683
0.972803
0.971684
0.970672
0.959439
0.960818
0.962337
0.963556
0.964237
0.96428
0.963681
0.962537
0.961082
0.959806
0.945208
0.946981
0.948904
0.950478
0.951366
0.951435
0.95068
0.949227
0.947376
0.945784
0.927205
0.929432
0.931855
0.933842
0.934977
0.935088
0.934164
0.932363
0.930063
0.928107
0.904936
0.907657
0.910677
0.913137
0.914567
0.914745
0.913651
0.911477
0.908686
0.906335
0.877979
0.881239
0.884918
0.887917
0.8897
0.889984
0.88874
0.886186
0.882883
0.88013
0.84599
0.849877
0.854238
0.857846
0.860046
0.860496
0.859147
0.856243
0.852437
0.849302
0.808792
0.813375
0.818451
0.822727
0.825421
0.826124
0.824757
0.821576
0.817317
0.813858
0.766379
0.771672
0.777524
0.78252
0.785806
0.786892
0.785648
0.782323
0.777711
0.774039
0.718929
0.724941
0.73159
0.737367
0.741368
0.743019
0.742113
0.738858
0.734063
0.730342
0.666781
0.673536
0.680959
0.68758
0.69245
0.694908
0.694647
0.691781
0.687058
0.683522
0.610444
0.617945
0.6261
0.633614
0.639524
0.6431
0.643903
0.641884
0.637601
0.634565
0.550604
0.558809
0.567608
0.576024
0.583143
0.588197
0.5906
0.59006
0.586739
0.584579
0.488097
0.496887
0.50617
0.515415
0.523854
0.530744
0.535383
0.537182
0.535599
0.534778
0.423906
0.433052
0.442544
0.452402
0.462116
0.471083
0.47859
0.483815
0.48504
0.485861
0.359181
0.368314
0.377586
0.387624
0.398291
0.409264
0.420052
0.430096
0.436786
0.440305
0.295267
0.303872
0.312326
0.321845
0.332731
0.345044
0.358734
0.37455
0.388812
0.397435
0.233726
0.241195
0.248124
0.256214
0.266173
0.278503
0.293933
0.316063
0.353571
0.383707
1.00288
1.00819
1.00334
1.00422
1.0044
1.0044
1.00423
1.00336
1.00822
1.00287
0.996771
1.00538
1.00112
1.00247
1.00287
1.00288
1.0025
1.00121
1.0055
0.996709
0.99586
1.00293
1.00027
1.00085
1.00113
1.00114
1.00086
1.00035
1.00294
0.995829
0.997047
1.0012
0.999594
0.999662
0.999757
0.999754
0.999639
0.999559
1.00095
0.997149
0.997196
0.999361
0.998508
0.998494
0.998509
0.998504
0.99847
0.998462
0.999198
0.997313
0.996529
0.997848
0.997488
0.997489
0.997485
0.997482
0.997477
0.997452
0.997807
0.996614
0.995506
0.996549
0.996402
0.996452
0.996465
0.996463
0.996445
0.996372
0.996487
0.99561
0.994114
0.994876
0.994946
0.995077
0.995134
0.995134
0.995076
0.994932
0.994868
0.994167
0.991972
0.992592
0.992858
0.993092
0.993211
0.993213
0.993098
0.992858
0.99262
0.991977
0.988659
0.989431
0.989844
0.990213
0.99041
0.990415
0.990226
0.989861
0.989429
0.988751
0.984009
0.984851
0.985556
0.986105
0.986403
0.986412
0.986134
0.985604
0.984943
0.984157
0.977637
0.978549
0.979612
0.980382
0.980805
0.980823
0.980435
0.979693
0.978752
0.977789
0.968962
0.970155
0.971545
0.972596
0.973177
0.973206
0.972684
0.971681
0.970396
0.969189
0.957498
0.959119
0.960856
0.962252
0.963026
0.963072
0.96239
0.961074
0.959381
0.957863
0.942695
0.944883
0.947018
0.948824
0.94983
0.949904
0.94904
0.947362
0.945196
0.9433
0.924019
0.926742
0.929486
0.931773
0.933061
0.933179
0.93212
0.930037
0.92734
0.925012
0.901062
0.904201
0.907759
0.910593
0.912217
0.912411
0.911157
0.908641
0.905369
0.902576
0.873385
0.877047
0.881406
0.884855
0.886877
0.887189
0.885761
0.882809
0.878942
0.875672
0.840602
0.845032
0.850109
0.854241
0.856729
0.857222
0.855671
0.852318
0.847869
0.84414
0.802575
0.80786
0.813686
0.818569
0.821604
0.822372
0.820794
0.817124
0.81215
0.808029
0.759339
0.76538
0.772114
0.777811
0.781502
0.782687
0.78124
0.777401
0.77202
0.767629
0.711113
0.717887
0.725563
0.732134
0.736613
0.738415
0.737335
0.733565
0.727968
0.723487
0.658278
0.66585
0.674373
0.681877
0.687307
0.689986
0.689608
0.686258
0.680726
0.676413
0.60137
0.609727
0.619036
0.627522
0.634085
0.637972
0.638748
0.636313
0.631246
0.627433
0.541111
0.550177
0.560177
0.569649
0.577522
0.583002
0.585507
0.584664
0.580606
0.577688
0.478386
0.488007
0.498522
0.508895
0.518192
0.525646
0.530556
0.532214
0.52996
0.528388
0.414241
0.424156
0.434889
0.445924
0.456596
0.466278
0.474257
0.479553
0.480139
0.480171
0.349905
0.359714
0.370205
0.381441
0.393145
0.404985
0.416479
0.426869
0.432922
0.435285
0.286807
0.295974
0.305592
0.316293
0.328252
0.341564
0.356186
0.372668
0.386269
0.393119
0.226582
0.234488
0.242498
0.251708
0.262727
0.276139
0.292682
0.315963
0.352567
0.379959
0.998158
1.00289
0.998194
0.998922
0.999062
0.999058
0.998909
0.998175
1.00287
0.998161
0.990683
0.996778
0.992548
0.993801
0.994071
0.994062
0.993772
0.992507
0.996715
0.990674
0.991588
0.995908
0.99301
0.993763
0.99395
0.993945
0.993748
0.992999
0.995829
0.991601
0.994063
0.997194
0.995225
0.995494
0.995551
0.99556
0.995516
0.995273
0.997146
0.994175
0.99505
0.997316
0.996206
0.996372
0.996395
0.996406
0.9964
0.996259
0.997309
0.995148
0.994998
0.996571
0.996092
0.99628
0.996322
0.996332
0.996306
0.996131
0.996611
0.995071
0.994432
0.995576
0.995446
0.995669
0.995748
0.995754
0.995692
0.99547
0.995606
0.994521
0.99326
0.994147
0.994241
0.994523
0.99465
0.994656
0.994541
0.994263
0.994163
0.993347
0.991119
0.991958
0.992249
0.992623
0.992808
0.992814
0.992638
0.992279
0.991973
0.991253
0.987874
0.988698
0.989232
0.989732
0.989986
0.989992
0.989749
0.989269
0.988745
0.987993
0.983223
0.98403
0.984879
0.985545
0.985893
0.985905
0.985575
0.984926
0.984148
0.983266
0.976594
0.977603
0.978792
0.97968
0.980157
0.980177
0.979734
0.978866
0.977777
0.976682
0.967573
0.968942
0.970504
0.971692
0.97234
0.972372
0.971785
0.970642
0.969171
0.967784
0.955652
0.957533
0.959515
0.961089
0.961948
0.961999
0.961242
0.959764
0.957837
0.956084
0.940313
0.942833
0.945312
0.947345
0.948459
0.948541
0.94759
0.945718
0.943262
0.941073
0.921208
0.924205
0.927371
0.929929
0.931346
0.931477
0.930318
0.928005
0.924956
0.922268
0.897751
0.901189
0.905192
0.908338
0.910117
0.910328
0.908962
0.906181
0.902492
0.899261
0.869374
0.873487
0.878338
0.882151
0.88436
0.884699
0.883144
0.879895
0.875546
0.871756
0.835811
0.840797
0.846487
0.851057
0.853772
0.854308
0.852621
0.848945
0.84395
0.839623
0.79701
0.802927
0.809488
0.814891
0.8182
0.819036
0.817323
0.813312
0.807743
0.802944
0.753154
0.759803
0.767354
0.773652
0.777669
0.778952
0.777387
0.773207
0.767197
0.762046
0.704337
0.711694
0.720271
0.727523
0.732388
0.734328
0.733164
0.729078
0.722837
0.717521
0.650875
0.659072
0.668594
0.676868
0.682749
0.685624
0.685216
0.681604
0.675437
0.670214
0.59344
0.602438
0.612834
0.622187
0.629277
0.633434
0.634259
0.63165
0.625978
0.621184
0.532805
0.542489
0.553659
0.564089
0.572568
0.578404
0.581062
0.580174
0.575562
0.571593
0.469895
0.480084
0.491844
0.503246
0.513224
0.521127
0.526315
0.528106
0.52536
0.522653
0.405814
0.416224
0.428249
0.440364
0.451777
0.461999
0.470387
0.476026
0.47625
0.475043
0.341859
0.352076
0.363868
0.376202
0.388691
0.401161
0.413213
0.424185
0.429895
0.43076
0.279528
0.289013
0.299898
0.311678
0.32444
0.338444
0.353765
0.37077
0.38504
0.389674
0.220503
0.228653
0.237849
0.248094
0.259917
0.274072
0.291496
0.314952
0.351181
0.380066
0.165789
0.172016
0.178746
0.186388
0.195689
0.207418
0.222556
0.241253
0.275342
0.31171
0.118677
0.122722
0.126694
0.131243
0.137137
0.145031
0.155929
0.170122
0.193668
0.233022
0.0797425
0.0817167
0.0831507
0.0848192
0.0873786
0.0913223
0.0972769
0.105785
0.118144
0.13911
0.0497156
0.0501145
0.049755
0.0494175
0.0495725
0.0504911
0.0523972
0.0554664
0.0598083
0.0664876
0.0284136
0.0279379
0.0267667
0.0255807
0.0246821
0.0241757
0.0241016
0.0244665
0.0252599
0.0267355
0.0147258
0.0140022
0.0128048
0.0116421
0.0106782
0.00993544
0.00939329
0.00901714
0.0087813
0.00875202
0.00685785
0.00625317
0.00539951
0.00461908
0.00398148
0.0034762
0.0030729
0.00273944
0.0024552
0.00224526
0.00285037
0.00247292
0.00199926
0.00159399
0.00127737
0.00103335
0.000840032
0.000679774
0.000542115
0.000439779
0.00105246
0.000865519
0.000652037
0.000481246
0.000355261
0.00026278
0.000192809
0.000137204
9.27913e-05
6.48405e-05
0.000345746
0.000269526
0.000189225
0.000128983
8.72589e-05
5.85019e-05
3.82266e-05
2.33147e-05
1.29503e-05
8.5722e-06
0.170307
0.176348
0.182016
0.188701
0.197226
0.208196
0.222481
0.239734
0.275062
0.312063
0.121336
0.125236
0.12827
0.13193
0.137043
0.144084
0.154011
0.166707
0.188968
0.230561
0.0805983
0.0824545
0.0831185
0.0840216
0.0858528
0.0889646
0.0939004
0.101046
0.111371
0.1316
0.0492006
0.0495112
0.0486261
0.047758
0.0473963
0.0477118
0.0488413
0.0508643
0.0536922
0.0587296
0.0272347
0.0267236
0.0253161
0.0239062
0.0227901
0.0220229
0.0216053
0.0214964
0.0216206
0.0222753
0.013561
0.0128466
0.0116259
0.0104528
0.00947537
0.0086974
0.0080859
0.00758499
0.00715831
0.00689809
0.00604083
0.00546922
0.00468324
0.00397281
0.00339256
0.00292878
0.00254716
0.00221084
0.00190935
0.00168827
0.00239599
0.00205742
0.00165409
0.00131328
0.0010471
0.000841391
0.000673797
0.000528731
0.000403908
0.000325151
0.000844997
0.000685413
0.00051485
0.000380169
0.000280694
0.000207389
0.000150357
0.000102914
6.77141e-05
5.06623e-05
0.000266005
0.000203769
0.000142854
9.77707e-05
6.64578e-05
4.46784e-05
2.89929e-05
1.67742e-05
9.41251e-06
7.32685e-06
0.175742
0.181468
0.186188
0.191869
0.199403
0.209309
0.222291
0.237838
0.272823
0.311646
0.124564
0.128254
0.130496
0.133289
0.137506
0.143536
0.152153
0.163333
0.183442
0.225288
0.0816074
0.0833443
0.0834299
0.0836687
0.0847726
0.0870087
0.0907933
0.0964148
0.104587
0.122469
0.0485
0.0487671
0.0475742
0.0463332
0.0455339
0.0452983
0.0456951
0.0467261
0.0481831
0.0515644
0.025744
0.0252506
0.0238061
0.0223218
0.021076
0.0201112
0.0194134