/*--------------------------------*- C++ -*----------------------------------*\
| =========                 |                                                 |
| \\      /  F ield         | OpenFOAM: The Open Source CFD Toolbox           |
|  \\    /   O peration     | Version:  2112                                  |
|   \\  /    A nd           | Website:  www.openfoam.com                      |
|    \\/     M anipulation  |                                                 |
\*---------------------------------------------------------------------------*/
FoamFile
{
    version     2.0;
    format      ascii;
    arch        "LSB;label=32;scalar=64";
    class       volScalarField;
    location    "5";
    object      p;
}
// * * * * * * * * * * * * * * * * * * * * * * * * * * * * * * * * * * * * * //

dimensions      [1 -1 -2 0 0 0 0];

internalField   nonuniform List<scalar> 
5250
(
1.00001
1.00003
1.00008
1.00025
1.00051
1.00147
1.00289
1.00895
1.01573
1.05813
1.09477
1.37607
1.77718
3.57664
7.95779
11.6426
11.245
11.0213
11.1098
11.3396
11.5486
11.6718
11.765
11.837
11.8882
1.00001
1.00003
1.00008
1.00024
1.00051
1.00145
1.00284
1.00879
1.01551
1.05701
1.09312
1.36873
1.76119
3.52312
7.82577
11.6642
11.2505
11.0145
11.1032
11.3332
11.5423
11.6663
11.7609
11.8342
11.8869
1
1.00003
1.00008
1.00024
1.00049
1.0014
1.00277
1.00847
1.01511
1.05464
1.08986
1.35315
1.72709
3.40746
7.5276
11.7085
11.2578
10.9898
11.0757
11.3022
11.5105
11.6339
11.7286
11.8024
11.8568
1
1.00003
1.00008
1.00023
1.00047
1.00133
1.00265
1.008
1.01453
1.05112
1.08509
1.33006
1.67642
3.23523
7.06687
11.7725
11.2708
10.9472
11.0266
11.2445
11.4524
11.5745
11.6678
11.7417
11.7997
1
1.00003
1.00007
1.00021
1.00044
1.00125
1.0025
1.0074
1.01379
1.04674
1.0791
1.30136
1.61323
3.02104
6.47432
11.8339
11.2886
10.8928
10.9609
11.163
11.3699
11.4897
11.5801
11.6531
11.7155
1
1.00003
1.00007
1.0002
1.00041
1.00115
1.00233
1.00674
1.01298
1.04187
1.07257
1.26961
1.54293
2.78404
5.77902
11.8025
11.2813
10.8269
10.8781
11.0527
11.2556
11.3704
11.4543
11.5234
11.5915
1
1.00003
1.00006
1.00018
1.00038
1.00106
1.00215
1.00616
1.01201
1.03776
1.06659
1.24231
1.4787
2.5955
5.26899
11.5536
11.1848
10.7434
10.7721
10.9056
11.0997
11.2061
11.2768
11.3336
11.4019
1
1.00002
1.00006
1.00017
1.00035
1.00098
1.00198
1.00566
1.01118
1.03416
1.06213
1.21901
1.42403
2.47815
4.78165
10.993
10.933
10.6794
10.6466
10.7253
10.8919
10.9825
11.028
11.0556
11.1061
1
1.00002
1.00005
1.00015
1.00031
1.00088
1.0018
1.00512
1.01021
1.03068
1.057
1.19636
1.37545
2.34115
4.32383
10.2312
10.747
10.5871
10.4842
10.5286
10.6388
10.6942
10.6897
10.6487
10.6096
1
1.00002
1.00004
1.00013
1.00027
1.00077
1.00156
1.00449
1.00883
1.02729
1.04904
1.1776
1.32262
2.20876
3.91419
9.33688
10.614
10.4814
10.2975
10.3067
10.3462
10.3368
10.2603
10.0571
9.71992
1
1.00001
1.00004
1.00009
1.00025
1.0005
1.00154
1.00269
1.00973
1.01568
1.06111
1.1
1.3997
1.8268
3.74371
8.25211
10.4962
10.3699
10.1074
10.0535
10.0293
9.94233
9.69811
9.11221
7.6093
1
1.00001
1.00003
1.0001
1.00021
1.00058
1.00118
1.0034
1.0066
1.02089
1.03656
1.13456
1.23561
1.90311
3.08345
7.12408
10.4088
10.2564
9.92458
9.79662
9.71413
9.53168
9.13572
8.33091
6.76384
1
1.00001
1.00003
1.00009
1.00018
1.00051
1.00105
1.00296
1.00597
1.01733
1.03395
1.10727
1.20437
1.70842
2.65808
5.86983
10.2654
10.1203
9.76804
9.55141
9.40631
9.14628
8.65266
7.82042
6.55133
1
1.00001
1.00003
1.00007
1.00015
1.00043
1.00088
1.00247
1.005
1.01434
1.02839
1.08634
1.17036
1.55453
2.29343
4.77348
9.86257
9.86617
9.6421
9.32931
9.11297
8.80559
8.29694
7.52977
6.50794
1
1.00001
1.00002
1.00006
1.00012
1.00035
1.00071
1.00199
1.00401
1.01158
1.02216
1.07183
1.12843
1.46022
2.01908
4.12196
8.90416
9.58122
9.4376
9.12758
8.85307
8.51887
8.03646
7.35096
6.49334
1
1.00001
1.00002
1.00005
1.0001
1.00027
1.00056
1.00157
1.00311
1.00932
1.01679
1.05899
1.09782
1.37752
1.7701
3.51798
7.4471
9.30945
9.22606
8.97834
8.64211
8.28608
7.82872
7.21914
6.47996
1
1.00001
1.00001
1.00004
1.00008
1.00022
1.00045
1.00126
1.00254
1.00731
1.01399
1.0453
1.07817
1.29025
1.58366
2.90176
5.9027
9.11441
9.08354
8.8807
8.48089
8.10397
7.66624
7.11478
6.46359
1
1
1.00001
1.00003
1.00006
1.00017
1.00035
1.00097
1.00197
1.00557
1.011
1.03327
1.06068
1.20862
1.40956
2.32719
4.2922
8.69845
8.9604
8.78441
8.38669
7.96272
7.5311
7.02733
6.44524
1
1
1.00001
1.00002
1.00005
1.00013
1.00026
1.00073
1.00148
1.00419
1.00825
1.02515
1.04519
1.16052
1.28814
2.05558
3.43713
7.59857
8.71182
8.60043
8.29585
7.84548
7.41517
6.94874
6.42665
1
1
1.00001
1.00001
1.00004
1.00008
1.00022
1.00045
1.00127
1.00246
1.00761
1.01322
1.04798
1.07859
1.30099
1.60402
2.9384
5.90923
8.45041
8.41645
8.20865
7.77077
7.32254
6.87848
6.4046
1
1
1
1.00001
1.00003
1.00006
1.00017
1.00035
1.00096
1.00195
1.00551
1.01093
1.03264
1.06073
1.20101
1.40613
2.26037
4.08256
7.98017
8.28958
8.13028
7.74701
7.26375
6.82841
6.38672
1
1
1
1.00001
1.00002
1.00005
1.00011
1.00029
1.00059
1.00166
1.00334
1.00966
1.01842
1.05899
1.1074
1.36473
1.80922
3.3352
6.78705
8.03321
7.95841
7.70063
7.23061
6.79202
6.37425
1
1
1
1.00001
1.00002
1.00003
1.00009
1.00018
1.00051
1.00103
1.0029
1.0058
1.01698
1.03194
1.105
1.19299
1.66543
2.50833
5.15667
7.68506
7.73942
7.59923
7.24079
6.78913
6.37402
1
1
1
1
1.00001
1.00003
1.00005
1.00015
1.0003
1.00084
1.0017
1.00478
1.00945
1.02814
1.05172
1.17323
1.3312
2.07206
3.49012
6.96493
7.60074
7.50499
7.23596
6.80143
6.3797
1
1
1
1
1.00001
1.00002
1.00004
1.0001
1.00021
1.00059
1.00119
1.00331
1.00654
1.01937
1.0352
1.12082
1.21179
1.75841
2.66713
5.44666
7.34199
7.33499
7.20181
6.85638
6.40271
1
1
1
1
1
1.00001
1.00003
1.00007
1.00015
1.0004
1.00081
1.00225
1.00455
1.01279
1.02536
1.07475
1.1493
1.4545
2.02143
3.67262
6.8023
7.2345
7.14268
6.89003
6.45328
1
1
1
1
1
1.00001
1.00002
1.00004
1.00011
1.00023
1.00062
1.00125
1.0035
1.00683
1.02066
1.03672
1.12759
1.22409
1.8019
2.75244
5.59864
7.01831
7.00785
6.87649
6.55757
1
1
1
1
1
1
1.00001
1.00003
1.00008
1.00016
1.00043
1.00087
1.00239
1.00482
1.01351
1.02675
1.07886
1.15586
1.47837
2.07396
3.79226
6.52263
6.90189
6.82508
6.6057
1
1
1
1
1
1
1.00001
1.00002
1.00005
1.0001
1.00028
1.00056
1.00155
1.00313
1.00873
1.01734
1.05062
1.09847
1.30271
1.66721
2.83979
5.38359
6.67592
6.69395
6.58944
1
1
1
1
1
1
1
1.00001
1.00003
1.00008
1.00015
1.00042
1.00085
1.00234
1.00471
1.0132
1.02604
1.07679
1.15128
1.45958
2.0279
3.63512
6.16932
6.58559
6.5338
1
1
1
1
1
1
1
1.00001
1.00002
1.00005
1.0001
1.00027
1.00055
1.00149
1.00302
1.00833
1.0166
1.04776
1.0933
1.28276
1.61455
2.69051
5.00347
6.3429
6.41643
1
1
1
1
1
1
1
1.00001
1.00001
1.00003
1.00006
1.00017
1.00034
1.00091
1.00184
1.00504
1.01003
1.0288
1.05388
1.17065
1.33125
1.98556
3.23027
5.79496
6.30673
1
1
1
1
1
1
1
1
1.00001
1.00002
1.00004
1.00009
1.00024
1.00049
1.00133
1.00268
1.00742
1.01477
1.04246
1.08335
1.24851
1.54678
2.47232
4.50691
6.01018
1
1
1
1
1
1
1
1
1
1.00001
1.00002
1.00006
1.00013
1.00034
1.0007
1.0019
1.00382
1.01058
1.02124
1.05964
1.12369
1.34667
1.77686
2.95433
5.30016
1
1
1
1
1
1
1
1
1
1.00001
1.00001
1.00004
1.00008
1.00021
1.00043
1.00116
1.00234
1.00638
1.01275
1.03611
1.06932
1.21174
1.42812
2.23026
3.83363
1
1
1
1
1
1
1
1
1
1
1.00001
1.00002
1.00005
1.00012
1.00025
1.00068
1.00138
1.00372
1.00748
1.0208
1.04023
1.12184
1.23042
1.71132
2.53546
1
1
1
1
1
1
1
1
1
1
1.00001
1.00001
1.00003
1.00006
1.00017
1.00034
1.00091
1.00184
1.005
1.00986
1.0284
1.0522
1.16627
1.315
1.92164
1
1
1
1
1
1
1
1
1
1
1
1.00001
1.00002
1.00004
1.0001
1.0002
1.00053
1.00107
1.0029
1.00574
1.01643
1.03001
1.09781
1.16966
1.57185
1
1
1
1
1
1
1
1
1
1
1
1
1.00001
1.00002
1.00005
1.00013
1.00026
1.00071
1.00143
1.00388
1.00774
1.02172
1.04132
1.12567
1.24215
1
1
1
1
1
1
1
1
1
1
1
1
1.00001
1.00001
1.00003
1.00008
1.00015
1.00041
1.00083
1.00221
1.00446
1.01209
1.02393
1.06807
1.13234
1
1
1
1
1
1
1
1
1
1
1
1
1
1.00001
1.00002
1.00004
1.00009
1.00023
1.00047
1.00125
1.00253
1.00683
1.01364
1.03769
1.07618
1
1
1
1
1
1
1
1
1
1
1
1
1
1
1.00001
1.00002
1.00006
1.00011
1.00031
1.00062
1.00166
1.00335
1.00907
1.01824
1.04991
1
1
1
1
1
1
1
1
1
1
1
1
1
1
1.00001
1.00001
1.00003
1.00007
1.00018
1.00037
1.00099
1.00201
1.0054
1.01084
1.02956
1
1
1
1
1
1
1
1
1
1
1
1
1
1
1
1.00001
1.00002
1.00005
1.00013
1.00026
1.00069
1.0014
1.00381
1.00767
1.02141
1
1
1
1
1
1
1
1
1
1
1
1
1
1
1
1.00001
1.00002
1.00004
1.00009
1.00023
1.00047
1.00131
1.00262
1.00749
1.01413
1
1
1
1
1
1
1
1
1
1
1
1
1
1
1
1.00001
1.00001
1.00004
1.00008
1.00021
1.00043
1.00121
1.00244
1.00698
1.01347
1
1
1
1
1
1
1
1
1
1
1
1
1
1
1
1.00001
1.00001
1.00003
1.00007
1.00019
1.00039
1.00111
1.00218
1.0067
1.01186
1
1
1
1
1
1
1
1
1
1
1
1
1
1
1
1.00001
1.00001
1.00003
1.00008
1.00017
1.00047
1.00095
1.00276
1.00531
1.01704
1
1
1
1
1
1
1
1
1
1
1
1
1
1
1
1.00001
1.00001
1.00003
1.00007
1.00019
1.00038
1.00109
1.00213
1.00661
1.01163
1
1
1
1
1
1
1
1
1
1
1
1
1
1
1
1.00001
1.00001
1.00003
1.00007
1.0002
1.0004
1.00113
1.00228
1.00662
1.01275
3.27491
1.8988
1.96663
2.53556
3.35518
3.23564
3.13227
3.0168
2.96395
2.94394
2.93616
2.92727
2.91114
2.89028
2.86847
2.84627
2.82171
2.79517
2.7666
2.73705
2.7072
2.67564
2.6451
2.63018
2.62459
2.62356
2.63758
2.67897
2.75465
2.86374
2.99631
3.14258
3.29471
3.44603
3.59087
3.72421
3.84419
3.95048
4.04632
4.13061
4.20201
4.26282
4.31174
4.3574
4.39222
4.41572
4.43117
4.43986
4.44146
4.43916
4.43131
4.4155
4.39504
4.37173
4.34466
4.31493
4.28202
4.24706
4.20967
4.17082
4.1302
4.08861
4.04583
4.00252
3.95852
3.91439
3.87004
3.82595
3.78211
3.73893
3.69647
3.65513
3.61506
3.57663
3.54014
3.50597
3.47449
3.4461
3.42125
3.40038
3.38398
3.37253
3.36803
3.36861
3.37078
3.37566
3.38452
3.39897
3.41594
3.43338
3.44963
3.46291
3.4721
3.47394
3.47263
3.4688
3.4608
3.44955
3.4369
3.42966
3.97435
2.72538
2.65806
2.85935
3.3081
3.22632
3.09804
3.00068
2.96282
2.96208
2.95612
2.94111
2.91797
2.89156
2.86547
2.8421
2.81757
2.79182
2.76432
2.73471
2.70483
2.67565
2.64798
2.63019
2.62263
2.62085
2.63162
2.66837
2.74173
2.85085
2.98355
3.12991
3.28168
3.43242
3.57664
3.7092
3.82848
3.93287
4.03162
4.11793
4.1896
4.25088
4.30192
4.34752
4.38225
4.40681
4.42274
4.43175
4.43369
4.43196
4.42537
4.41056
4.38888
4.36531
4.33891
4.3096
4.27715
4.24238
4.20533
4.16664
4.12633
4.08491
4.0424
3.99926
3.95552
3.91156
3.86746
3.82355
3.77993
3.73693
3.69471
3.65357
3.61374
3.57556
3.53937
3.50551
3.47435
3.44632
3.42183
3.40132
3.38523
3.37391
3.36934
3.36993
3.37206
3.37692
3.38529
3.3985
3.41413
3.43033
3.44539
3.45757
3.46636
3.4676
3.46636
3.46259
3.45445
3.44301
3.4299
3.42323
4.78186
3.60425
3.04049
3.04342
3.15184
3.16502
3.12148
3.02648
2.96997
2.95276
2.94237
2.93051
2.91342
2.8922
2.87
2.84909
2.82354
2.79541
2.767
2.73581
2.70347
2.67217
2.64464
2.62475
2.61569
2.61376
2.62369
2.65533
2.72268
2.8288
2.96041
3.10558
3.25509
3.40556
3.55336
3.6882
3.80969
3.91783
4.01654
4.10269
4.17555
4.23777
4.28987
4.33424
4.36912
4.39457
4.4112
4.42055
4.42275
4.42143
4.41613
4.40336
4.38097
4.3568
4.33063
4.30177
4.26989
4.2355
4.19885
4.16047
4.12051
4.07939
4.03724
3.99441
3.95104
3.90741
3.8637
3.82015
3.77695
3.73436
3.6926
3.65194
3.61264
3.5751
3.53961
3.50652
3.47621
3.44908
3.42554
3.40595
3.39066
3.37989
3.37513
3.37567
3.37757
3.38183
3.38884
3.39985
3.41251
3.42548
3.43736
3.44685
3.45335
3.45334
3.45207
3.44828
3.44011
3.42821
3.41516
3.4097
5.20511
4.13129
3.43244
3.14518
3.14756
3.14559
3.12774
3.07871
3.00114
2.96839
2.95192
2.93539
2.91497
2.89154
2.86774
2.84435
2.81803
2.791
2.76314
2.73228
2.7002
2.67022
2.64487
2.62655
2.61389
2.60837
2.61349
2.6394
2.69954
2.80856
2.93637
3.07868
3.22953
3.38091
3.52714
3.66165
3.78313
3.89206
3.99025
4.07701
4.15142
4.21485
4.26807
4.31261
4.34799
4.37432
4.39188
4.40188
4.4046
4.40364
4.39959
4.3893
4.36833
4.34337
4.31693
4.28852
4.25742
4.2238
4.18786
4.15009
4.11075
4.0702
4.02865
3.98639
3.94363
3.90062
3.85755
3.81466
3.77217
3.73032
3.68937
3.64957
3.61129
3.57485
3.54055
3.50879
3.47993
3.45434
3.43235
3.41424
3.40021
3.39038
3.3852
3.38558
3.3869
3.38962
3.39457
3.40192
3.41005
3.41791
3.42454
3.42966
3.43193
3.43118
3.42875
3.42353
3.41476
3.40358
3.3913
3.38753
5.45149
4.50277
3.79261
3.35857
3.19236
3.15859
3.14204
3.10847
3.04883
3.00096
2.96862
2.94481
2.92145
2.89744
2.87328
2.84836
2.82058
2.79238
2.76319
2.7321
2.70145
2.67252
2.64716
2.62853
2.61651
2.61364
2.62047
2.64946
2.71233
2.80783
2.92776
3.06147
3.20211
3.34812
3.49104
3.62465
3.7464
3.85647
3.95542
4.04327
4.11943
4.18452
4.23922
4.28459
4.32078
4.34811
4.36681
4.37777
4.38133
4.38065
4.37761
4.36955
4.35232
4.32711
4.30025
4.27207
4.24174
4.20905
4.17406
4.13715
4.09862
4.05884
4.01808
3.9766
3.93466
3.89248
3.8503
3.80834
3.76686
3.72609
3.68631
3.6478
3.61107
3.57627
3.5438
3.51403
3.4873
3.46392
3.44411
3.42802
3.41565
3.40695
3.40152
3.40057
3.40084
3.40161
3.40316
3.40551
3.40761
3.40866
3.40843
3.4076
3.40574
3.40203
3.39596
3.38854
3.37975
3.36982
3.35873
3.35692
5.61534
4.78393
4.10153
3.61642
3.31628
3.20127
3.16327
3.13519
3.09158
3.04281
3.00028
2.9659
2.93697
2.91038
2.8844
2.85696
2.82767
2.7982
2.76799
2.73727
2.70805
2.68147
2.65976
2.64598
2.64151
2.64495
2.66018
2.69979
2.76822
2.849
2.94601
3.05784
3.1768
3.30266
3.43654
3.56873
3.69293
3.80652
3.90813
3.99802
4.07613
4.14321
4.1998
4.2468
4.28448
4.31334
4.33362
4.34602
4.35095
4.35054
4.34843
4.34252
4.32942
4.30587
4.27919
4.25114
4.22146
4.18979
4.15598
4.12023
4.08284
4.04414
4.00445
3.96404
3.9232
3.88217
3.8412
3.80054
3.76045
3.72121
3.6831
3.64661
3.61191
3.57941
3.54947
3.52242
3.49854
3.47802
3.46095
3.44725
3.43671
3.42902
3.42356
3.42029
3.41824
3.41611
3.41318
3.40951
3.40447
3.39819
3.39067
3.3825
3.37406
3.36535
3.35606
3.34633
3.33653
3.32714
3.31697
3.31674
5.7283
4.99769
4.35832
3.85815
3.50779
3.29737
3.2058
3.16056
3.12261
3.08032
3.03684
2.997
2.96252
2.93145
2.90215
2.87291
2.84224
2.81143
2.77997
2.75003
2.72285
2.70102
2.68643
2.68323
2.68674
2.70174
2.74039
2.81735
2.88744
2.94624
3.00956
3.08265
3.16665
3.2522
3.35518
3.47878
3.60869
3.73275
3.84373
3.94004
4.02217
4.09196
4.1508
4.19982
4.2395
4.27044
4.29284
4.30734
4.31444
4.31442
4.31324
4.30927
4.29982
4.28046
4.25479
4.22709
4.198
4.16729
4.13474
4.10036
4.06436
4.02704
3.9887
3.94967
3.91024
3.87068
3.83128
3.79231
3.75406
3.71682
3.68099
3.647
3.61509
3.58562
3.55893
3.53529
3.51485
3.49764
3.48354
3.47225
3.46332
3.45616
3.45005
3.44432
3.43845
3.43161
3.42317
3.41303
3.40043
3.38632
3.3713
3.35587
3.34066
3.32608
3.31234
3.29944
3.28749
3.27722
3.2678
3.26799
5.80477
5.15925
4.56819
4.07301
3.69447
3.43196
3.27697
3.19483
3.14635
3.10859
3.0698
3.03023
2.99259
2.9579
2.92517
2.89403
2.86179
2.83038
2.79868
2.76976
2.74538
2.73086
2.72935
2.73361
2.75051
2.7948
2.89058
3.00509
3.07333
3.10433
3.12865
3.15249
3.17837
3.2306
3.28062
3.35997
3.48314
3.61814
3.74653
3.85846
3.95156
4.02824
4.09148
4.14322
4.18518
4.21836
4.2432
4.26029
4.27005
4.27232
4.27161
4.26898
4.26242
4.24852
4.22558
4.19913
4.17088
4.14116
4.1099
4.07704
4.04268
4.00704
3.97041
3.93311
3.89546
3.85777
3.82036
3.78356
3.74767
3.71301
3.68027
3.64946
3.62105
3.59533
3.57258
3.55291
3.53632
3.52259
3.51137
3.50211
3.49416
3.4867
3.47891
3.47001
3.45945
3.44679
3.43214
3.41431
3.39457
3.37326
3.35125
3.32915
3.30763
3.28716
3.2682
3.25102
3.23575
3.22333
3.21286
3.21322
5.85955
5.28169
4.73754
4.26026
3.86965
3.57428
3.37168
3.24753
3.17402
3.13145
3.09557
3.06
3.02349
2.98796
2.95274
2.9195
2.88602
2.85378
2.82225
2.79503
2.77606
2.77484
2.77911
2.79577
2.83986
2.93742
3.12584
3.26798
3.31685
3.31562
3.30529
3.27699
3.23307
3.23451
3.25035
3.28792
3.35656
3.4684
3.60438
3.73536
3.84875
3.94194
4.01671
4.07531
4.12168
4.15784
4.18527
4.20517
4.21798
4.22385
4.22371
4.22242
4.21852
4.20961
4.19154
4.16744
4.14065
4.11219
4.08231
4.05106
4.01852
3.98485
3.95026
3.91508
3.87963
3.84427
3.80936
3.77527
3.74229
3.7112
3.68199
3.65513
3.63093
3.60963
3.59131
3.57591
3.56316
3.55262
3.54369
3.53564
3.52761
3.5187
3.50805
3.49497
3.47907
3.46032
3.43845
3.41343
3.38687
3.35923
3.33121
3.30329
3.27614
3.25018
3.22599
3.20396
3.1844
3.16856
3.15501
3.15524
5.89534
5.37582
4.87467
4.42028
4.0317
3.7175
3.48172
3.32009
3.21688
3.15595
3.11586
3.08363
3.05089
3.019
2.98236
2.94847
2.91408
2.88125
2.85057
2.82628
2.81996
2.82353
2.83803
2.87771
2.96925
3.16202
3.43947
3.59195
3.59982
3.58351
3.53345
3.42768
3.32198
3.26095
3.25675
3.26735
3.29673
3.35463
3.44703
3.57337
3.70031
3.81545
3.91143
3.98687
4.04419
4.08726
4.11901
4.14241
4.1584
4.16779
4.17051
4.17
4.16793
4.16263
4.15123
4.13112
4.10679
4.08011
4.05188
4.02243
3.9919
3.96045
3.92827
3.89563
3.86288
3.83039
3.79859
3.76782
3.73872
3.71164
3.68686
3.6647
3.64538
3.62895
3.61528
3.60403
3.59468
3.58657
3.57894
3.57088
3.56144
3.54972
3.535
3.51683
3.4953
3.46981
3.44051
3.40967
3.37759
3.34464
3.31152
3.27862
3.24659
3.21579
3.18681
3.16008
3.13597
3.11609
3.09816
3.09668
5.92246
5.44903
4.98739
4.55777
4.17727
3.85645
3.59936
3.40808
3.27564
3.19084
3.13703
3.10334
3.07327
3.04472
3.01163
2.97963
2.94457
2.91242
2.88329
2.86812
2.87009
2.88063
2.9123
2.98935
3.15671
3.49885
3.83012
3.93844
3.92624
3.87816
3.7662
3.59082
3.4445
3.34358
3.28863
3.27814
3.28496
3.3071
3.35153
3.42113
3.52747
3.64746
3.76255
3.86116
3.93924
3.99799
4.04057
4.07087
4.09149
4.10469
4.11152
4.11241
4.11167
4.10909
4.10282
4.08966
4.06908
4.04496
4.01891
3.99161
3.96339
3.93446
3.90505
3.87541
3.8459
3.81693
3.7889
3.76225
3.73787
3.71563
3.69598
3.6791
3.66502
3.65353
3.64421
3.63645
3.62955
3.62272
3.61504
3.60552
3.5932
3.57741
3.55762
3.53392
3.5056
3.47333
3.43938
3.40375
3.36705
3.32971
3.29234
3.2553
3.21916
3.18427
3.15117
3.12029
3.09196
3.06796
3.04589
3.0404
5.94697
5.50889
5.08023
4.67585
4.30788
3.98689
3.71906
3.50616
3.34803
3.23887
3.16706
3.12325
3.09087
3.06463
3.0369
3.00762
2.9764
2.94668
2.92125
2.92099
2.92701
2.94999
3.01116
3.15104
3.44573
3.96176
4.2619
4.28258
4.253
4.16397
3.97613
3.76469
3.59255
3.4648
3.37558
3.32179
3.29918
3.30193
3.31522
3.34403
3.39475
3.47615
3.58408
3.69373
3.79318
3.87532
3.93816
3.98336
4.01415
4.034
4.04565
4.05102
4.05101
4.05017
4.04734
4.04058
4.02661
4.00638
3.98333
3.95878
3.93333
3.90735
3.88114
3.85501
3.82936
3.80461
3.78105
3.75985
3.74066
3.72399
3.71002
3.69873
3.68986
3.68285
3.67702
3.67162
3.66589
3.65889
3.64961
3.63703
3.62041
3.59958
3.57391
3.54325
3.509
3.47285
3.43481
3.39528
3.35486
3.31395
3.27314
3.23276
3.19337
3.15523
3.11884
3.08459
3.05272
3.02501
2.99932
2.98908
5.96576
5.56091
5.16169
4.77866
4.42521
4.10873
3.83569
3.60981
3.43101
3.29902
3.20713
3.14763
3.10846
3.08053
3.05661
3.0318
3.00721
2.98195
2.97187
2.97563
2.99241
3.04045
3.15571
3.40667
3.92405
4.47039
4.6463
4.62859
4.56068
4.40475
4.16067
3.9389
3.75641
3.61114
3.49792
3.41326
3.35537
3.31901
3.31258
3.31719
3.33206
3.36529
3.42482
3.51328
3.61397
3.71245
3.79859
3.86685
3.91647
3.94997
3.97093
3.98268
3.98751
3.98749
3.98665
3.98386
3.97724
3.96365
3.94498
3.92401
3.90197
3.87954
3.85715
3.83519
3.81414
3.79424
3.7766
3.76104
3.74792
3.7374
3.72931
3.7235
3.71923
3.7156
3.71194
3.70749
3.70151
3.69272
3.68012
3.66302
3.64102
3.61344
3.58121
3.54576
3.50815
3.46834
3.42685
3.38412
3.34073
3.29704
3.25363
3.21078
3.16897
3.12843
3.08957
3.05272
3.0181
2.98728
2.95865
2.94377
5.98517
5.60483
5.23109
4.8714
4.53258
4.22322
3.9488
3.71411
3.52087
3.36926
3.2573
3.1798
3.12904
3.09501
3.0718
3.05181
3.03474
3.02312
3.02533
3.03755
3.07546
3.17003
3.38208
3.82817
4.55257
4.94519
4.96623
4.92966
4.82075
4.59279
4.33567
4.11374
3.92761
3.77221
3.64216
3.53517
3.44862
3.38292
3.33797
3.31253
3.31277
3.31663
3.33236
3.36897
3.43905
3.52761
3.62322
3.71172
3.78538
3.84109
3.87942
3.90341
3.91659
3.92224
3.92291
3.92235
3.92015
3.91466
3.90325
3.88736
3.86957
3.85147
3.83366
3.81674
3.80103
3.78727
3.7761
3.76691
3.76049
3.75615
3.75356
3.7526
3.75146
3.74965
3.74679
3.74197
3.73414
3.72166
3.70403
3.68055
3.65154
3.61821
3.58222
3.54346
3.50238
3.4594
3.41508
3.36984
3.32425
3.27861
3.23343
3.18891
3.14549
3.10331
3.06277
3.02408
2.98747
2.95427
2.92344
2.90448
6.01472
5.6511
5.2979
4.95658
4.63182
4.33018
4.05769
3.81763
3.6137
3.44642
3.31631
3.22093
3.15544
3.11218
3.08548
3.0698
3.06502
3.06718
3.07805
3.11071
3.19152
3.37325
3.75654
4.5285
5.131
5.28608
5.263
5.1827
5.00303
4.74186
4.49865
4.28645
4.102
3.9404
3.79818
3.67373
3.56615
3.47577
3.40226
3.34655
3.3104
3.29768
3.29276
3.29737
3.31717
3.36163
3.43936
3.52659
3.61596
3.69535
3.75824
3.80304
3.83194
3.84847
3.85627
3.85942
3.85932
3.85836
3.85523
3.84817
3.83633
3.824
3.81165
3.80059
3.79119
3.78484
3.78031
3.77806
3.7784
3.77949
3.78178
3.78382
3.78347
3.7822
3.77919
3.77298
3.76099
3.74242
3.71749
3.68751
3.654
3.61731
3.57763
3.53547
3.4914
3.44587
3.39945
3.35249
3.30549
3.25866
3.21246
3.167
3.12268
3.07956
3.038
2.99817
2.96028
2.9254
2.89307
2.87079
6.05984
5.70437
5.36573
5.03786
4.72541
4.43137
4.16105
3.91885
3.70711
3.52859
3.38293
3.2707
3.18948
3.13547
3.10232
3.09497
3.09764
3.10877
3.13958
3.21294
3.37582
3.7208
4.42886
5.22889
5.55303
5.5476
5.50042
5.37637
5.1276
4.87934
4.6561
4.4557
4.27421
4.10849
3.9574
3.82011
3.6967
3.58715
3.49146
3.41186
3.34809
3.30091
3.27763
3.26
3.25928
3.26678
3.29154
3.34525
3.42623
3.51402
3.59737
3.66753
3.72077
3.75687
3.77907
3.79132
3.79777
3.80154
3.80239
3.80206
3.80066
3.79738
3.79193
3.78775
3.78688
3.78747
3.78929
3.79319
3.79995
3.80704
3.81285
3.81416
3.81346
3.81123
3.80618
3.79574
3.77645
3.75109
3.72123
3.68756
3.65022
3.60975
3.56676
3.52178
3.47543
3.42812
3.38036
3.3324
3.28467
3.23731
3.19069
3.14488
3.10022
3.05674
3.01475
2.97437
2.93583
2.89992
2.86676
2.84198
6.12709
5.76094
5.4289
5.11264
4.81063
4.52519
4.25901
4.01636
3.79964
3.61233
3.45489
3.32809
3.2323
3.16687
3.129
3.12994
3.13837
3.16468
3.22909
3.37212
3.67547
4.30343
5.24534
5.74986
5.8113
5.77969
5.68464
5.485
5.24051
5.01443
4.80892
4.61838
4.4397
4.27155
4.11415
3.9675
3.83218
3.70841
3.59711
3.49806
3.4126
3.34145
3.28645
3.25037
3.22777
3.21291
3.21518
3.22839
3.26097
3.32712
3.408
3.49325
3.57079
3.63329
3.67906
3.70972
3.72936
3.74142
3.74999
3.7569
3.76319
3.76862
3.77341
3.77877
3.7856
3.79418
3.80404
3.81478
3.8255
3.83529
3.8404
3.8399
3.83804
3.83349
3.8237
3.80511
3.78073
3.75152
3.71769
3.67991
3.63893
3.59532
3.54979
3.50285
3.45507
3.40675
3.35833
3.31
3.26208
3.21469
3.16812
3.12244
3.07792
3.03457
2.99264
2.95225
2.91355
2.87724
2.8438
2.81758
6.19797
5.82458
5.49398
5.18603
4.89156
4.61257
4.35103
4.10997
3.89103
3.69685
3.53061
3.39199
3.28461
3.20769
3.17495
3.17931
3.19866
3.25094
3.37083
3.62676
4.15435
5.17754
5.8812
6.04803
6.02804
5.95767
5.80062
5.57219
5.35192
5.14809
4.95642
4.77302
4.59658
4.42732
4.26565
4.11239
3.96836
3.83387
3.7097
3.59622
3.49451
3.40471
3.32832
3.26617
3.22117
3.19149
3.16793
3.16101
3.16658
3.18618
3.22975
3.30448
3.38782
3.47036
3.54296
3.60063
3.64296
3.67264
3.69412
3.71135
3.72696
3.74221
3.75746
3.77291
3.78879
3.80509
3.82151
3.8374
3.85081
3.85977
3.86035
3.85905
3.85495
3.84576
3.82824
3.80513
3.77636
3.74269
3.70499
3.66388
3.62018
3.57448
3.52745
3.47947
3.43105
3.38239
3.33388
3.28563
3.23794
3.19091
3.14478
3.09961
3.05557
3.01276
2.97136
2.93143
2.89328
2.85726
2.82418
2.79717
6.3212
5.91091
5.56274
5.25536
4.96738
4.69486
4.43812
4.19882
3.98021
3.7822
3.60958
3.46216
3.34729
3.26197
3.24779
3.25786
3.29532
3.39129
3.60566
4.05699
4.9759
5.89947
6.24017
6.23436
6.19118
6.08284
5.87475
5.66365
5.46597
5.27852
5.09687
4.91917
4.7449
4.57493
4.41006
4.25183
4.1008
3.95834
3.82468
3.70076
3.58656
3.483
3.3903
3.30958
3.2421
3.18888
3.15334
3.12428
3.10648
3.10812
3.1192
3.14756
3.20601
3.28495
3.37112
3.45371
3.52489
3.58205
3.62649
3.66169
3.69138
3.71842
3.74427
3.76949
3.79424
3.81778
3.83877
3.85804
3.87013
3.87293
3.87191
3.86853
3.86104
3.84604
3.82352
3.79517
3.76186
3.72434
3.68356
3.64017
3.5949
3.54819
3.50059
3.45236
3.40393
3.35546
3.30728
3.2595
3.21241
3.16607
3.12073
3.07644
3.03344
2.99166
2.95127
2.91227
2.87492
2.8395
2.80704
2.77985
6.35918
5.99974
5.63915
5.32655
5.04301
4.7757
4.52228
4.28487
4.06695
3.86761
3.69151
3.5396
3.4213
3.34611
3.34953
3.37356
3.44666
3.62149
3.9992
4.779
5.80217
6.32546
6.39472
6.37086
6.30022
6.15105
5.95391
5.76323
5.58185
5.40542
5.23099
5.0573
4.88467
4.71404
4.54694
4.38484
4.2289
4.0803
3.93955
3.80736
3.68388
3.56968
3.46495
3.37045
3.28674
3.21519
3.15611
3.11397
3.08132
3.05855
3.05308
3.05843
3.0769
3.11781
3.18992
3.27817
3.3706
3.4579
3.53396
3.59728
3.64944
3.69346
3.73206
3.76707
3.79868
3.82737
3.85063
3.86936
3.87746
3.87696
3.87456
3.86898
3.85739
3.83545
3.80738
3.77436
3.73738
3.69718
3.65458
3.61008
3.56426
3.51738
3.4699
3.42199
3.37403
3.32615
3.27869
3.23177
3.18573
3.14064
3.09668
3.05375
3.01201
2.9714
2.93208
2.89408
2.85769
2.82321
2.79173
2.76515
6.33791
6.12241
5.74042
5.40787
5.11895
4.85373
4.60616
4.37178
4.15325
3.9535
3.77594
3.62698
3.51093
3.47693
3.4909
3.54513
3.68678
4.00264
4.65995
5.67909
6.31374
6.49305
6.48439
6.44821
6.36358
6.20572
6.03564
5.86601
5.69789
5.52965
5.3602
5.18893
5.01687
4.84528
4.67616
4.511
4.3513
4.19799
4.05189
3.91334
3.78288
3.66052
3.54681
3.4419
3.34647
3.26109
3.18667
3.12458
3.07608
3.04311
3.01666
3.00506
3.00794
3.02014
3.04955
3.10904
3.19807
3.3004
3.40466
3.5013
3.58519
3.65528
3.71298
3.76046
3.7993
3.83047
3.85416
3.87103
3.87372
3.87227
3.86774
3.85776
3.83797
3.81112
3.77921
3.74329
3.70429
3.66284
3.61962
3.57497
3.52932
3.48285
3.43592
3.38871
3.34159
3.29478
3.24868
3.20336
3.15895
3.1154
3.07284
3.03122
2.99068
2.95123
2.91309
2.87634
2.84129
2.8083
2.77831
2.7533
6.27884
6.14745
5.85864
5.50394
5.20108
4.93275
4.68606
4.4544
4.23953
4.04257
3.86923
3.72879
3.64722
3.65403
3.69344
3.80931
4.07925
4.64595
5.60374
6.26976
6.51892
6.54309
6.52872
6.48616
6.39565
6.26199
6.11826
5.96812
5.81208
5.65048
5.48387
5.31331
5.14058
4.96776
4.79682
4.62957
4.46708
4.31056
4.16037
4.0172
3.88125
3.75279
3.63213
3.51952
3.41531
3.32004
3.23429
3.15881
3.09502
3.04307
3.00673
2.98329
2.97083
2.97344
2.98361
3.00851
3.05912
3.14005
3.24813
3.36468
3.4789
3.58135
3.66719
3.73515
3.78642
3.8226
3.84765
3.85785
3.85701
3.85367
3.84569
3.82923
3.80468
3.77499
3.74123
3.70415
3.66456
3.62295
3.57991
3.53568
3.4906
3.44485
3.3988
3.3528
3.30729
3.26233
3.21807
3.17448
3.13166
3.08959
3.04841
3.00814
2.96897
2.93097
2.89435
2.85931
2.82609
2.79527
2.76735
2.74502
6.18113
6.11872
5.94594
5.60284
5.28766
5.01308
4.76596
4.53712
4.32638
4.13597
3.97771
3.85939
3.86027
3.88855
3.98668
4.22799
4.74076
5.62567
6.26976
6.51934
6.57562
6.56794
6.54294
6.48971
6.41086
6.31327
6.19789
6.06692
5.92194
5.76535
5.60001
5.429
5.25531
5.08141
4.90936
4.74078
4.5765
4.41765
4.26444
4.11769
3.9775
3.84433
3.71835
3.59995
3.48927
3.38688
3.29304
3.2085
3.13394
3.07025
3.01884
2.98104
2.95817
2.95537
2.95853
2.96893
2.99298
3.04222
3.11579
3.21762
3.3378
3.45962
3.57161
3.66576
3.73795
3.78752
3.81873
3.82774
3.82596
3.8207
3.80917
3.78773
3.76067
3.72948
3.69517
3.65819
3.6191
3.5782
3.536
3.49261
3.44847
3.40395
3.35963
3.31561
3.27208
3.22902
3.18655
3.14462
3.10341
3.0629
3.0233
2.98464
2.94716
2.91098
2.87632
2.8435
2.8127
2.78484
2.7597
2.74131
6.01256
6.01941
5.93797
5.73214
5.39495
5.10149
4.84869
4.62249
4.41922
4.24604
4.11496
4.09097
4.11629
4.20968
4.44332
4.94135
5.77498
6.35798
6.57553
6.61062
6.60028
6.57062
6.51569
6.47054
6.4222
6.3577
6.26982
6.15776
6.02292
5.8703
5.70584
5.53466
5.36073
5.18652
5.01423
4.8449
4.67959
4.51899
4.36357
4.21404
4.0706
3.93381
3.80387
3.68113
3.5659
3.45844
3.35922
3.26859
3.18717
3.11573
3.0551
3.00659
2.97127
2.95275
2.9538
2.9593
2.9735
3.00349
3.05073
3.11799
3.20937
3.31828
3.43275
3.54143
3.63416
3.70449
3.75097
3.77332
3.77257
3.76845
3.75835
3.73777
3.70905
3.6768
3.6424
3.60608
3.56813
3.5286
3.48783
3.44584
3.40355
3.36121
3.31907
3.27712
3.23555
3.19432
3.15363
3.11346
3.074
3.03529
2.99755
2.96085
2.92544
2.89152
2.85936
2.82943
2.80181
2.77794
2.75661
2.74307
5.5889
5.9153
5.88782
5.76719
5.50762
5.2008
4.93914
4.71639
4.52916
4.38636
4.35211
4.37663
4.47141
4.71156
5.22361
6.03948
6.56831
6.73404
6.72533
6.68738
6.60414
6.52339
6.476
6.45211
6.42943
6.39151
6.32996
6.2351
6.11003
5.9624
5.80037
5.63055
5.45746
5.28372
5.11156
4.94185
4.77578
4.61388
4.4568
4.30522
4.15941
4.02009
3.88736
3.76177
3.64351
3.53295
3.4304
3.33624
3.25091
3.17519
3.10973
3.05533
3.01319
2.98353
2.97263
2.97424
2.98053
2.99596
3.02878
3.07178
3.12493
3.20037
3.28961
3.3863
3.48153
3.56562
3.63075
3.67431
3.69209
3.69108
3.68616
3.67423
3.64999
3.61934
3.5853
3.54943
3.51249
3.47449
3.43553
3.39625
3.35667
3.31682
3.27695
3.2371
3.19752
3.15822
3.11946
3.08124
3.04379
3.00715
2.97158
2.93721
2.90434
2.87326
2.8443
2.81811
2.79476
2.77623
2.75917
2.75114
4.66526
5.68566
5.79487
5.74493
5.60415
5.31757
5.0468
4.83074
4.67159
4.63395
4.66061
4.76397
5.02536
5.58091
6.39948
6.88716
6.97604
6.94988
6.86812
6.70043
6.56322
6.48498
6.45139
6.43943
6.4287
6.40693
6.36323
6.28527
6.17626
6.03954
5.88442
5.71855
5.54726
5.37422
5.20187
5.03166
4.86475
4.70185
4.54365
4.39074
4.2436
4.10276
3.96856
3.84143
3.72169
3.60966
3.50572
3.41034
3.32394
3.24694
3.17976
3.12313
3.07756
3.04365
3.02152
3.01478
3.01596
3.02053
3.03178
3.05623
3.08346
3.12203
3.17395
3.23895
3.31309
3.38997
3.46224
3.52328
3.56602
3.58846
3.58828
3.58511
3.57574
3.55571
3.52493
3.49015
3.45403
3.41756
3.38118
3.34455
3.30766
3.27037
3.23291
3.19532
3.15791
3.12076
3.08414
3.04812
3.01295
2.97873
2.94574
2.9142
2.88448
2.85699
2.83226
2.81088
2.79369
2.78019
2.76912
2.76826
3.04147
5.12865
5.66805
5.67357
5.61134
5.45432
5.19138
4.98749
4.9329
4.96319
5.08121
5.37769
6.00469
6.84033
7.30083
7.31634
7.27067
7.1437
6.88837
6.68188
6.55208
6.4824
6.45039
6.43594
6.42313
6.40257
6.36661
6.30424
6.21248
6.09512
5.95451
5.79709
5.63002
5.45837
5.28586
5.1149
4.947
4.78319
4.62423
4.4707
4.32312
4.18189
4.04748
3.92021
3.80053
3.68881
3.58542
3.49077
3.40523
3.32934
3.26317
3.20697
3.16079
3.12455
3.09768
3.08001
3.07004
3.06375
3.06328
3.06423
3.06783
3.07569
3.0924
3.12284
3.16351
3.2137
3.27303
3.33655
3.39484
3.44008