/*--------------------------------*- C++ -*----------------------------------*\
| =========                 |                                                 |
| \\      /  F ield         | OpenFOAM: The Open Source CFD Toolbox           |
|  \\    /   O peration     | Version:  2112                                  |
|   \\  /    A nd           | Website:  www.openfoam.com                      |
|    \\/     M anipulation  |                                                 |
\*---------------------------------------------------------------------------*/
FoamFile
{
    version     2.0;
    format      ascii;
    arch        "LSB;label=32;scalar=64";
    class       surfaceScalarField;
    location    "5";
    object      phi;
}
// * * * * * * * * * * * * * * * * * * * * * * * * * * * * * * * * * * * * * //

dimensions      [1 0 -1 0 0 0 0];

oriented        oriented;

internalField   nonuniform List<scalar> 
10325
(
0.00840003
7.45352e-11
0.00840003
5.78379e-10
0.00840003
1.77488e-09
0.00840002
5.3817e-09
0.00840001
1.26354e-08
0.00839997
3.49378e-08
0.0083999
7.37911e-08
0.00839965
2.26573e-07
0.00839923
4.34911e-07
0.00839751
1.56657e-06
0.00839438
3.21045e-06
0.00838176
1.20975e-05
0.00834882
3.27901e-05
0.0082094
0.00013875
0.00754833
0.000656369
0.00681857
0.00073338
0.00615622
0.000663108
0.00548743
0.000668658
0.00479828
0.000689406
0.0040736
0.000724874
0.00331011
0.000763951
0.00251252
0.000797724
0.00168967
0.000823256
0.000847794
0.000842999
0.000848036
0.00840003
1.46079e-10
0.00840003
1.13313e-09
0.00840003
3.47802e-09
0.00840002
1.05373e-08
0.00840001
2.46509e-08
0.00839997
6.87988e-08
0.0083999
1.41432e-07
0.00839965
4.57721e-07
0.00839928
8.23788e-07
0.00839747
3.24043e-06
0.00839437
6.37518e-06
0.00838128
2.47065e-05
0.00834729
6.65871e-05
0.00820891
0.000276493
0.0075709
0.0012896
0.00682419
0.00148375
0.00617358
0.00131448
0.00551631
0.0013258
0.00483339
0.00137256
0.00410301
0.00145547
0.00333364
0.0015338
0.00253022
0.00160131
0.00169748
0.00165648
0.000845455
0.00169612
0.00169377
0.00840003
2.14598e-10
0.00840003
1.66464e-09
0.00840003
5.10375e-09
0.00840002
1.5474e-08
0.00840001
3.6216e-08
0.00839997
1.01072e-07
0.00839991
2.08239e-07
0.00839967
6.73041e-07
0.0083993
1.20264e-06
0.00839764
4.76829e-06
0.00839478
9.31062e-06
0.00838287
3.61277e-05
0.00835202
9.7232e-05
0.00823028
0.000397665
0.0076857
0.00182927
0.00692778
0.00224538
0.00627321
0.00196988
0.00562081
0.00197811
0.00494256
0.00205104
0.00420921
0.00218904
0.00343188
0.0023116
0.0026144
0.00241902
0.00176011
0.00251132
0.000879929
0.00257748
0.00257402
0.00840003
2.73401e-10
0.00840003
2.12052e-09
0.00840003
6.48843e-09
0.00840002
1.9686e-08
0.00840001
4.61423e-08
0.00839998
1.28235e-07
0.00839992
2.67439e-07
0.00839973
8.46057e-07
0.00839941
1.52866e-06
0.00839813
5.92777e-06
0.0083959
1.16e-05
0.00838706
4.44927e-05
0.00836443
0.000119631
0.00827982
0.00048172
0.00792408
0.0021799
0.00716532
0.00300788
0.00648655
0.00264943
0.00582537
0.00263914
0.00514755
0.00272906
0.00441221
0.00292457
0.00361713
0.00310763
0.00277558
0.00326069
0.00188393
0.00340343
0.000945845
0.00351676
0.0035204
0.00840003
3.07646e-10
0.00840003
2.38406e-09
0.00840003
7.29594e-09
0.00840002
2.21163e-08
0.00840002
5.19359e-08
0.0084
1.43397e-07
0.00839997
3.01967e-07
0.00839985
9.40212e-07
0.00839973
1.6623e-06
0.00839899
6.55378e-06
0.00839811
1.25321e-05
0.00839397
4.81721e-05
0.00838477
0.000128647
0.00835603
0.000509522
0.00832179
0.00220927
0.00757295
0.00376057
0.00682771
0.00339582
0.00614185
0.00332486
0.0054547
0.0034162
0.00470966
0.00366959
0.00389868
0.003919
0.00301808
0.00414258
0.00207314
0.0043492
0.00106001
0.00453117
0.00458114
0.00840003
3.11519e-10
0.00840003
2.41313e-09
0.00840003
7.40196e-09
0.00840003
2.23442e-08
0.00840003
5.2744e-08
0.00840003
1.41649e-07
0.00840001
3.14014e-07
0.00840007
8.68009e-07
0.00839995
1.78076e-06
0.00840058
5.83609e-06
0.00840151
1.16076e-05
0.00840718
4.21409e-05
0.00841859
0.000116444
0.0085007
0.000431652
0.00904638
0.00165608
0.00829724
0.00451403
0.00736412
0.004332
0.00663039
0.00406031
0.00591602
0.00413221
0.00514183
0.00444473
0.00429768
0.00476334
0.00337017
0.00507013
0.00234702
0.00537314
0.00121881
0.00566126
0.00580077
0.00840003
2.97209e-10
0.00840003
2.29888e-09
0.00840003
7.1239e-09
0.00840003
2.13402e-08
0.00840003
5.04472e-08
0.00840004
1.33261e-07
0.00840006
2.9553e-07
0.00840012
7.98426e-07
0.00840029
1.61501e-06
0.00840077
5.27876e-06
0.00840276
9.6934e-06
0.00840819
3.64049e-05
0.00842492
9.94722e-05
0.00853844
0.000317861
0.00884326
0.00134623
0.00850333
0.0048533
0.00765845
0.0051764
0.00702159
0.00469758
0.00633484
0.00481989
0.00559282
0.00518768
0.00473964
0.00561763
0.00378775
0.00602201
0.00270854
0.0064522
0.00146117
0.0069098
0.00726262
0.00840003
3.28366e-10
0.00840003
2.53929e-09
0.00840003
7.86522e-09
0.00840003
2.35309e-08
0.00840002
5.56233e-08
0.00840001
1.46214e-07
0.00839998
3.26127e-07
0.00839991
8.54671e-07
0.00839973
1.80371e-06
0.00839964
5.31526e-06
0.00839902
1.03688e-05
0.00839942
3.5745e-05
0.00840889
8.9936e-05
0.00841189
0.000314526
0.00861015
0.0011452
0.00834469
0.00511663
0.00801486
0.00550522
0.00734641
0.00536586
0.00664623
0.00552028
0.00597985
0.00585415
0.00519262
0.00640493
0.00425726
0.00695702
0.00315244
0.00755701
0.00179942
0.00826378
0.00906241
0.00840003
3.4377e-10
0.00840003
3.22577e-09
0.00840003
9.74174e-09
0.00840002
2.96394e-08
0.00840001
6.96478e-08
0.00839996
1.86607e-07
0.00839988
4.089e-07
0.00839964
1.09029e-06
0.00839919
2.25875e-06
0.00839822
6.24183e-06
0.0083966
1.20282e-05
0.00839298
3.9132e-05
0.00839806
8.49231e-05
0.00838303
0.000329065
0.00849382
0.00103346
0.00836323
0.00524496
0.00800176
0.00586614
0.00750735
0.00585979
0.00694275
0.00608382
0.00632773
0.00646873
0.00563544
0.0070972
0.00479146
0.0078008
0.00377347
0.00857438
0.00236022
0.00967659
0.0114223
0.00840003
1.5447e-10
0.00840003
4.75108e-09
0.00840003
7.2848e-09
0.00840002
4.11046e-08
0.00840004
5.23395e-08
0.00839996
2.64471e-07
0.00840009
2.80035e-07
0.00839953
1.64296e-06
0.00840053
1.26199e-06
0.00839673
1.00027e-05
0.00840351
5.28138e-06
0.00837675
6.56702e-05
0.00842273
3.90678e-05
0.0082948
0.000456527
0.00847544
0.000852327
0.00843674
0.00528184
0.00806803
0.00623476
0.00765918
0.00626813
0.00723488
0.00650707
0.00670989
0.00699249
0.00614816
0.00765821
0.0055029
0.00844558
0.0045861
0.00949058
0.00323608
0.0110259
0.0146567
0.00840003
5.36625e-10
0.00840003
8.25587e-10
0.00840003
7.98334e-09
0.00840006
9.03996e-09
0.00840006
5.69446e-08
0.00840027
5.39963e-08
0.00840016
3.81695e-07
0.00840154
2.73987e-07
0.00840005
2.72051e-06
0.00840855
1.47951e-06
0.00839436
1.92642e-05
0.00844858
1.07236e-05
0.00834235
0.000144466
0.00862769
0.000171378
0.00832512
0.0011545
0.00854317
0.00506203
0.00820712
0.00657105
0.00782827
0.00664645
0.00748603
0.00684851
0.00712442
0.00735314
0.00674352
0.00803807
0.00630191
0.00888594
0.0058857
0.00990488
0.00586541
0.0110431
0.0117575
0.00876034
0.00840003
2.91528e-10
0.00840003
1.56865e-09
0.00840003
5.38813e-09
0.00840003
1.49286e-08
0.00840004
3.79465e-08
0.0084
9.27491e-08
0.00840016
2.32066e-07
0.00839987
5.52941e-07
0.00840122
1.40037e-06
0.00839882
3.931e-06
0.00840932
8.94458e-06
0.00839063
3.01923e-05
0.00846221
7.33501e-05
0.00832514
0.000307809
0.00863441
0.000845122
0.009014
0.0046809
0.00857053
0.00701483
0.00810285
0.00711372
0.00777502
0.00717511
0.00750721
0.00761975
0.00725084
0.00829359
0.00703075
0.00910438
0.0069645
0.00996922
0.00738147
0.0106231
0.010684
0.00844412
0.00840003
2.70945e-10
0.00840003
2.10745e-09
0.00840003
6.44131e-09
0.00840002
1.95444e-08
0.00840002
4.62317e-08
0.00839998
1.24357e-07
0.00839994
2.8e-07
0.00839974
7.4354e-07
0.0083995
1.64452e-06
0.00839889
4.52502e-06
0.00839802
9.82298e-06
0.00839703
3.10651e-05
0.00840412
6.63456e-05
0.00844456
0.000267003
0.0085608
0.000728875
0.00970634
0.00353362
0.00914511
0.00757657
0.0085313
0.00772734
0.00816406
0.00754121
0.00792554
0.00785664
0.00777485
0.00844218
0.00773689
0.00914114
0.00790188
0.00979959
0.00839254
0.0101268
0.00998228
0.00908295
0.00840003
2.76036e-10
0.00840003
2.14677e-09
0.00840003
6.56483e-09
0.00840003
1.98852e-08
0.00840003
4.70544e-08
0.00840003
1.26157e-07
0.00840002
2.84407e-07
0.00840002
7.46768e-07
0.00839999
1.67375e-06
0.00840016
4.33413e-06
0.00839974
1.0251e-05
0.00840576
2.49583e-05
0.00840428
6.78778e-05
0.00848168
0.000189275
0.00864603
0.000564798
0.00987835
0.00230008
0.00963314
0.00782101
0.00925431
0.00810577
0.00868071
0.00811405
0.00838965
0.00814644
0.00829061
0.00853939
0.00836823
0.00905971
0.00860242
0.00956313
0.00900778
0.00971579
0.00944956
0.00953044
0.00840003
2.47278e-10
0.00840003
1.91894e-09
0.00840003
5.88202e-09
0.00840003
1.77557e-08
0.00840004
4.2127e-08
0.00840005
1.12037e-07
0.00840008
2.53404e-07
0.00840018
6.51496e-07
0.00840035
1.49809e-06
0.00840102
3.65663e-06
0.00840245
8.82472e-06
0.00840577
2.15503e-05
0.00842057
5.31361e-05
0.00845418
0.000155344
0.00854279
0.000476089
0.00905396
0.0017884
0.00971651
0.00715653
0.00945856
0.00836277
0.0090823
0.00848931
0.00883517
0.0083923
0.00875865
0.00861399
0.00886354
0.00895155
0.00912956
0.00929181
0.00946821
0.00937122
0.00905107
0.00985934
0.00840003
1.93844e-10
0.00840003
1.49975e-09
0.00840003
4.65622e-09
0.00840004
1.39387e-08
0.00840004
3.30659e-08
0.00840007
8.69044e-08
0.00840013
1.9488e-07
0.00840027
5.07493e-07
0.00840069
1.08013e-06
0.00840123
3.10038e-06
0.00840415
5.92687e-06
0.00840546
2.01526e-05
0.00841946
3.92446e-05
0.00843186
0.000142605
0.00853499
0.000372994
0.00879902
0.00152403
0.00971893
0.00623503
0.00962216
0.0084589
0.0094269
0.00868369
0.00922213
0.0085957
0.00915947
0.0086746
0.00923479
0.00887366
0.00948502
0.00903437
0.0098056
0.00904713
0.00873995
0.0101079
0.00840003
1.70789e-10
0.00840003
1.32248e-09
0.00840003
4.0705e-09
0.00840003
1.22408e-08
0.00840004
2.89713e-08
0.00840005
7.66994e-08
0.00840007
1.71996e-07
0.00840013
4.47146e-07
0.00840023
9.81518e-07
0.00840066
2.65642e-06
0.00840113
5.46275e-06
0.00840389
1.73393e-05
0.00840932
3.38595e-05
0.00842748
0.000124177
0.00848166
0.000318757
0.00873745
0.00126801
0.010303
0.00466737
0.0100711
0.00869005
0.00986299
0.00889091
0.00961544
0.00884191
0.00957534
0.00871237
0.00963541
0.00881064
0.00979156
0.00887221
0.0100439
0.00879053
0.00848962
0.0102875
0.00840003
1.40078e-10
0.00840003
1.13379e-09
0.00840003
3.51644e-09
0.00840003
1.04686e-08
0.00840004
2.50615e-08
0.00840005
6.54999e-08
0.00840007
1.49138e-07
0.00840014
3.8017e-07
0.00840027
8.5375e-07
0.00840072
2.19344e-06
0.00840135
4.83277e-06
0.00840543
1.31901e-05
0.00841109
2.8061e-05
0.00844923
8.60517e-05
0.00854379
0.000223238
0.00905608
0.000756955
0.011154
0.00256669
0.0109462
0.00889729
0.0105956
0.00924072
0.010207
0.00922916
0.00999299
0.00892412
0.0100051
0.00879651
0.0101099
0.00876085
0.0102709
0.00862489
0.00831134
0.0104412
0.00840003
5.61473e-11
0.00840003
1.15949e-09
0.00840003
2.22773e-09
0.00840003
1.01582e-08
0.00840004
1.63857e-08
0.00840004
6.31386e-08
0.00840009
9.82106e-08
0.0084001
3.68325e-07
0.00840041
5.53024e-07
0.00840041
2.18719e-06
0.0084024
2.8384e-06
0.00840167
1.38934e-05
0.00841616
1.35998e-05
0.00840896
9.30373e-05
0.00852883
0.000103457
0.00859446
0.000690812
0.00947097
0.0016895
0.0110243
0.00734158
0.0109426
0.00932105
0.0106886
0.00948179
0.0104027
0.00920847
0.0103242
0.00887247
0.0103851
0.00869521
0.0104953
0.00850801
0.00819283
0.0106061
0.00840003
9.88045e-11
0.00840003
5.77998e-10
0.00840003
2.11031e-09
0.00840004
5.5097e-09
0.00840004
1.48763e-08
0.00840007
3.43581e-08
0.00840008
8.745e-08
0.00840025
1.96167e-07
0.00840029
5.09101e-07
0.0084014
1.07814e-06
0.00840105
3.17738e-06
0.00840891
6.05014e-06
0.00840178
2.06281e-05
0.00845455
4.03732e-05
0.0084109
0.000146686
0.00873457
0.000367299
0.00889895
0.0015242
0.0109485
0.00529031
0.0111727
0.00909579
0.0110868
0.00956646
0.0108404
0.00945274
0.0106687
0.00904211
0.0106317
0.00872935
0.010677
0.00845591
0.00811525
0.0107473
0.00840003
1.21004e-10
0.00840003
3.55986e-10
0.00840003
2.06325e-09
0.00840003
3.62874e-09
0.00840003
1.42397e-08
0.00840004
2.301e-08
0.00840005
8.38547e-08
0.00840011
1.32307e-07
0.00840014
4.80683e-07
0.00840048
7.37209e-07
0.00840082
2.81099e-06
0.0084029
3.98013e-06
0.00840576
1.7751e-05
0.00842355
2.21881e-05
0.00845129
0.000118904
0.00861773
0.000199166
0.00927994
0.000865565
0.0116521
0.00291234
0.0118028
0.00894404
0.0117051
0.00966341
0.0113933
0.00976321
0.0111178
0.0093153
0.0109828
0.00886287
0.0109294
0.0085023
0.0081208
0.0109165
0.00840003
4.07594e-11
0.00840003
4.52535e-10
0.00840003
1.02629e-09
0.00840003
4.07766e-09
0.00840004
7.40831e-09
0.00840004
2.54018e-08
0.00840007
4.4175e-08
0.00840006
1.46989e-07
0.00840029
2.52515e-07
0.00840018
8.41878e-07
0.00840156
1.42751e-06
0.00840057
4.9495e-06
0.00841033
7.96618e-06
0.00840111
3.13253e-05
0.00847128
4.86103e-05
0.00845071
0.000219292
0.00884899
0.000467724
0.00985925
0.00190033
0.0116839
0.00711651
0.0118118
0.00953448
0.0117248
0.00984895
0.011408
0.0096302
0.0112857
0.00898325
0.0112096
0.00857359
0.0081749
0.0111491
0.00840003
6.21895e-11
0.00840003
2.17515e-10
0.00840003
1.13949e-09
0.00840003
2.17885e-09
0.00840003
7.95642e-09
0.00840004
1.39069e-08
0.00840004
4.72593e-08
0.00840011
8.11767e-08
0.00840009
2.72022e-07
0.00840046
4.6498e-07
0.00840032
1.56749e-06
0.00840262
2.65002e-06
0.00840117
9.38084e-06
0.00841763
1.49075e-05
0.0084038
6.22395e-05
0.00852619
9.70303e-05
0.00851647
0.000476858
0.0092361
0.00118029
0.0117863
0.00456314
0.012029
0.00928966
0.0120519
0.0098242
0.0118952
0.00978505
0.0115515
0.00932467
0.0114396
0.00868218
0.00823869
0.0113696
0.00840003
3.16231e-11
0.00840003
2.1199e-10
0.00840003
6.68514e-10
0.00840003
1.99182e-09
0.00840003
4.76199e-09
0.00840004
1.25299e-08
0.00840005
2.83564e-08
0.00840006
7.26953e-08
0.00840017
1.62478e-07
0.00840022
4.15048e-07
0.00840086
9.25838e-07
0.00840113
2.37706e-06
0.00840519
5.32764e-06
0.00840606
1.39735e-05
0.00843651
3.18403e-05
0.00844396
8.92816e-05
0.00869242
0.000228388
0.00911233
0.00075968
0.011293
0.0023809
0.0124691
0.00811086
0.0124607
0.00983043
0.0122495
0.00999403
0.011863
0.00970845
0.011688
0.00885446
0.00836113
0.0115599
0.00840003
2.02963e-11
0.00840003
1.59575e-10
0.00840003
4.9683e-10
0.00840003
1.4747e-09
0.00840003
3.53077e-09
0.00840004
9.18287e-09
0.00840004
2.08786e-08
0.00840006
5.27804e-08
0.00840011
1.18457e-07
0.00840022
2.98078e-07
0.00840048
6.6471e-07
0.00840116
1.69529e-06
0.00840283
3.66206e-06
0.00840659
1.01765e-05
0.00841855
1.99069e-05
0.00843962
6.80052e-05
0.00853441
0.000133657
0.00874546
0.000547981
0.00963878
0.00148688
0.0120646
0.0056813
0.0124826
0.00940988
0.0125932
0.00988112
0.012491
0.00980831
0.0120547
0.00928764
0.00859814
0.0118142
0.00840003
9.05432e-12
0.00840003
1.38083e-10
0.00840003
3.00916e-10
0.00840003
1.22118e-09
0.00840003
2.19039e-09
0.00840003
7.53942e-09
0.00840004
1.3058e-08
0.00840005
4.33012e-08
0.00840009
7.44567e-08
0.00840015
2.45251e-07
0.00840039
4.19324e-07
0.00840069
1.39281e-06
0.00840203
2.32693e-06
0.00840402
8.16083e-06
0.00841143
1.24952e-05
0.00842842
5.09097e-05
0.00848572
7.6338e-05
0.00868586
0.000347409
0.00940039
0.000771833
0.0122379
0.00284204
0.0128922
0.00875215
0.0128887
0.00988205
0.0126947
0.00999987
0.0123558
0.00962372
0.00884051
0.0121104
0.00840003
1.14292e-11
0.00840003
6.93235e-11
0.00840003
2.52522e-10
0.00840003
6.58293e-10
0.00840003
1.78241e-09
0.00840003
4.11148e-09
0.00840004
1.04739e-08
0.00840006
2.35417e-08
0.00840007
5.90791e-08
0.00840019
1.31977e-07
0.00840027
3.30353e-07
0.00840093
7.36057e-07
0.00840138
1.87453e-06
0.00840547
4.06608e-06
0.00840666
1.12645e-05
0.00843462
2.29786e-05
0.00843742
7.32676e-05
0.00862961
0.00015523
0.00879697
0.000603709
0.00997731
0.00166028
0.0126456
0.00607966
0.0129857
0.00953957
0.0131205
0.00986254
0.0128759
0.00986562
0.00923962
0.0124746
0.00840003
9.07876e-12
0.00840003
4.91472e-11
0.00840003
1.80588e-10
0.00840003
4.67243e-10
0.00840003
1.26641e-09
0.00840003
2.92164e-09
0.00840004
7.44623e-09
0.00840004
1.67507e-08
0.00840006
4.21109e-08
0.0084001
9.41151e-08
0.00840019
2.36113e-07
0.0084004
5.25996e-07
0.00840094
1.32542e-06
0.00840207
2.93836e-06
0.00840575
7.56324e-06
0.00841205
1.66568e-05
0.00843949
4.56736e-05
0.00848879
0.000105867
0.00875906
0.000332701
0.00947502
0.000943462
0.0122355
0.00331437
0.0132036
0.00856874
0.0133227
0.00974123
0.0132065
0.00997959
0.00961077
0.0128321
0.00840003
8.12347e-12
0.00840003
2.75213e-11
0.00840003
1.41452e-10
0.00840003
2.77996e-10
0.00840003
9.7733e-10
0.00840003
1.75993e-09
0.00840003
5.71979e-09
0.00840004
1.01278e-08
0.00840005
3.22981e-08
0.00840009
5.69783e-08
0.00840014
1.81095e-07
0.00840035
3.18303e-07
0.00840065
1.01673e-06
0.00840182
1.77253e-06
0.00840357
5.79155e-06
0.0084104
9.82238e-06
0.00842128
3.46793e-05
0.00846909
5.79716e-05
0.00857376
0.000227457
0.00899867
0.000518615
0.0104162
0.00189487
0.0128855
0.00609562
0.0132606
0.00936364
0.0135027
0.00973535
0.00978529
0.0133264
0.00840003
3.50642e-12
0.00840003
2.39571e-11
0.00840003
7.53307e-11
0.00840003
2.24062e-10
0.00840003
5.33755e-10
0.00840003
1.39589e-09
0.00840003
3.14362e-09
0.00840004
7.9876e-09
0.00840005
1.77579e-08
0.00840006
4.48308e-08
0.00840014
9.93136e-08
0.00840021
2.50595e-07
0.00840067
5.54362e-07
0.00840104
1.40444e-06
0.00840372
3.10353e-06
0.00840552
7.99426e-06
0.00842248
1.77294e-05
0.00843236
4.78432e-05
0.00854888
0.000111121
0.00872808
0.000338187
0.0096519
0.000970964
0.0124785
0.00326009
0.0134974
0.00834223
0.0135924
0.00963944
0.00977652
0.0135999
0.00840003
2.10558e-12
0.00840003
1.63553e-11
0.00840003
5.09344e-11
0.00840003
1.5107e-10
0.00840003
3.60801e-10
0.00840003
9.36238e-10
0.00840003
2.12042e-09
0.00840003
5.34292e-09
0.00840004
1.19529e-08
0.00840006
2.99285e-08
0.00840009
6.67163e-08
0.00840017
1.67026e-07
0.00840035
3.71464e-07
0.00840082
9.33127e-07
0.00840185
2.07065e-06
0.00840459
5.25689e-06
0.00841065
1.16528e-05
0.00842786
3.05065e-05
0.00846896
7.04022e-05
0.00860666
0.000198016
0.0090208
0.000558129
0.0103347
0.00194152
0.0130586
0.00562041
0.0135846
0.0091108
0.0095945
0.0137639
0.00840003
9.97602e-13
0.00840003
1.21663e-11
0.00840003
2.89423e-11
0.00840003
1.08379e-10
0.00840003
2.08125e-10
0.00840003
6.64206e-10
0.00840003
1.22446e-09
0.00840003
3.76172e-09
0.00840004
6.87983e-09
0.00840005
2.09122e-08
0.00840008
3.81829e-08
0.00840013
1.1568e-07
0.00840029
2.10693e-07
0.00840058
6.39157e-07
0.00840149
1.15726e-06
0.00840316
3.55864e-06
0.00840852
6.29523e-06
0.00841825
2.06842e-05
0.00845362
3.45746e-05
0.00852239
0.000129466
0.00882388
0.00025395
0.0098151
0.000954057
0.012598
0.00282571
0.0138543
0.0078528
0.00953951
0.0139092
0.00840003
1.26249e-12
0.00840003
5.24335e-12
0.00840003
2.41782e-11
0.00840003
5.14548e-11
0.00840003
1.67794e-10
0.00840003
3.22418e-10
0.00840003
9.77373e-10
0.00840003
1.83849e-09
0.00840003
5.47247e-09
0.00840004
1.02449e-08
0.00840005
3.03567e-08
0.00840011
5.67151e-08
0.00840015
1.68105e-07
0.00840048
3.13158e-07
0.00840069
9.32485e-07
0.00840252
1.72971e-06
0.00840356
5.22034e-06
0.00841452
9.66099e-06
0.0084192
3.0114e-05
0.00848895
5.72458e-05
0.00855249
0.000192027
0.00903136
0.000461575
0.0102996
0.00157924
0.0132144
0.00492875
0.00875979
0.0139882
0.00840003
5.86688e-13
0.00840003
4.01413e-12
0.00840003
1.26131e-11
0.00840003
3.7463e-11
0.00840003
8.9154e-11
0.00840003
2.32239e-10
0.00840003
5.21994e-10
0.00840003
1.3188e-09
0.00840003
2.92477e-09
0.00840004
7.33345e-09
0.00840005
1.62051e-08
0.00840007
4.05704e-08
0.00840015
8.9494e-08
0.00840023
2.24338e-07
0.00840067
4.94335e-07
0.00840115
1.2455e-06
0.00840362
2.74344e-06
0.00840624
6.99019e-06
0.00842076
1.56504e-05
0.00843748
4.0277e-05
0.00853251
9.71426e-05
0.00872744
0.000265504
0.00953523
0.000774109
0.0119719
0.00248384
0.00683455
0.0138873
0.00840003
3.33225e-13
0.00840003
2.58093e-12
0.00840003
8.03721e-12
0.00840003
2.38532e-11
0.00840003
5.68469e-11
0.00840003
1.47216e-10
0.00840003
3.32272e-10
0.00840003
8.34249e-10
0.00840003
1.85911e-09
0.00840003
4.63228e-09
0.00840004
1.02899e-08
0.00840006
2.55878e-08
0.00840009
5.67652e-08
0.00840017
1.41152e-07
0.00840035
3.12634e-07
0.00840082
7.79324e-07
0.00840184
1.72237e-06
0.00840446
4.33507e-06
0.00841059
9.52244e-06
0.00842581
2.49063e-05
0.00846843
5.4547e-05
0.00857791
0.000156051
0.00895457
0.000397874
0.0100602
0.00137396
0.00378136
0.0131075
0.00840003
1.51087e-13
0.00840003
1.82242e-12
0.00840003
4.44785e-12
0.00840003
1.62579e-11
0.00840003
3.19637e-11
0.00840003
9.94087e-11
0.00840003
1.87501e-10
0.00840003
5.60819e-10
0.00840003
1.04945e-09
0.00840003
3.10421e-09
0.00840004
5.80638e-09
0.00840005
1.70999e-08
0.00840007
3.20187e-08
0.00840012
9.40835e-08
0.00840025
1.7621e-07
0.00840051
5.17927e-07
0.00840127
9.67696e-07
0.00840273
2.86482e-06
0.00840695
5.28596e-06
0.00841544
1.6357e-05
0.00844131
2.85745e-05
0.00849576
0.00010131
0.0087092
0.000184081
0.00935502
0.000726814
0.00193389
0.011201
0.00840003
1.49191e-13
0.00840003
8.61127e-13
0.00840003
3.1686e-12
0.00840003
8.18884e-12
0.00840003
2.21907e-11
0.00840003
5.07201e-11
0.00840003
1.28878e-10
0.00840003
2.86581e-10
0.00840003
7.16488e-10
0.00840003
1.58306e-09
0.00840003
3.93887e-09
0.00840004
8.6905e-09
0.00840005
2.1579e-08
0.0084001
4.759e-08
0.00840016
1.18046e-07
0.00840041
2.60154e-07
0.00840073
6.45631e-07
0.00840218
1.42186e-06
0.00840389
3.55421e-06
0.00841244
7.80431e-06
0.00842075
2.0136e-05
0.0084778
4.42565e-05
0.00853958
0.000121648
0.0089639
0.000302125
0.000975312
0.00992085
0.00840003
1.16508e-13
0.00840003
4.46013e-13
0.00840003
2.09212e-12
0.00840003
4.43486e-12
0.00840003
1.43944e-11
0.00840003
2.77139e-11
0.00840003
8.30523e-11
0.00840003
1.56713e-10
0.00840003
4.59868e-10
0.00840003
8.64286e-10
0.00840003
2.51948e-09
0.00840004
4.73388e-09
0.00840004
1.37584e-08
0.00840007
2.58548e-08
0.00840011
7.5026e-08
0.00840023
1.40804e-07
0.00840046
4.09004e-07
0.00840112
7.64124e-07
0.00840242
2.24755e-06
0.00840612
4.0886e-06
0.00841333
1.28728e-05
0.00843598
2.15782e-05
0.00847749
7.97903e-05
0.00864375
0.000135625
0.000556791
0.00906117
0.00840003
4.72971e-14
0.00840003
3.23939e-13
0.00840003
1.02407e-12
0.00840003
3.02163e-12
0.00840003
7.20871e-12
0.00840003
1.86173e-11
0.00840003
4.18657e-11
0.00840003
1.04734e-10
0.00840003
2.32159e-10
0.00840003
5.76062e-10
0.00840003
1.27212e-09
0.00840003
3.14971e-09
0.00840004
6.94647e-09
0.00840005
1.71914e-08
0.00840009
3.78757e-08
0.00840013
9.37845e-08
0.00840034
2.0631e-07
0.00840058
5.11918e-07
0.00840171
1.12564e-06
0.00840297
2.8105e-06
0.00840964
6.18998e-06
0.00841526
1.58688e-05
0.00846007
3.49415e-05
0.00849868
9.65576e-05
0.000228566
0.00882649
0.00840003
2.47969e-14
0.00840003
1.93138e-13
0.00840003
6.01337e-13
0.00840003
1.78272e-12
0.00840003
4.24006e-12
0.00840003
1.09298e-11
0.00840003
2.45774e-11
0.00840003
6.13016e-11
0.00840003
1.35965e-10
0.00840003
3.36241e-10
0.00840003
7.43098e-10
0.00840003
1.83312e-09
0.00840004
4.04704e-09
0.00840004
9.9738e-09
0.00840006
2.20094e-08
0.0084001
5.4214e-08
0.00840018
1.19557e-07
0.0084004
2.94556e-07
0.00840088
6.48692e-07
0.00840207
1.60328e-06
0.00840474
3.52013e-06
0.00841171
8.84635e-06
0.00842737
1.92389e-05
0.00847241
5.12266e-05
0.000113385
0.00858738
0.00840003
1.0794e-14
0.00840003
1.25398e-13
0.00840003
3.1292e-13
0.00840003
1.11944e-12
0.00840003
2.23833e-12
0.00840003
6.80108e-12
0.00840003
1.30123e-11
0.00840003
3.7977e-11
0.00840003
7.19525e-11
0.00840003
2.07657e-10
0.00840003
3.92683e-10
0.00840003
1.12903e-09
0.00840003
2.13501e-09
0.00840004
6.12774e-09
0.00840005
1.15905e-08
0.00840007
3.3239e-08
0.00840013
6.28334e-08
0.00840024
1.80331e-07
0.00840055
3.39948e-07
0.00840116
9.79826e-07
0.00840284
1.83596e-06
0.00840629
5.36933e-06
0.00841555
9.94005e-06
0.00843668
2.99507e-05
5.75906e-05
0.0084922
0.00840003
9.4318e-15
0.00840003
5.59516e-14
0.00840003
2.03336e-13
0.00840003
5.29956e-13
0.00840003
1.42153e-12
0.00840003
3.25981e-12
0.00840003
8.19102e-12
0.00840003
1.82336e-11
0.00840003
4.50519e-11
0.00840003
9.95195e-11
0.00840003
2.44757e-10
0.00840003
5.39459e-10
0.00840003
1.32503e-09
0.00840004
2.91765e-09
0.00840004
7.16563e-09
0.00840006
1.57644e-08
0.00840008
3.87455e-08
0.00840018
8.51324e-08
0.0084003
2.09614e-07
0.00840082
4.5989e-07
0.00840151
1.13727e-06
0.00840438
2.49044e-06
0.00840805
6.21665e-06
0.00842417
1.37594e-05
3.49009e-05
0.00844672
0.00840003
5.57318e-15
0.00840003
3.02686e-14
0.00840003
1.11175e-13
0.00840003
2.86698e-13
0.00840003
7.68809e-13
0.00840003
1.75719e-12
0.00840003
4.39544e-12
0.00840003
9.75729e-12
0.00840003
2.39593e-11
0.00840003
5.27595e-11
0.00840003
1.2879e-10
0.00840003
2.82832e-10
0.00840003
6.88447e-10
0.00840003
1.50962e-09
0.00840004
3.66634e-09
0.00840004
8.02581e-09
0.00840006
1.94555e-08
0.00840011
4.24701e-08
0.00840021
1.02906e-07
0.00840045
2.2367e-07
0.00840102
5.43654e-07
0.00840232
1.17559e-06
0.00840554
2.88596e-06
0.00841308
6.20064e-06
1.55687e-05
0.00843221
0.00840003
3.89559e-15
0.00840003
1.22107e-14
0.00840003
6.66411e-14
0.00840003
1.24943e-13
0.00840003
4.53492e-13
0.00840003
7.71417e-13
0.00840003
2.57166e-12
0.00840003
4.24278e-12
0.00840003
1.39294e-11
0.00840003
2.25746e-11
0.00840003
7.44369e-11
0.00840003
1.18675e-10
0.00840003
3.95608e-10
0.00840003
6.19628e-10
0.00840003
2.09494e-09
0.00840004
3.21493e-09
0.00840005
1.10586e-08
0.00840007
1.65547e-08
0.00840012
5.82429e-08
0.00840025
8.43982e-08
0.00840048
3.06782e-07
0.00840123
4.23425e-07
0.00840244
1.63407e-06
0.00840657
2.00723e-06
9.21848e-06
0.00841273
0.00840003
1.25114e-15
0.00840003
7.86578e-15
0.00840003
2.63746e-14
0.00840003
7.42352e-14
0.00840003
1.82993e-13
0.00840003
4.5006e-13
0.00840003
1.03574e-12
0.00840003
2.44444e-12
0.00840003
5.54061e-12
0.00840003
1.28511e-11
0.00840003
2.90941e-11
0.00840003
6.66821e-11
0.00840003
1.51512e-10
0.00840003
3.43093e-10
0.00840003
7.84406e-10
0.00840003
1.75087e-09
0.00840004
4.03781e-09
0.00840005
8.84985e-09
0.00840008
2.06578e-08
0.00840012
4.42218e-08
0.00840032
1.05014e-07
0.00840051
2.19664e-07
0.0084016
5.31554e-07
0.00840241
1.0987e-06
2.71716e-06
0.00840891
0.00840003
5.61644e-16
0.00840003
4.64003e-15
0.00840003
1.35844e-14
0.00840003
4.07154e-14
0.00840003
9.42483e-14
0.00840003
2.42761e-13
0.00840003
5.29486e-13
0.00840003
1.31995e-12
0.00840003
2.81377e-12
0.00840003
6.98246e-12
0.00840003
1.46742e-11
0.00840003
3.66089e-11
0.00840003
7.58867e-11
0.00840003
1.91375e-10
0.00840003
3.90563e-10
0.00840003
9.99897e-10
0.00840003
2.00385e-09
0.00840004
5.22573e-09
0.00840005
1.0247e-08
0.00840006
2.72561e-08
0.00840011
5.16656e-08
0.00840018
1.36278e-07
0.00840043
2.58616e-07
0.00840079
6.21676e-07
9.79995e-07
0.0084024
0.00840003
-3.39409e-16
0.00840003
3.59722e-15
0.00840003
2.36275e-15
0.00840003
2.96364e-14
0.00840003
1.84645e-14
0.00840003
1.73997e-13
0.00840003
1.00035e-13
0.00840003
9.45592e-13
0.00840003
4.84566e-13
0.00840003
5.03102e-12
0.00840003
2.32689e-12
0.00840003
2.65685e-11
0.00840003
8.99009e-12
0.00840003
1.39925e-10
0.00840003
2.81661e-11
0.00840003
7.36452e-10
0.00840003
3.4901e-11
0.00840003
3.88559e-09
0.00840004
-5.24639e-10
0.00840005
2.06784e-08
0.00840011
-7.69889e-09
0.00840011
1.14768e-07
0.00840045
-9.57618e-08
0.00840018
7.78511e-07
-1.50055e-06
0.00840264
0.00840003
7.1701e-16
0.00840003
-9.54179e-16
0.00840003
6.27116e-15
0.00840003
-2.55433e-15
0.00840003
3.99015e-14
0.00840003
-1.38677e-14
0.00840003
2.26781e-13
0.00840003
-9.13505e-14
0.00840003
1.25577e-12
0.00840003
-6.49793e-13
0.00840003
6.89972e-12
0.00840003
-4.71775e-12
0.00840003
3.7899e-11
0.00840003
-3.17672e-11
0.00840003
2.08766e-10
0.00840003
-2.04835e-10
0.00840003
1.15795e-09
0.00840003
-1.29239e-09
0.00840003
6.5228e-09
0.00840005
-8.1349e-09
0.0084
3.79486e-08
0.00840016
-5.45118e-08
0.00839976
2.54995e-07
0.00840104
-4.9197e-07
2.19668e-06
0.00839693
0.00840003
7.90654e-17
0.00840003
-2.18413e-16
0.00840003
8.78719e-16
0.00840003
-3.03053e-15
0.00840003
5.69708e-15
0.00840003
-2.03803e-14
0.00840003
3.0645e-14
0.00840003
-1.29889e-13
0.00840003
1.63851e-13
0.00840003
-8.25025e-13
0.00840003
7.46624e-13
0.00840003
-5.20613e-12
0.00840003
3.19182e-12
0.00840003
-3.26494e-11
0.00840003
1.21046e-11
0.00840003
-2.03886e-10
0.00840003
3.33267e-11
0.00840003
-1.26762e-09
0.00840004
-1.25603e-11
0.00840003
-7.78242e-09
0.00840007
-7.59148e-10
0.00840005
-4.25118e-08
0.00840029
-7.88923e-09
0.00839988
-1.98907e-07
1.53146e-07
0.00840191
0.00840003
0.00840003
0.00840003
0.00840003
0.00840003
0.00840003
0.00840003
0.00840003
0.00840003
0.00840003
0.00840003
0.00840003
0.00840003
0.00840003
0.00840003
0.00840003
0.00840003
0.00840003
0.00840003
0.00840002
0.00840001
0.00839995
0.00839993
0.0083996
0.00839963
0.00456455
0.00418586
0.00275339
0.00176422
0.00169234
0.0010298
0.000829468
0.000712385
-0.000443056
0.00123075
-0.00118609
0.000672821
-0.00173956
0.000543442
-0.00208631
0.000350118
-0.00231831
0.000221968
-0.00244608
0.000121658
-0.00249417
4.49693e-05
-0.00252404
2.75866e-05
-0.0025621
3.88251e-05
-0.00261322
5.57672e-05
-0.00267311
6.44055e-05
-0.0027331
6.43634e-05
-0.00279058
6.29134e-05
-0.00284798
6.17754e-05
-0.00290387
5.9481e-05
-0.0029565
5.75341e-05
-0.00300531
5.30725e-05
-0.0030445
4.4417e-05
-0.00307719
3.76516e-05
-0.00311377
3.94696e-05
-0.00314487
3.44941e-05
-0.00316624
2.4615e-05
-0.00317894
1.43856e-05
-0.00317669
-1.85807e-06
-0.00314776
-3.03266e-05
-0.00307764
-7.26534e-05
-0.00296573
-0.000115419
-0.00281402
-0.00015564
-0.00262674
-0.000191269
-0.00240796
-0.000222843
-0.00216513
-0.000246293
-0.00190916
-0.000259633
-0.00164373
-0.000268443
-0.00137754
-0.00026928
-0.00110253
-0.000278449
-0.000826262
-0.000279353
-0.000552882
-0.000276393
-0.000278065
-0.000277745
1.06852e-05
-0.000291369
0.000277791
-0.000269576
0.000527616
-0.000252048
0.00076783
-0.000242275
0.000999085
-0.000233102
0.00122011
-0.000222767
0.00143074
-0.000212211
0.00163115
-0.000201949
0.00182566
-0.000195983
0.00201682
-0.000192683
0.00219979
-0.000184449
0.00237242