/*--------------------------------*- C++ -*----------------------------------*\
| =========                 |                                                 |
| \\      /  F ield         | OpenFOAM: The Open Source CFD Toolbox           |
|  \\    /   O peration     | Version:  2112                                  |
|   \\  /    A nd           | Website:  www.openfoam.com                      |
|    \\/     M anipulation  |                                                 |
\*---------------------------------------------------------------------------*/
FoamFile
{
    version     2.0;
    format      ascii;
    arch        "LSB;label=32;scalar=64";
    class       volScalarField;
    location    "5";
    object      T;
}
// * * * * * * * * * * * * * * * * * * * * * * * * * * * * * * * * * * * * * //

dimensions      [0 0 0 1 0 0 0];

internalField   nonuniform List<scalar> 
5250
(
1.00001
1.00002
1.00006
1.00011
1.00035
1.00065
1.00191
1.00401
1.0103
1.02732
1.06134
1.1892
1.43462
2.19131
2.65358
2.74743
2.74208
2.73973
2.75394
2.76622
2.7783
2.78473
2.79146
2.79265
2.79311
1.00001
1.00002
1.00006
1.00011
1.00035
1.00064
1.00188
1.00394
1.01015
1.02677
1.06027
1.18543
1.42599
2.17444
2.6485
2.74721
2.74175
2.73875
2.75285
2.7649
2.77679
2.78301
2.78934
2.78997
2.78997
1.00001
1.00002
1.00006
1.0001
1.00034
1.00062
1.00184
1.00379
1.00987
1.02557
1.05807
1.17733
1.40727
2.13598
2.63468
2.74516
2.73977
2.73559
2.74998
2.76183
2.77411
2.78054
2.78705
2.78794
2.78747
1.00001
1.00002
1.00005
1.0001
1.00032
1.00059
1.00177
1.00357
1.00947
1.0238
1.05483
1.16528
1.37932
2.07413
2.61174
2.74065
2.73578
2.72919
2.74374
2.75563
2.76651
2.77445
2.78148
2.78229
2.78351
1.00001
1.00001
1.00005
1.00009
1.0003
1.00055
1.00168
1.0033
1.00895
1.02161
1.05079
1.15029
1.34441
1.98924
2.57977
2.73311
2.72829
2.72041
2.73636
2.74864
2.76082
2.76642
2.77507
2.77666
2.77516
1.00001
1.00001
1.00005
1.00009
1.00028
1.00051
1.00158
1.003
1.00839
1.01917
1.04638
1.1336
1.30543
1.88473
2.53319
2.71721
2.71179
2.70291
2.72067
2.732
2.74922
2.75409
2.76085
2.7647
2.76629
1.00001
1.00001
1.00004
1.00008
1.00026
1.00046
1.00146
1.00273
1.00784
1.01715
1.04286
1.11892
1.27506
1.73627
2.54558
2.70074
2.69417
2.68672
2.70771
2.7164
2.73324
2.74274
2.74831
2.7492
2.74727
1.00001
1.00001
1.00004
1.00007
1.00024
1.00043
1.00135
1.00249
1.00741
1.01542
1.04011
1.10613
1.24961
1.68837
2.53702
2.68772
2.66971
2.67102
2.6828
2.69732
2.7108
2.71936
2.72686
2.72701
2.7244
1
1.00001
1.00004
1.00007
1.00022
1.00039
1.00123
1.00225
1.00684
1.0138
1.03693
1.09432
1.22445
1.63032
2.49203
2.66641
2.66569
2.66313
2.66518
2.67724
2.69088
2.69689
2.69882
2.69263
2.67148
1
1.00001
1.00003
1.00006
1.00018
1.00034
1.00105
1.00199
1.00578
1.01236
1.03184
1.08646
1.1951
1.58072
2.42295
2.63191
2.65868
2.65072
2.64646
2.65387
2.65951
2.66557
2.66186
2.64551
2.59194
1
1.00001
1.00002
1.00006
1.00011
1.00032
1.0007
1.00172
1.00455
1.01018
1.02969
1.06198
1.20309
1.4603
2.2217
2.60002
2.66037
2.64753
2.63379
2.63279
2.63402
2.62984
2.61227
2.56506
2.37376
1
1.00001
1.00002
1.00004
1.00014
1.00026
1.00078
1.00153
1.00422
1.00956
1.0234
1.06552
1.14211
1.44586
2.13958
2.51301
2.64644
2.63791
2.61964
2.6118
2.60245
2.59251
2.56564
2.50705
2.31066
1
1.00001
1.00002
1.00004
1.00012
1.00022
1.00072
1.0013
1.00404
1.00773
1.02195
1.05027
1.12367
1.34122
1.97205
2.43979
2.62047
2.61691
2.60866
2.5944
2.57957
2.54901
2.51384
2.46003
2.31218
1
1.00001
1.00002
1.00003
1.0001
1.00019
1.0006
1.00108
1.00337
1.00637
1.0185
1.03983
1.10388
1.26203
1.78454
2.35222
2.57946
2.57384
2.57917
2.5735
2.55933
2.52999
2.47345
2.42607
2.31836
1
1
1.00001
1.00003
1.00008
1.00015
1.00048
1.00087
1.0027
1.00516
1.01425
1.03346
1.07897
1.22648
1.56701
2.28988
2.54894
2.552
2.54723
2.54194
2.53112
2.50774
2.44766
2.39483
2.31539
1
1
1.00001
1.00002
1.00007
1.00012
1.00038
1.00069
1.00205
1.00416
1.01084
1.02749
1.06256
1.18871
1.43096
2.12004
2.48575
2.54261
2.52606
2.51826
2.50035
2.48564
2.44347
2.37626
2.30716
1
1
1.00001
1.00002
1.00005
1.0001
1.00031
1.00055
1.00171
1.00325
1.00901
1.02076
1.04976
1.14399
1.32843
1.92666
2.37397
2.51959
2.5143
2.49921
2.47337
2.44262
2.42115
2.37038
2.3025
1
1
1.00001
1.00001
1.00004
1.00007
1.00024
1.00043
1.00133
1.00245
1.00724
1.01499
1.03871
1.10108
1.23518
1.62244
2.25734
2.45761
2.48232
2.47929
2.46343
2.42799
2.39246
2.35394
2.29818
1
1
1.00001
1.00001
1.00003
1.00006
1.00018
1.00032
1.00099
1.00186
1.00536
1.01136
1.02896
1.07774
1.1723
1.51217
2.20199
2.39816
2.43799
2.43385
2.42873
2.41184
2.37731
2.33585
2.28719
1
1
1
1.00001
1.00002
1.00005
1.0001
1.0003
1.00056
1.00156
1.00345
1.00843
1.02267
1.05004
1.15094
1.33891
1.94661
2.33815
2.42387
2.41937
2.40307
2.3833
2.36017
2.32577
2.28182
1
1
1
1.00001
1.00001
1.00004
1.00007
1.00023
1.00042
1.00131
1.00243
1.00714
1.01479
1.03806
1.09705
1.23338
1.58693
2.19557
2.39024
2.3897
2.37997
2.35686
2.32678
2.3001
2.27078
1
1
1
1
1.00001
1.00002
1.00007
1.00013
1.00039
1.00074
1.00218
1.00435
1.01163
1.0277
1.06533
1.17792
1.4597
2.00417
2.32557
2.37185
2.3648
2.34759
2.31451
2.27973
2.24703
1
1
1
1
1.00001
1.00002
1.00004
1.00012
1.00022
1.00068
1.00129
1.00377
1.00767
1.02025
1.04998
1.11654
1.32249
1.8738
2.18291
2.31807
2.33009
2.32428
2.30752
2.27453
2.23715
1
1
1
1
1.00001
1.00001
1.00004
1.00007
1.0002
1.00037
1.00112
1.00212
1.00607
1.01275
1.03254
1.08352
1.19308
1.51471
2.09752
2.26525
2.28989
2.28712
2.27996
2.26334
2.23199
1
1
1
1
1
1.00001
1.00003
1.00005
1.00014
1.00026
1.00079
1.00145
1.00427
1.00866
1.02239
1.05743
1.12716
1.37356
1.91534
2.18827
2.27052
2.26712
2.25415
2.23673
2.21332
1
1
1
1
1
1.00001
1.00002
1.00003
1.0001
1.00018
1.00054
1.00099
1.003
1.00569
1.01614
1.03442
1.08884
1.21419
1.6273
2.02235
2.2208
2.24567
2.24088
2.22583
2.20124
1
1
1
1
1
1
1.00001
1.00003
1.00005
1.00015
1.00027
1.00082
1.00156
1.00431
1.00936
1.02293
1.06153
1.13152
1.39869
1.92226
2.14554
2.20255
2.20953
2.20123
2.18937
1
1
1
1
1
1
1.00001
1.00002
1.00003
1.0001
1.00019
1.00058
1.00104
1.00319
1.00598
1.01704
1.03629
1.09207
1.22719
1.63717
2.03408
2.17937
2.18447
2.1782
2.16386
1
1
1
1
1
1
1
1.00001
1.00002
1.00007
1.00012
1.00037
1.00068
1.00206
1.00387
1.01104
1.02319
1.05872
1.14438
1.37885
1.82436
2.11173
2.16637
2.16459
2.15276
1
1
1
1
1
1
1
1.00001
1.00002
1.00003
1.0001
1.00018
1.00055
1.00103
1.00303
1.00591
1.01612
1.03567
1.08852
1.21876
1.60123
1.9634
2.12714
2.13883
2.13526
1
1
1
1
1
1
1
1
1.00001
1.00002
1.00007
1.00012
1.00036
1.00065
1.00198
1.00367
1.01059
1.02176
1.05541
1.13477
1.34304
1.78165
2.05066
2.11644
2.11855
1
1
1
1
1
1
1
1
1.00001
1.00001
1.00004
1.00007
1.00022
1.0004
1.0012
1.00222
1.00641
1.01292
1.03321
1.08167
1.18703
1.47812
1.89232
2.07046
2.08713
1
1
1
1
1
1
1
1
1
1.00001
1.00002
1.00006
1.00011
1.00031
1.00059
1.00172
1.00331
1.00919
1.0195
1.04907
1.11846
1.30714
1.68481
1.98162
2.06369
1
1
1
1
1
1
1
1
1
1
1.00001
1.00003
1.00008
1.00015
1.00045
1.00084
1.00242
1.00474
1.01294
1.02736
1.07142
1.16117
1.47289
1.80595
2.01066
1
1
1
1
1
1
1
1
1
1
1.00001
1.00002
1.00005
1.00009
1.00028
1.0005
1.00153
1.0028
1.00815
1.01628
1.042
1.10036
1.24182
1.58993
1.89025
1
1
1
1
1
1
1
1
1
1
1.00001
1.00001
1.00003
1.00005
1.00016
1.0003
1.00089
1.00163
1.00481
1.00927
1.02472
1.05732
1.13174
1.34764
1.75811
1
1
1
1
1
1
1
1
1
1
1
1.00001
1.00001
1.00004
1.00007
1.00022
1.0004
1.00117
1.00221
1.00612
1.01283
1.03166
1.08013
1.17556
1.47694
1
1
1
1
1
1
1
1
1
1
1
1
1.00001
1.00002
1.00004
1.00013
1.00023
1.00069
1.00127
1.00364
1.00731
1.01849
1.04601
1.09932
1.2858
1
1
1
1
1
1
1
1
1
1
1
1
1.00001
1.00001
1.00003
1.00006
1.00017
1.00031
1.00091
1.00171
1.00484
1.0098
1.02496
1.05963
1.13742
1
1
1
1
1
1
1
1
1
1
1
1
1
1.00001
1.00002
1.00003
1.0001
1.00018
1.00053
1.00096
1.00285
1.00534
1.01471
1.03131
1.07519
1
1
1
1
1
1
1
1
1
1
1
1
1
1
1.00001
1.00002
1.00006
1.0001
1.0003
1.00055
1.00161
1.00301
1.00844
1.01708
1.04395
1
1
1
1
1
1
1
1
1
1
1
1
1
1
1
1.00001
1.00002
1.00007
1.00013
1.00039
1.00073
1.00208
1.00405
1.01095
1.02277
1
1
1
1
1
1
1
1
1
1
1
1
1
1
1
1.00001
1.00001
1.00004
1.00008
1.00024
1.00043
1.00128
1.00237
1.00675
1.01318
1
1
1
1
1
1
1
1
1
1
1
1
1
1
1
1.00001
1.00001
1.00003
1.00006
1.00017
1.0003
1.00091
1.00167
1.00493
1.00953
1
1
1
1
1
1
1
1
1
1
1
1
1
1
1
1
1.00001
1.00002
1.00006
1.0001
1.00031
1.00057
1.0017
1.00334
1.00891
1
1
1
1
1
1
1
1
1
1
1
1
1
1
1
1
1.00001
1.00002
1.00005
1.00009
1.00029
1.00053
1.00164
1.00308
1.00869
1
1
1
1
1
1
1
1
1
1
1
1
1
1
1
1
1.00001
1.00001
1.00005
1.00008
1.00026
1.00049
1.00141
1.00301
1.00764
1
1
1
1
1
1
1
1
1
1
1
1
1
1
1
1
1.00001
1.00002
1.00004
1.00011
1.00021
1.00063
1.00124
1.00338
1.00781
1
1
1
1
1
1
1
1
1
1
1
1
1
1
1
1
1.00001
1.00001
1.00005
1.00008
1.00026
1.00048
1.00138
1.00298
1.00751
1
1
1
1
1
1
1
1
1
1
1
1
1
1
1
1
1.00001
1.00001
1.00005
1.00009
1.00027
1.00049
1.00155
1.00294
1.00827
2.37516
2.37754
2.7177
3.01173
3.20762
3.05882
2.91958
2.91876
2.90299
2.87677
2.86978
2.86384
2.85534
2.84913
2.84178
2.83144
2.8214
2.81164
2.79932
2.78812
2.77768
2.76385
2.75383
2.7443
2.73721
2.73383
2.73351
2.73784
2.75253
2.77217
2.79891
2.82411
2.85132
2.87396
2.89621
2.91356
2.92731
2.93972
2.94735
2.95295
2.95521
2.95585
2.9531
2.95318
2.94866
2.94565
2.93823
2.9341
2.92493
2.91992
2.90942
2.90333
2.8906
2.8841
2.87094
2.86387
2.85041
2.84283
2.82928
2.82121
2.80756
2.79914
2.78555
2.77693
2.7635
2.75481
2.74171
2.73305
2.72047
2.71184
2.69999
2.69134
2.68059
2.67191
2.66264
2.65428
2.64658
2.63934
2.63313
2.62774
2.62331
2.62016
2.61838
2.61767
2.61718
2.61751
2.61855
2.62015
2.62368
2.62531
2.6283
2.62949
2.63074
2.63012
2.62916
2.62797
2.62523
2.62358
2.61995
2.61778
2.23268
2.23328
2.41779
2.56551
2.90555
3.04453
3.08681
3.10287
3.12765
3.12675
3.08101
3.04536
3.04155
3.04069
3.02652
3.00517
2.99652
2.98989
2.97691
2.96799
2.96252
2.95197
2.94347
2.93714
2.92929
2.92634
2.92561
2.92704
2.93816
2.94955
2.96286
2.97304
2.97801
2.9799
2.97552
2.96809
2.9621
2.95409
2.94105
2.93034
2.91136
2.89964
2.88266
2.87018
2.85476
2.84239
2.82718
2.8149
2.80017
2.78841
2.774
2.76188
2.74661
2.7345
2.7199
2.70814
2.69385
2.68225
2.66834
2.65691
2.64337
2.6323
2.61906
2.60847
2.59565
2.58539
2.57302
2.56283
2.55109
2.54103
2.53015
2.52038
2.51037
2.50123
2.49215
2.48388
2.47597
2.46878
2.46231
2.45654
2.45166
2.4478
2.44513
2.4434
2.44184
2.44083
2.44051
2.44083
2.44184
2.44234
2.44319
2.44312
2.44246
2.44061
2.43811
2.43642
2.43249
2.42994
2.4262
2.42305
2.21935
2.18088
2.1995
2.30688
2.43044
2.63853
2.77225
2.86049
2.94462
3.01042
3.0426
3.05181
3.067
3.07375
3.07991
3.08767
3.09415
3.09857
3.10896
3.13686
3.14926
3.14368
3.12326
3.11433
3.10992
3.10771
3.10725
3.10795
3.10906
3.10541
3.09298
3.0726
3.05103
3.02711
2.99919
2.96742
2.93993
2.9126
2.88741
2.86457
2.84217
2.82276
2.80266
2.7859
2.76747
2.75203
2.73469
2.71978
2.70365
2.6896
2.67427
2.66036
2.64463
2.63072
2.61597
2.60272
2.58844
2.57584
2.56192
2.55001
2.53646
2.52502
2.51185
2.50072
2.48798
2.47704
2.46506
2.45443
2.44337
2.43312
2.42287
2.41322
2.40383
2.39502
2.38669
2.37889
2.37175
2.36523
2.3594
2.35441
2.35018
2.34693
2.3448
2.34359
2.34264
2.3421
2.34233
2.34288
2.34416
2.34499
2.34589
2.34643
2.34623
2.34525
2.34385
2.34275
2.33996
2.3383
2.33499
2.33345
2.2195
2.15371
2.13021
2.15486
2.22367
2.3198
2.41205
2.49969
2.56637
2.65868
2.76495
2.85072
2.91188
2.95446
2.9823
3.0025
3.02634
3.05224
3.07784
3.10814
3.13798
3.15796
3.17254
3.18271
3.18967
3.19507
3.19677
3.1925
3.17905
3.15086
3.11172
3.07052
3.01777
2.97038
2.92104
2.88327
2.84786
2.81847
2.79079
2.76767
2.74441
2.72501
2.70514
2.68835
2.67091
2.65604
2.64005
2.62667
2.61218
2.6004
2.58741
2.57601
2.56257
2.5511
2.53835
2.52778
2.51542
2.5053
2.49319
2.48342
2.47166
2.46208
2.45078
2.44122
2.43044
2.42086
2.41052
2.40093
2.39091
2.38141
2.37178
2.36255
2.35354
2.34495
2.33682
2.3293
2.3223
2.31609
2.31049
2.3057
2.30158
2.29832
2.29579
2.29426
2.29266
2.29141
2.29038
2.2899
2.28945
2.28903
2.28836
2.28767
2.28625
2.28496
2.28274
2.28117
2.27793
2.27613
2.27312
2.2704
2.22442
2.15373
2.10888
2.09448
2.11642
2.16471
2.21735
2.27688
2.32932
2.38314
2.45293
2.52237
2.59612
2.6688
2.72842
2.77881
2.82863
2.8693
2.90369
2.94156
2.98549
3.02807
3.06627
3.09582
3.11862
3.13668
3.13969
3.13117
3.10197
3.0527
2.99625
2.93041
2.87367
2.81987
2.7764
2.74081
2.71069
2.68554
2.66346
2.64356
2.62544
2.60896
2.59344
2.57968
2.56611
2.55375
2.54104
2.52931
2.51723
2.5067
2.49591
2.48631
2.47477
2.46471
2.45316
2.44381
2.43275
2.42356
2.41293
2.40389
2.39385
2.38493
2.37543
2.36663
2.35751
2.34901
2.34022
2.33211
2.32377
2.316
2.30821
2.30092
2.29376
2.28721
2.28078
2.2751
2.26961
2.26496
2.2605
2.25705
2.25368
2.25143
2.24921
2.24824
2.24682
2.24603
2.24481
2.24423
2.24308
2.24229
2.24067
2.23979
2.23796
2.23675
2.23425
2.23288
2.22996
2.2288
2.22625
2.22497
2.22829
2.15567
2.10334
2.07243
2.06265
2.08168
2.11075
2.14451
2.18282
2.21995
2.26399
2.30872
2.35456
2.41169
2.46338
2.5171
2.56411
2.60911
2.65143
2.69872
2.73677
2.77841
2.82522
2.871
2.90524
2.93553
2.95146
2.94462
2.91535
2.86095
2.7984
2.73603
2.68203
2.6387
2.60661
2.58338
2.56345
2.54867
2.53409
2.52297
2.51132
2.50194
2.49181
2.48345
2.47422
2.46644
2.45743
2.4495
2.44026
2.43249
2.424
2.41681
2.40783
2.39961
2.38998
2.38198
2.37263
2.36443
2.35507
2.34645
2.33717
2.32846
2.31943
2.31085
2.30216
2.29375
2.28552
2.27744
2.26963
2.26206
2.25452
2.24758
2.24041
2.23415
2.22771
2.22244
2.21707
2.21309
2.20898
2.2063
2.20333
2.20166
2.19941
2.19833
2.1964
2.19522
2.19295
2.19134
2.18865
2.18671
2.1835
2.18165
2.17832
2.17671
2.17344
2.17194
2.16886
2.16783
2.16559
2.16423
2.23265
2.16588
2.10566
2.06515
2.04266
2.03855
2.04898
2.06974
2.09094
2.11529
2.1433
2.17617
2.2058
2.2421
2.27749
2.31545
2.36056
2.39583
2.43421
2.47175
2.51166
2.54509
2.59429
2.62298
2.66568
2.6967
2.72705
2.725
2.70211
2.65369
2.60102
2.54772
2.50699
2.47215
2.45082
2.43788
2.43093
2.42608
2.42109
2.4169
2.41168
2.40758
2.40204
2.39739
2.39125
2.38595
2.37927
2.37319
2.36572
2.35922
2.35204
2.34598
2.33841
2.33111
2.3226
2.31509
2.30689
2.29946
2.29144
2.28395
2.27618
2.26875
2.26138
2.25414
2.24707
2.24001
2.23301
2.22619
2.21935
2.21299
2.20663
2.201
2.19538
2.19063
2.18586
2.18209
2.17829
2.17555
2.17261
2.17079
2.16846
2.16719
2.16505
2.16385
2.16143
2.15988
2.15671
2.15458
2.15057
2.14789
2.14347
2.14098
2.13679
2.13478
2.13125
2.12986
2.12715
2.12658
2.12509
2.12465
2.2343
2.17253
2.11711
2.06743
2.03587
2.0192
2.01695
2.02277
2.03689
2.04939
2.06576
2.08642
2.10831
2.13208
2.16035
2.18017
2.21516
2.24042
2.27387
2.30061
2.33584
2.36426
2.4056
2.43754
2.47795
2.51255
2.55173
2.56048
2.54314
2.50593
2.4557
2.41237
2.37394
2.34693
2.32923
2.32004
2.32175
2.32564
2.32918
2.33126
2.3314
2.33031
2.328
2.32582
2.32198
2.3188
2.31407
2.30991
2.30445
2.29931
2.29397
2.28904
2.2837
2.2776
2.27091
2.26414
2.25733
2.2506
2.24374
2.23688
2.22997
2.22294
2.21599
2.20904
2.20219
2.19557
2.18898
2.18282
2.1767
2.17116
2.16574
2.1611
2.15644
2.15269
2.14882
2.14591
2.14275
2.14065
2.1382
2.13673
2.1348
2.13352
2.13163
2.12993
2.12742
2.12513
2.1214
2.11841
2.11345
2.10997
2.10452
2.10097
2.09586
2.09266
2.08836
2.08609
2.08275
2.08195
2.08038
2.07993
2.23193
2.17614
2.12283
2.07709
2.03716
2.01233
1.99861
1.9976
2.00118
2.00982
2.0203
2.02982
2.04434
2.05637
2.08016
2.09254
2.11623
2.13293
2.15854
2.17952
2.20937
2.23348
2.26809
2.29985
2.344
2.39436
2.43853
2.45
2.43242
2.39764
2.35384
2.31458
2.27669
2.2548
2.23456
2.22737
2.22469
2.23183
2.24184
2.24989
2.25661
2.25993
2.26244
2.26245
2.26152
2.26026
2.25774
2.25515
2.25157
2.24781
2.24358
2.23969
2.23554
2.2308
2.22526
2.21937
2.21364
2.20767
2.20187
2.19586
2.19
2.18412
2.17818
2.17236
2.16637
2.16058
2.15471
2.14914
2.14363
2.13871
2.13391
2.12993
2.12612
2.12326
2.12045
2.11854
2.11645
2.11505
2.11329
2.11192
2.11005
2.10828
2.10571
2.10331
2.09946
2.09625
2.09105
2.0869
2.08072
2.07615
2.06971
2.06505
2.05893
2.05469
2.04937
2.04618
2.04212
2.04041
2.0387
2.03815
2.23021
2.17664
2.12738
2.0812
2.04264
2.01063
1.99046
1.97951
1.97973
1.98173
1.98979
1.99577
2.0048
2.01037
2.02371
2.03364
2.05011
2.06162
2.07915
2.09505
2.11991
2.14269
2.1716
2.2072
2.25616
2.32266
2.36742
2.38039
2.36138
2.32772
2.29174
2.24675
2.21302
2.18517
2.17202
2.16022
2.1556
2.1562
2.16383
2.17622
2.18655
2.19609
2.20191
2.2059
2.20734
2.20766
2.20677
2.20494
2.20294
2.20004
2.19712
2.194
2.19118
2.18791
2.18378
2.17893
2.17369
2.16852
2.1631
2.15762
2.15208
2.1464
2.14092
2.13535
2.13001
2.12473
2.1196
2.11478
2.11015
2.10607
2.10222
2.09915
2.09624
2.09423
2.09219
2.09099
2.08945
2.08854
2.0869
2.08571
2.08335
2.08131
2.07784
2.0748
2.06996
2.06591
2.05971
2.05496
2.04817
2.04296
2.03603
2.03067
2.02396
2.01903
2.01297
2.00906
2.00409
2.00176
1.99918
1.99862
2.22694
2.17947
2.13034
2.08693
2.04722
2.01351
1.98776
1.97005
1.96189
1.96232
1.96403
1.96978
1.97756
1.98094
1.98864
1.99373
2.0057
2.01315
2.02794
2.04164
2.06057
2.08343
2.11011
2.15527
2.21763
2.29791
2.33595
2.34149
2.31827
2.29081
2.24965
2.20992
2.17169
2.14598
2.12564
2.1143
2.10568
2.1015
2.10196
2.10888
2.12043
2.13314
2.14395
2.15253
2.15779
2.1615
2.16269
2.16332
2.16259
2.16135
2.15948
2.15731
2.15516
2.15298
2.15021
2.1465
2.14203
2.1374
2.13251
2.12767
2.12261
2.11775
2.11282
2.10812
2.10344
2.099
2.09468
2.09068
2.08692
2.08369
2.08064
2.07834
2.07624
2.07483
2.07357
2.07265
2.07171
2.0707
2.06931
2.06762
2.06503
2.06217
2.05807
2.05389
2.04831
2.0429
2.03639
2.03048
2.02348
2.01726
2.01004
2.00386
1.99675
1.99105
1.98444
1.97973
1.97412
1.97083
1.96757
1.96639
2.21504
2.176
2.13331
2.09012
2.05278
2.01857
1.9898
1.96837
1.95328
1.94625
1.94664
1.94756
1.95412
1.95699
1.96231
1.9659
1.97052
1.97937
1.98808
2.00548
2.01996
2.04551
2.07684
2.13497
2.22003
2.29876
2.32658
2.31897
2.29723
2.26404
2.22473
2.1808
2.14618
2.11614
2.09528
2.07829
2.06863
2.0613
2.05887
2.0575
2.06384
2.07348
2.08658
2.09861
2.10923
2.11674
2.12197
2.12489
2.12604
2.12608
2.12503
2.12352
2.12162
2.11977
2.11783
2.11508
2.11152
2.10729
2.10302
2.09855
2.09413
2.0897
2.08541
2.08126
2.07725
2.07343
2.06978
2.06658
2.0636
2.0611
2.05896
2.05731
2.056
2.05505
2.05427
2.05362
2.0527
2.05171
2.04983
2.04764
2.04416
2.04035
2.03512
2.02967
2.02303
2.01679
2.00955
2.00286
1.99522
1.9884
1.98067
1.97399
1.96646
1.96026
1.95322
1.94783
1.94174
1.93767
1.93376
1.93208
2.2014
2.16379
2.12986
2.09153
2.05421
2.02248
1.99299
1.96904
1.952
1.93923
1.93312
1.9332
1.93395
1.93823
1.94168
1.94574
1.94843
1.95522
1.96259
1.97846
1.99369
2.0218
2.06699
2.14664
2.24774
2.30924
2.31972
2.30694
2.28153
2.24715
2.20531
2.16531
2.13271
2.10313
2.07998
2.05964
2.0455
2.03516
2.02819
2.02621
2.02467
2.02811
2.03638
2.04801
2.0604
2.07138
2.08025
2.08626
2.09007
2.09176
2.09209
2.0913
2.08988
2.08806
2.08639
2.08446
2.0818
2.07835
2.07456
2.07061
2.06666
2.06275
2.05899
2.0555
2.05217
2.04918
2.04647
2.04414
2.04212
2.04067
2.03942
2.03866
2.03787
2.03734
2.03647
2.03576
2.03437
2.03286
2.03027
2.02726
2.02297
2.01805
2.01205
2.00574
1.99883
1.99186
1.98431
1.97697
1.9691
1.96178
1.95388
1.94682
1.93913
1.93255
1.92526
1.91936
1.91282
1.90799
1.90339
1.90105
2.19743
2.16192
2.1239
2.09032
2.05485
2.02261
1.99458
1.96915
1.94927
1.93617
1.92583
1.92132
1.92135
1.9219
1.925
1.92891
1.93279
1.93832
1.94783
1.95997
1.98377
2.01939
2.088
2.19247
2.28319
2.31437
2.31059
2.29295
2.2693
2.23203
2.19343
2.15776
2.12693
2.09765
2.0737
2.05094
2.03421
2.01757
2.00932
2.00058
1.99799
1.99498
1.99545
2.00073
2.01025
2.02174
2.03323
2.04287
2.04981
2.05454
2.05663
2.05745
2.05709
2.05601
2.05455
2.05331
2.05158
2.0493
2.04623
2.04291
2.03944
2.03612
2.03301
2.0302
2.02771
2.02553
2.02367
2.02219
2.02103
2.02028
2.01977
2.0196
2.0193
2.01893
2.01813
2.01718
2.01517
2.01302
2.00927
2.00534
1.99989
1.99443
1.98798
1.98158
1.97427
1.96708
1.95913
1.95155
1.94321
1.93556
1.92714
1.91976
1.91162
1.90473
1.89716
1.89092
1.8842
1.87889
1.87399
1.87117
2.18642
2.15768
2.12337
2.08936
2.05694
2.02409
1.99487
1.96966
1.94732
1.93046
1.91973
1.91132
1.90954
1.90995
1.91153
1.91716
1.92153
1.92845
1.93776
1.95538
1.98676
2.04217
2.14495
2.25537
2.30927
2.31591
2.30646
2.28587
2.25783
2.2214
2.18739
2.15513
2.12576
2.09823
2.07359
2.05025
2.0303
2.01169
1.99822
1.98485
1.9782
1.97126
1.96936
1.96659
1.96873
1.97507
1.98547
1.99609
2.00668
2.01468
2.02071
2.02388
2.02523
2.02527
2.02424
2.02307
2.02171
2.02037
2.01848
2.0163
2.01366
2.01112
2.00882
2.00692
2.00524
2.00418
2.00342
2.00297
2.00282
2.00279
2.00285
2.0027
2.00238
2.00189
2.00083
1.99947
1.99674
1.9935
1.98877
1.98381
1.97786
1.97189
1.96507
1.95825
1.95068
1.94327
1.93516
1.92753
1.91916
1.91162
1.90327
1.89604
1.88796
1.88115
1.87362
1.86733
1.86061
1.85516
1.85005
1.84719
2.17431
2.14651
2.11882
2.08681
2.05586
2.0264
1.9964
1.97005
1.94763
1.92701
1.91402
1.90341
1.89765
1.89786
1.89879
1.90598
1.91167
1.92173
1.93538
1.96154
2.01055
2.1045
2.22208
2.30233
2.3217
2.3169
2.30163
2.28143
2.24772
2.21612
2.18472
2.15643
2.12821
2.10268
2.07717
2.05413
2.03171
2.01186
1.99327
1.97625
1.96467
1.95287
1.94763
1.94047
1.93923
1.93683
1.9403
1.94728
1.9586
1.96853
1.9786
1.98491
1.99014
1.99175
1.9929
1.99253
1.99186
1.99117
1.9906
1.98973
1.98823
1.98711
1.98587
1.98497
1.98454
1.9842
1.98426
1.9846
1.98534
1.98608
1.98646
1.98618
1.98566
1.98503
1.98366
1.98171
1.97795
1.97389
1.96868
1.96342
1.95717
1.95098
1.94391
1.93705
1.92939
1.92205
1.91399
1.90642
1.89821
1.89069
1.88253
1.87521
1.86722
1.86024
1.85263
1.84615
1.83919
1.83358
1.82813
1.8252
2.1658
2.14002
2.11432
2.08571
2.05517
2.02595
1.99888
1.97124
1.94873
1.92724
1.91015
1.89915
1.88906
1.8881
1.88892
1.89589
1.90564
1.91803
1.94037
1.9824
2.06423
2.18745
2.28796
2.32437
2.32393
2.31529
2.29668
2.27136
2.24078
2.21253
2.18441
2.15805
2.13179
2.10658
2.08115
2.05743
2.03352
2.01187
1.99064
1.97285
1.95539
1.94129
1.92962
1.92073
1.91401
1.90914
1.90684
1.9071
1.9125
1.92107
1.93256
1.9423
1.95152
1.95705
1.96155
1.96292
1.96464
1.96482
1.96513
1.96529
1.96529
1.96536
1.96554
1.96586
1.96638
1.96713
1.96823
1.96959
1.9709
1.97194
1.9719
1.97159
1.97077
1.96962
1.9675
1.96444
1.96022
1.95568
1.95002
1.9442
1.93755
1.93095
1.92371
1.91661
1.90895
1.90151
1.89356
1.88598
1.87797
1.87049
1.86259
1.85539
1.84771
1.84086
1.83352
1.8271
1.82031
1.81455
1.80906
1.80581
2.14445
2.124
2.10141
2.07905
2.05314
2.02466
1.9981
1.9725
1.94859
1.92853
1.9077
1.89609
1.8835
1.88159
1.8829
1.89114
1.90138
1.92217
1.95718
2.02593
2.14393
2.26477
2.32175
2.32737
2.32218
2.30743
2.2871
2.26048
2.23479
2.20942
2.18438
2.15904
2.13394
2.10841
2.08375
2.05907
2.03524
2.01283
1.99042
1.97047
1.95006
1.93376
1.91708
1.90554
1.89425
1.88731
1.88055
1.87782
1.87668
1.87906
1.88618
1.89652
1.90775
1.91763
1.92572
1.93189
1.93565
1.9385
1.94048
1.94196
1.94353
1.94494
1.94645
1.94791
1.94961
1.95132
1.95317
1.95511
1.95671
1.95718
1.95682
1.95613
1.95485
1.95309
1.94958
1.94605
1.94118
1.93616
1.92998
1.92382
1.91673
1.90986
1.9023
1.89512
1.88737
1.87999
1.87212
1.86463
1.85677
1.84934
1.84167
1.8345
1.82715
1.82033
1.81336
1.80695
1.80052
1.79489
1.78964
1.78656
2.13551
2.11291
2.09092
2.06969
2.04833
2.02304
1.9973
1.97231
1.94767
1.92855
1.90774
1.89407
1.88157
1.87871
1.88273
1.893
1.9082
1.93984
1.9951
2.10103
2.22865
2.31113
2.32871
2.32602
2.31757
2.29976
2.27738
2.25247
2.23011
2.20592
2.18283
2.1584
2.13443
2.10922
2.08513
2.05972
2.03637
2.01188
1.98984
1.96701
1.94688
1.92678
1.90972
1.89349
1.88037
1.86937
1.86071
1.85392
1.84925
1.84798
1.84825
1.85342
1.86198
1.8734
1.88495
1.89511
1.9034
1.90968
1.9145
1.9182
1.92137
1.92434
1.92721
1.92984
1.9325
1.93492
1.93732
1.93911
1.94024
1.93998
1.93919
1.93826
1.93636
1.93385
1.92975
1.92556
1.92014
1.91475
1.90825
1.90195
1.89467
1.88784
1.8802
1.87317
1.86541
1.85833
1.85057
1.84354
1.83591
1.82899
1.82153
1.81474
1.80755
1.80102
1.79424
1.78808
1.78183
1.77633
1.77119
1.7681
2.12003
2.09761
2.07662
2.05489
2.03596
2.01724
1.9947
1.9723
1.94742
1.92811
1.90771
1.89362
1.88189
1.88193
1.8893
1.90178
1.92603
1.97457
2.06298
2.19024
2.28655
2.32302
2.32316
2.31851
2.30676
2.28933
2.26722
2.24555
2.22354
2.2017
2.17869
2.15568
2.13172
2.10793
2.08351
2.05921
2.03539
2.01135
1.98856
1.96557
1.94457
1.92362
1.90513
1.88692
1.87165
1.8568
1.8459
1.83542
1.82889
1.82243
1.82067
1.81933
1.82182
1.82887
1.83957
1.85194
1.86399
1.87488
1.88374
1.89115
1.89704
1.90238
1.90691
1.91115
1.91486
1.91785
1.92004
1.92258
1.92199
1.92165
1.92096
1.91972
1.91714
1.91381
1.90904
1.90439
1.89864
1.89306
1.88657
1.8803
1.87331
1.86662
1.85938
1.85251
1.84518
1.83822
1.83085
1.82388
1.81653
1.80973
1.80261
1.79617
1.78937
1.78327
1.77682
1.77104
1.76508
1.75985
1.75496
1.75194
2.1112
2.09367
2.06827
2.04586
2.02271
2.00414
1.98378
1.96758
1.94579
1.92705
1.90851
1.89436
1.88759
1.89089
1.90221
1.92248
1.96054
2.0382
2.15237
2.25649
2.30463
2.31289
2.31005
2.30319
2.29133
2.27378
2.254
2.23521
2.21488
2.19463
2.17233
2.15074
2.12728
2.10421
2.07964
2.0558
2.03127
2.00821
1.98451
1.96279
1.94013
1.91984
1.89885
1.88041
1.86178
1.84623
1.83089
1.81942
1.80863
1.80126
1.79488
1.79144
1.79038
1.79143
1.79707
1.80706
1.82095
1.8358
1.84996
1.86235
1.8727
1.88113
1.88829
1.89366
1.89822
1.90192
1.90326
1.90587
1.90497
1.90426
1.90325
1.90169
1.89829
1.89447
1.88932
1.88447
1.87858
1.87307
1.86661
1.8605
1.85356
1.84704
1.83983
1.83311
1.8258
1.81894
1.81161
1.80479
1.79764
1.79101
1.78409
1.77773
1.77113
1.76509
1.75889
1.75325
1.74759
1.74264
1.73808
1.73531
2.09036
2.08129
2.0627
2.04101
2.0178
1.99768
1.97606
1.95759
1.9391
1.92242
1.90711
1.89724
1.89769
1.90848
1.9259
1.95881
2.02442
2.12624
2.22942
2.28127
2.29592
2.29551
2.29118
2.28484
2.27291
2.25799
2.24168
2.2242
2.20511
2.18468
2.16377
2.14204
2.11989
2.09657
2.07306
2.04885
2.02585
2.00226
1.98015
1.95751
1.93572
1.91422
1.89348
1.87352
1.85508
1.83756
1.82187
1.80783
1.79512
1.78554
1.77707
1.77229
1.76875
1.76879
1.76948
1.77403
1.7837
1.79724
1.81379
1.8299
1.84516
1.85744
1.86771
1.87574
1.88049
1.8851
1.88674
1.88667
1.88614
1.88539
1.88357
1.88105
1.87712
1.87311
1.86782
1.86281
1.85698
1.85143
1.84517
1.8391
1.83249
1.82605
1.81923
1.81261
1.80574
1.79919
1.79237
1.78591
1.77919
1.77293
1.7664
1.76042
1.75417
1.74853
1.74266
1.73746
1.73219
1.72771
1.72364
1.72119
2.06722
2.06284
2.05055
2.03067
2.00993
1.99124
1.9712
1.95313
1.93555
1.92024
1.90866
1.90623
1.91546
1.93191
1.9617
2.02128
2.11363
2.20562
2.25783
2.27239
2.27511
2.27159
2.26777
2.26054
2.25119
2.23911
2.22581
2.20979
2.19307
2.17366
2.15295
2.13149
2.10934
2.08689
2.06442
2.04086
2.0184
1.99498
1.97293
1.95063
1.9293
1.90809
1.88787
1.86773
1.8494
1.83096
1.81508
1.79937
1.78629
1.77438
1.76492
1.75767
1.75327
1.75128
1.75144
1.75187
1.75593
1.76443
1.7773
1.79263
1.81016
1.82671
1.8403
1.85268
1.86
1.86562
1.86841
1.86812
1.86708
1.86582
1.86373
1.86065
1.85604
1.85174
1.84664
1.84183
1.83608
1.83064
1.82449
1.81862
1.81214
1.80598
1.7994
1.7933
1.78683
1.78079
1.77436
1.76837
1.76202
1.75615
1.74998
1.74431
1.73844
1.73304
1.72763
1.7227
1.71801
1.71391
1.71053
1.7083
2.04433
2.04421
2.03647
2.02352
2.00068
1.98202
1.96289
1.94537
1.93062
1.9181
1.91612
1.92395
1.9417
1.96927
2.02515
2.1095
2.19603
2.23813
2.25314
2.25217
2.24801
2.24411
2.23921
2.2339
2.22763
2.21915
2.20838
2.19448
2.17887
2.16047
2.14033
2.1195
2.09785
2.07682
2.05458
2.03285
2.01049
1.9884
1.96689
1.94535
1.92453
1.90391
1.88359
1.86427
1.84506
1.8276
1.8104
1.79517
1.78071
1.76802
1.75683
1.74775
1.74066
1.73732
1.73567
1.73597
1.73721
1.74189
1.75059
1.76181
1.77658
1.79271
1.80826
1.82239
1.83301
1.84096
1.84475
1.84612
1.84492
1.84389
1.84165
1.83864
1.8341
1.82988
1.82466
1.82009
1.8147
1.80968
1.80373
1.798
1.79169
1.78585
1.77962
1.77374
1.76751
1.76162
1.75545
1.74965
1.74364
1.73802
1.73228
1.72698
1.72161
1.71678
1.71193
1.70777
1.70377
1.70068
1.69811
1.69672
2.00587
2.02121
2.02135
2.01327
1.9969
1.97697
1.95984
1.94276
1.931
1.92593
1.93324
1.95091
1.97851
2.0366
2.11406
2.19552
2.2296
2.24056
2.23488
2.22943
2.22159
2.21448
2.21018
2.20763
2.20341
2.19844
2.18996
2.17805
2.16367
2.14675
2.12798
2.10816
2.08691
2.06683
2.04523
2.02476
2.00306
1.98173
1.96052
1.93917
1.91907
1.89853
1.87946
1.86011
1.84191
1.82404
1.80726
1.7914
1.77694
1.76367
1.75232
1.74251
1.73477
1.72949
1.72677
1.72598
1.72646
1.72807
1.7331
1.73981
1.74869
1.75998
1.77341
1.78663
1.79929
1.80906
1.8162
1.81994
1.82081
1.82005
1.81852
1.81646
1.81257
1.80846
1.80359
1.79894
1.79387
1.78909
1.78381
1.77885
1.77333
1.76818
1.76248
1.75732
1.75152
1.74627
1.74036
1.73511
1.72936
1.72428
1.71888
1.71405
1.70913
1.70471
1.70052
1.69683
1.69377
1.69119
1.68961
1.68826
1.93638
1.98951
1.99561
1.99322
1.98562
1.97018
1.95474
1.94324
1.93788
1.946
1.96328
1.99249
2.04931
2.12883
2.20302
2.23196
2.23709
2.22924
2.21854
2.20438
2.19326
2.18734
2.18465
2.18283
2.18063
2.17678
2.1704
2.16066
2.14832
2.132
2.11509
2.09624
2.07699
2.05643
2.03584
2.01525
1.99483
1.97452
1.95401
1.93356
1.91324
1.89346
1.87429
1.8558
1.83798
1.82067
1.8043
1.78862
1.77457
1.76161
1.75045
1.74074
1.73276
1.72685
1.72288
1.72109
1.71993
1.72026
1.72102
1.72395
1.72767
1.73376
1.74153
1.75113
1.76173
1.77161
1.78081
1.78772
1.79232
1.79357
1.79319
1.79232
1.78994
1.78718
1.78217
1.77789
1.77253
1.76822
1.76306
1.75875
1.75355
1.74901
1.74362
1.73885
1.73333
1.72843
1.72293
1.71804
1.71282
1.70816
1.7034
1.69912
1.69493
1.6912
1.68788
1.68515
1.68317
1.68168
1.68127
1.6807
1.789
1.94956
1.97427
1.97577
1.97096
1.9637
1.95112
1.94703
1.95645
1.97535
2.00899
2.06749
2.15022
2.21654
2.24319
2.24183
2.2338
2.2182
2.19762
2.18137
2.17141
2.16583
2.16273
2.16092
2.15836
2.15515
2.15013
2.14196
2.13123
2.11777
2.10205
2.08446
2.06578
2.04654
2.02664
2.00657
1.98642
1.96649
1.94669
1.92705
1.90745
1.88825
1.86948
1.85155
1.83424
1.81789
1.80233
1.78768
1.77446
1.76215
1.75175
1.74234
1.73422
1.72784
1.72227
1.71862
1.71598
1.7134
1.71161
1.71014
1.70989
1.70994
1.71254
1.71643
1.72246
1.72959
1.73827
1.74676
1.75435
1.75917
1.76182
1.762
1.76165
1.76058
1.75793
1.75422
1.74981
1.74552
1.74104
1.73677
1.73226