/*--------------------------------*- C++ -*----------------------------------*\
| =========                 |                                                 |
| \\      /  F ield         | OpenFOAM: The Open Source CFD Toolbox           |
|  \\    /   O peration     | Version:  2112                                  |
|   \\  /    A nd           | Website:  www.openfoam.com                      |
|    \\/     M anipulation  |                                                 |
\*---------------------------------------------------------------------------*/
FoamFile
{
    version     2.0;
    format      ascii;
    arch        "LSB;label=32;scalar=64";
    class       volVectorField;
    location    "5";
    object      U;
}
// * * * * * * * * * * * * * * * * * * * * * * * * * * * * * * * * * * * * * //

dimensions      [0 1 -1 0 0 0 0];

internalField   nonuniform List<vector> 
5250
(
(3 1.10949e-08 0)
(2.99999 8.61938e-08 0)
(2.99996 2.64954e-07 0)
(2.99991 8.03517e-07 0)
(2.99976 1.88852e-06 0)
(2.99948 5.21817e-06 0)
(2.99859 1.10244e-05 0)
(2.99708 3.37533e-05 0)
(2.99115 6.43574e-05 0)
(2.98191 0.000228007 0)
(2.94381 0.000452565 0)
(2.85988 0.00157076 0)
(2.60922 0.00371667 0)
(1.80532 0.0121241 0)
(0.867365 0.0305655 0)
(0.429914 0.0271501 0)
(0.520774 0.0262097 0)
(0.542535 0.0275603 0)
(0.484098 0.0290277 0)
(0.391948 0.0306623 0)
(0.309627 0.0325398 0)
(0.243481 0.034532 0)
(0.176778 0.0363894 0)
(0.102948 0.0381269 0)
(0.0427551 0.0396211 0)
(3 3.28353e-08 0)
(2.99999 2.54941e-07 0)
(2.99996 7.83359e-07 0)
(2.99991 2.374e-06 0)
(2.99977 5.56319e-06 0)
(2.99949 1.54629e-05 0)
(2.99861 3.20913e-05 0)
(2.99712 0.000101628 0)
(2.99131 0.000186507 0)
(2.98224 0.000700255 0)
(2.94488 0.00136541 0)
(2.86278 0.00485343 0)
(2.61716 0.0115447 0)
(1.8282 0.0376617 0)
(0.880363 0.0929586 0)
(0.426433 0.0776707 0)
(0.521367 0.0711005 0)
(0.544824 0.0724055 0)
(0.486417 0.0742445 0)
(0.394604 0.0767469 0)
(0.312314 0.0793159 0)
(0.245637 0.0817264 0)
(0.178098 0.08353 0)
(0.103063 0.0845265 0)
(0.041801 0.0837928 0)
(3 5.36888e-08 0)
(2.99999 4.16899e-07 0)
(2.99996 1.28065e-06 0)
(2.99991 3.88153e-06 0)
(2.99977 9.08759e-06 0)
(2.99951 2.53325e-05 0)
(2.99866 5.2184e-05 0)
(2.99721 0.000167949 0)
(2.99165 0.000301249 0)
(2.9829 0.00116936 0)
(2.94712 0.00225498 0)
(2.86897 0.00812853 0)
(2.63428 0.0194539 0)
(1.87952 0.0636735 0)
(0.91186 0.159389 0)
(0.425 0.132089 0)
(0.527469 0.119454 0)
(0.554452 0.12192 0)
(0.49634 0.12578 0)
(0.405031 0.131386 0)
(0.322289 0.136397 0)
(0.254373 0.140935 0)
(0.185088 0.144756 0)
(0.107524 0.147048 0)
(0.0432086 0.145664 0)
(3 7.27053e-08 0)
(2.99999 5.65113e-07 0)
(2.99996 1.73587e-06 0)
(2.99992 5.26562e-06 0)
(2.99978 1.23515e-05 0)
(2.99953 3.43398e-05 0)
(2.99873 7.13566e-05 0)
(2.99733 0.000226614 0)
(2.99214 0.000408374 0)
(2.98388 0.00156919 0)
(2.95043 0.00302506 0)
(2.87815 0.0108661 0)
(2.65981 0.0261132 0)
(1.95838 0.0853873 0)
(0.963343 0.218518 0)
(0.429918 0.184671 0)
(0.541374 0.166574 0)
(0.57345 0.169936 0)
(0.515772 0.176017 0)
(0.424787 0.18561 0)
(0.340555 0.193949 0)
(0.270428 0.201478 0)
(0.1983 0.208244 0)
(0.116308 0.212871 0)
(0.0465316 0.21161 0)
(3 8.66341e-08 0)
(2.99999 6.73504e-07 0)
(2.99997 2.06929e-06 0)
(2.99992 6.27671e-06 0)
(2.9998 1.47563e-05 0)
(2.99955 4.08117e-05 0)
(2.99882 8.57704e-05 0)
(2.99749 0.000267664 0)
(2.99276 0.000480879 0)
(2.98511 0.0018397 0)
(2.95456 0.00353388 0)
(2.88954 0.0126514 0)
(2.69168 0.0306075 0)
(2.05953 0.0998839 0)
(1.03539 0.264679 0)
(0.448755 0.240258 0)
(0.565015 0.219974 0)
(0.602303 0.22133 0)
(0.545606 0.227579 0)
(0.455042 0.240559 0)
(0.368172 0.252435 0)
(0.29472 0.263611 0)
(0.218497 0.274294 0)
(0.130215 0.282512 0)
(0.0525054 0.282445 0)
(3 9.22725e-08 0)
(2.99999 7.16664e-07 0)
(2.99997 2.20364e-06 0)
(2.99993 6.66788e-06 0)
(2.99981 1.57303e-05 0)
(2.99959 4.27945e-05 0)
(2.99892 9.26847e-05 0)
(2.99766 0.000271209 0)
(2.99344 0.000517772 0)
(2.98645 0.0018304 0)
(2.95912 0.00353112 0)
(2.90216 0.0123968 0)
(2.72724 0.0305927 0)
(2.17782 0.0963507 0)
(1.14165 0.259274 0)
(0.507186 0.279551 0)
(0.607813 0.272944 0)
(0.644214 0.273656 0)
(0.58868 0.280571 0)
(0.498664 0.29761 0)
(0.407714 0.314068 0)
(0.32928 0.329888 0)
(0.247527 0.345962 0)
(0.150638 0.360084 0)
(0.0616441 0.363758 0)
(3 9.04089e-08 0)
(2.99999 6.98951e-07 0)
(2.99997 2.15114e-06 0)
(2.99993 6.46707e-06 0)
(2.99983 1.52629e-05 0)
(2.99962 4.06507e-05 0)
(2.99901 9.00272e-05 0)
(2.99784 0.000245924 0)
(2.99405 0.000498326 0)
(2.98764 0.00161922 0)
(2.96309 0.00304271 0)
(2.91339 0.0106331 0)
(2.75641 0.0268026 0)
(2.26722 0.0747941 0)
(1.25465 0.215523 0)
(0.547964 0.310458 0)
(0.631424 0.330528 0)
(0.671016 0.325891 0)
(0.626118 0.334002 0)
(0.543458 0.355511 0)
(0.45239 0.378787 0)
(0.371147 0.401265 0)
(0.285135 0.425005 0)
(0.179547 0.448495 0)
(0.0762122 0.461364 0)
(3 9.26686e-08 0)
(2.99999 7.13826e-07 0)
(2.99997 2.19879e-06 0)
(2.99994 6.57749e-06 0)
(2.99984 1.54986e-05 0)
(2.99965 4.08363e-05 0)
(2.99909 9.05189e-05 0)
(2.998 0.000240624 0)
(2.99458 0.000493976 0)
(2.98858 0.00152224 0)
(2.96641 0.002839 0)
(2.92294 0.00971127 0)
(2.77634 0.0237823 0)
(2.34107 0.0637093 0)
(1.38967 0.191767 0)
(0.610052 0.355606 0)
(0.641575 0.384959 0)
(0.674654 0.377802 0)
(0.651525 0.388798 0)
(0.583433 0.412431 0)
(0.497922 0.443953 0)
(0.417948 0.47606 0)
(0.331383 0.511446 0)
(0.219598 0.550315 0)
(0.0993113 0.584453 0)
(3 1.092e-07 0)
(2.99999 8.37091e-07 0)
(2.99998 2.58229e-06 0)
(2.99994 7.70732e-06 0)
(2.99986 1.82702e-05 0)
(2.99968 4.7895e-05 0)
(2.99917 0.000107618 0)
(2.99818 0.000275817 0)
(2.99512 0.000608429 0)
(2.9896 0.0015996 0)
(2.96973 0.00344088 0)
(2.93158 0.00954348 0)
(2.79774 0.0235275 0)
(2.41477 0.0653439 0)
(1.54259 0.179379 0)
(0.695666 0.397458 0)
(0.648726 0.420006 0)
(0.678384 0.420694 0)
(0.671268 0.439227 0)
(0.618874 0.46617 0)
(0.545011 0.506484 0)
(0.470848 0.551399 0)
(0.389332 0.601883 0)
(0.27963 0.66647 0)
(0.140148 0.747621 0)
(3 5.15938e-08 0)
(2.99999 1.33761e-06 0)
(2.99998 2.71973e-06 0)
(2.99995 1.18844e-05 0)
(2.99988 1.97366e-05 0)
(2.99972 7.63924e-05 0)
(2.99928 0.000109144 0)
(2.99842 0.000466934 0)
(2.99568 0.000504102 0)
(2.99096 0.00273753 0)
(2.97289 0.00191686 0)
(2.94026 0.0165756 0)
(2.81899 0.0116282 0)
(2.48121 0.0943414 0)
(1.68884 0.166148 0)
(0.791627 0.439229 0)
(0.653188 0.451934 0)
(0.686124 0.457338 0)
(0.692052 0.482098 0)
(0.653789 0.516122 0)
(0.595607 0.564156 0)
(0.531993 0.621846 0)
(0.465057 0.694506 0)
(0.377284 0.805212 0)
(0.215626 1.0066 0)
(3 9.45457e-08 0)
(2.99999 7.38116e-07 0)
(2.99998 2.27081e-06 0)
(2.99996 6.86497e-06 0)
(2.99991 1.62802e-05 0)
(2.99976 4.33368e-05 0)
(2.9995 9.79365e-05 0)
(2.99851 0.000253651 0)
(2.997 0.000570712 0)
(2.99079 0.00148839 0)
(2.98091 0.00326859 0)
(2.94032 0.00944704 0)
(2.85092 0.022178 0)
(2.57917 0.0651575 0)
(1.75581 0.189243 0)
(0.913061 0.472567 0)
(0.65936 0.480435 0)
(0.697732 0.488975 0)
(0.717081 0.516966 0)
(0.69177 0.558783 0)
(0.649382 0.612879 0)
(0.6059 0.681588 0)
(0.573912 0.775059 0)
(0.569434 0.917608 0)
(0.601375 1.15452 0)
(3 1.3796e-07 0)
(2.99999 1.31991e-07 0)
(2.99998 1.80502e-06 0)
(2.99996 1.74395e-06 0)
(2.99991 1.25502e-05 0)
(2.99979 9.3283e-06 0)
(2.99945 8.35688e-05 0)
(2.99881 3.67965e-05 0)
(2.99671 0.00059957 0)
(2.9932 0.000294332 0)
(2.97952 0.00434455 0)
(2.95591 0.00284102 0)
(2.86486 0.0313267 0)
(2.62855 0.0472745 0)
(2.02084 0.194103 0)
(1.04011 0.514692 0)
(0.679023 0.518395 0)
(0.718763 0.525195 0)
(0.748675 0.548607 0)
(0.734852 0.593342 0)
(0.707647 0.651545 0)
(0.68748 0.727381 0)
(0.692091 0.829577 0)
(0.748909 0.970013 0)
(0.886356 1.15021 0)
(3 7.49184e-08 0)
(3 5.85172e-07 0)
(2.99999 1.79745e-06 0)
(2.99997 5.45662e-06 0)
(2.99992 1.28706e-05 0)
(2.99982 3.46861e-05 0)
(2.99952 7.72257e-05 0)
(2.99894 0.000211297 0)
(2.99722 0.000436104 0)
(2.99391 0.00138769 0)
(2.98313 0.00250573 0)
(2.96289 0.00961395 0)
(2.89152 0.0184785 0)
(2.70692 0.0713779 0)
(2.22907 0.175315 0)
(1.20468 0.519277 0)
(0.730148 0.558197 0)
(0.7556 0.5725 0)
(0.788655 0.583159 0)
(0.785599 0.623581 0)
(0.77073 0.682369 0)
(0.770557 0.758354 0)
(0.801457 0.855502 0)
(0.885159 0.973398 0)
(1.04576 1.08894 0)
(3 8.16597e-08 0)
(3 6.37352e-07 0)
(2.99999 1.95853e-06 0)
(2.99997 5.93911e-06 0)
(2.99993 1.40879e-05 0)
(2.99984 3.7793e-05 0)
(2.9996 8.53471e-05 0)
(2.99911 0.000224784 0)
(2.99769 0.000501712 0)
(2.99493 0.00132961 0)
(2.9863 0.00299574 0)
(2.96943 0.00813619 0)
(2.9138 0.0187469 0)
(2.77338 0.0563326 0)
(2.40208 0.14347 0)
(1.40276 0.433708 0)
(0.82584 0.579918 0)
(0.807079 0.613825 0)
(0.830813 0.623677 0)
(0.841357 0.654388 0)
(0.837124 0.707881 0)
(0.849178 0.777612 0)
(0.893934 0.860484 0)
(0.985178 0.951877 0)
(1.1402 1.02788 0)
(3 7.80851e-08 0)
(3 6.08707e-07 0)
(2.99999 1.87264e-06 0)
(2.99998 5.66567e-06 0)
(2.99994 1.34569e-05 0)
(2.99987 3.59109e-05 0)
(2.99968 8.12443e-05 0)
(2.99929 0.000210794 0)
(2.99814 0.000479013 0)
(2.996 0.00120046 0)
(2.98876 0.00285024 0)
(2.97622 0.00678692 0)
(2.92981 0.017062 0)
(2.81905 0.0436511 0)
(2.51365 0.11575 0)
(1.60207 0.331363 0)
(0.929203 0.614633 0)
(0.843506 0.651704 0)
(0.863506 0.667192 0)
(0.886999 0.685599 0)
(0.897624 0.729094 0)
(0.91902 0.788797 0)
(0.96971 0.85662 0)
(1.06007 0.925684 0)
(1.20128 0.978697 0)
(3 6.55679e-08 0)
(3 5.07819e-07 0)
(2.99999 1.56444e-06 0)
(2.99998 4.70364e-06 0)
(2.99996 1.11515e-05 0)
(2.9999 2.94896e-05 0)
(2.99975 6.6373e-05 0)
(2.99944 0.000171496 0)
(2.99852 0.000380108 0)
(2.99691 0.000995662 0)
(2.99093 0.00215033 0)
(2.98142 0.00600584 0)
(2.94321 0.0130332 0)
(2.86005 0.0387235 0)
(2.6118 0.0982126 0)
(1.83503 0.293923 0)
(1.08654 0.653812 0)
(0.875467 0.683743 0)
(0.888258 0.699464 0)
(0.920485 0.709576 0)
(0.948373 0.744063 0)
(0.979012 0.793696 0)
(1.0323 0.849311 0)
(1.11815 0.902383 0)
(1.24388 0.940996 0)
(3 5.41021e-08 0)
(3 4.17553e-07 0)
(2.99999 1.28676e-06 0)
(2.99999 3.85721e-06 0)
(2.99996 9.12055e-06 0)
(2.99992 2.40438e-05 0)
(2.9998 5.37855e-05 0)
(2.99955 0.000140029 0)
(2.99882 0.000300526 0)
(2.99747 0.000841479 0)
(2.99291 0.00164964 0)
(2.98537 0.00540562 0)
(2.95594 0.0105069 0)
(2.89407 0.0359321 0)
(2.70513 0.0850693 0)
(2.10389 0.272559 0)
(1.28907 0.671924 0)
(0.932982 0.716077 0)
(0.924895 0.725521 0)
(0.955563 0.730732 0)
(0.994755 0.753833 0)
(1.03159 0.794062 0)
(1.08528 0.839943 0)
(1.16541 0.882158 0)
(1.27648 0.911739 0)
(3 4.74121e-08 0)
(3 3.66323e-07 0)
(3 1.12908e-06 0)
(2.99999 3.39009e-06 0)
(2.99997 8.03982e-06 0)
(2.99994 2.12374e-05 0)
(2.99984 4.78028e-05 0)
(2.99965 0.00012352 0)
(2.9991 0.000273282 0)
(2.99803 0.00072142 0)
(2.99471 0.00153128 0)
(2.98885 0.00445292 0)
(2.96778 0.0090431 0)
(2.92552 0.0283792 0)
(2.79263 0.0692857 0)
(2.38755 0.207193 0)
(1.58227 0.56636 0)
(1.05467 0.725321 0)
(0.992453 0.748139 0)
(1.00518 0.757574 0)
(1.04394 0.76761 0)
(1.08389 0.79651 0)
(1.13445 0.832869 0)
(1.20679 0.866314 0)
(1.30419 0.889161 0)
(3 2.61517e-08 0)
(3 3.4688e-07 0)
(3 8.55179e-07 0)
(2.99999 3.11544e-06 0)
(2.99998 6.20187e-06 0)
(2.99995 1.94421e-05 0)
(2.99988 3.70894e-05 0)
(2.99974 0.000113296 0)
(2.99932 0.000210595 0)
(2.99852 0.000664082 0)
(2.99601 0.00112586 0)
(2.99166 0.00406561 0)
(2.97538 0.00567602 0)
(2.94632 0.0252095 0)
(2.83999 0.0396115 0)
(2.55197 0.158059 0)
(1.8763 0.379772 0)
(1.17179 0.740834 0)
(1.04099 0.774174 0)
(1.04516 0.788496 0)
(1.08322 0.789906 0)
(1.12962 0.804928 0)
(1.17915 0.830842 0)
(1.24415 0.856292 0)
(1.32923 0.873309 0)
(3 1.91215e-08 0)
(3 2.58151e-07 0)
(3 6.31954e-07 0)
(2.99999 2.31557e-06 0)
(2.99999 4.57227e-06 0)
(2.99996 1.43843e-05 0)
(2.99992 2.71768e-05 0)
(2.9998 8.32177e-05 0)
(2.99956 0.000154716 0)
(2.9988 0.000480834 0)
(2.99754 0.000856637 0)
(2.99266 0.00292965 0)
(2.98501 0.00460814 0)
(2.95455 0.0191889 0)
(2.89012 0.0311317 0)
(2.69189 0.124633 0)
(2.10662 0.311746 0)
(1.36732 0.754669 0)
(1.09326 0.806356 0)
(1.08309 0.816319 0)
(1.11509 0.814143 0)
(1.16678 0.815984 0)
(1.21872 0.832001 0)
(1.27841 0.850281 0)
(1.35316 0.862711 0)
(3 3.57451e-08 0)
(3 1.31274e-07 0)
(3 6.18809e-07 0)
(3 1.3063e-06 0)
(2.99999 4.28502e-06 0)
(2.99997 8.20062e-06 0)
(2.99994 2.51503e-05 0)
(2.99984 4.66842e-05 0)
(2.99965 0.000144805 0)
(2.99911 0.000253404 0)
(2.99805 0.000877495 0)
(2.99479 0.0013484 0)
(2.98892 0.00570515 0)
(2.96868 0.00820852 0)
(2.92668 0.0372236 0)
(2.7993 0.0705747 0)
(2.41391 0.252492 0)
(1.66642 0.631424 0)
(1.20733 0.806915 0)
(1.14498 0.832591 0)
(1.15731 0.838548 0)
(1.20408 0.832677 0)
(1.25708 0.837893 0)
(1.31187 0.848541 0)
(1.37756 0.856369 0)
(3 2.21582e-08 0)
(3 1.20848e-07 0)
(3 4.48922e-07 0)
(3 1.15229e-06 0)
(2.99999 3.16186e-06 0)
(2.99998 7.24599e-06 0)
(2.99995 1.87407e-05 0)
(2.99989 4.18862e-05 0)
(2.99973 0.00010719 0)
(2.99941 0.000237694 0)
(2.99845 0.000612704 0)
(2.99667 0.00133916 0)
(2.99074 0.00359561 0)
(2.98024 0.00767133 0)
(2.94351 0.0216041 0)
(2.85682 0.0531832 0)
(2.61467 0.144035 0)
(1.93129 0.436684 0)
(1.3451 0.788035 0)
(1.19955 0.84221 0)
(1.19603 0.862296 0)
(1.23434 0.857607 0)
(1.28934 0.850312 0)
(1.34265 0.851856 0)
(1.4015 0.854418 0)
(3 1.27622e-08 0)
(3 9.92721e-08 0)
(3 3.05757e-07 0)
(3 9.21266e-07 0)
(2.99999 2.18457e-06 0)
(2.99999 5.78092e-06 0)
(2.99997 1.30191e-05 0)
(2.99992 3.35734e-05 0)
(2.99982 7.46596e-05 0)
(2.99953 0.000192609 0)
(2.99897 0.0004242 0)
(2.99728 0.00112615 0)
(2.9942 0.00239203 0)
(2.98362 0.00684167 0)
(2.96446 0.0147624 0)
(2.8971 0.0422659 0)
(2.72797 0.114873 0)
(2.27326 0.307738 0)
(1.53197 0.771861 0)
(1.26263 0.863082 0)
(1.23656 0.8825 0)
(1.25871 0.882282 0)
(1.31089 0.868203 0)
(1.36779 0.860624 0)
(1.42424 0.857611 0)
(3 1.53808e-08 0)
(3 6.0142e-08 0)
(3 2.72442e-07 0)
(3 5.99301e-07 0)
(3 1.90804e-06 0)
(2.99999 3.82298e-06 0)
(2.99998 1.13492e-05 0)
(2.99995 2.23114e-05 0)
(2.99986 6.53328e-05 0)
(2.9997 0.000127687 0)
(2.99923 0.000376155 0)
(2.99831 0.000722658 0)
(2.99551 0.00223852 0)
(2.99052 0.00397092 0)
(2.97306 0.0141176 0)
(2.93927 0.024176 0)
(2.82914 0.0899535 0)
(2.52569 0.21234 0)
(1.867 0.601777 0)
(1.38431 0.854476 0)
(1.29536 0.88843 0)
(1.29564 0.900004 0)
(1.33502 0.888425 0)
(1.39081 0.872717 0)
(1.44596 0.864674 0)
(3 7.09121e-09 0)
(3 5.49566e-08 0)
(3 1.69418e-07 0)
(3 5.08921e-07 0)
(3 1.20678e-06 0)
(2.99999 3.17942e-06 0)
(2.99998 7.15768e-06 0)
(2.99996 1.8344e-05 0)
(2.9999 4.07662e-05 0)
(2.99979 0.000104067 0)
(2.99946 0.000230027 0)
(2.99883 0.000593165 0)
(2.9969 0.00128718 0)
(2.99353 0.00350379 0)
(2.98132 0.00721739 0)
(2.96024 0.0216949 0)
(2.88363 0.0476692 0)
(2.68739 0.148022 0)
(2.20243 0.390919 0)
(1.54692 0.838232 0)
(1.34809 0.904565 0)
(1.33101 0.916972 0)
(1.35437 0.909568 0)
(1.40715 0.889274 0)
(1.46459 0.874803 0)
(3 4.05451e-09 0)
(3 4.44109e-08 0)
(3 1.17608e-07 0)
(3 4.00837e-07 0)
(3 8.44688e-07 0)
(3 2.48318e-06 0)
(2.99999 5.01117e-06 0)
(2.99997 1.42605e-05 0)
(2.99993 2.84866e-05 0)
(2.99986 8.06109e-05 0)
(2.99963 0.000160007 0)
(2.99919 0.00045769 0)
(2.99793 0.000881676 0)
(2.99547 0.00270606 0)
(2.98804 0.00469877 0)
(2.97325 0.0170847 0)
(2.92762 0.0285067 0)
(2.81405 0.11078 0)
(2.51608 0.246131 0)
(1.81941 0.695746 0)
(1.45019 0.882155 0)
(1.38359 0.914111 0)
(1.3863 0.922413 0)
(1.42667 0.907291 0)
(1.48212 0.885012 0)
(3 2.77674e-09 0)
(3 3.03099e-08 0)
(3 8.03305e-08 0)
(3 2.74025e-07 0)
(3 5.77276e-07 0)
(3 1.69744e-06 0)
(2.99999 3.42174e-06 0)
(2.99998 9.73734e-06 0)
(2.99996 1.94329e-05 0)
(2.9999 5.49534e-05 0)
(2.99978 0.000109173 0)
(2.99943 0.000309844 0)
(2.99877 0.000611473 0)
(2.99671 0.00176704 0)
(2.9932 0.00342288 0)
(2.98031 0.0104003 0)
(2.95789 0.0203823 0)
(2.87608 0.0643836 0)
(2.67164 0.153786 0)
(2.16199 0.438092 0)
(1.58503 0.849603 0)
(1.43461 0.916061 0)
(1.41977 0.931414 0)
(1.44265 0.924622 0)
(1.49344 0.900005 0)
(3 3.14494e-09 0)
(3 1.69542e-08 0)
(3 6.30254e-08 0)
(3 1.616e-07 0)
(3 4.41519e-07 0)
(3 1.00938e-06 0)
(3 2.59033e-06 0)
(2.99999 5.77158e-06 0)
(2.99997 1.46008e-05 0)
(2.99993 3.22801e-05 0)
(2.99985 8.15539e-05 0)
(2.99961 0.000179305 0)
(2.99914 0.000459801 0)
(2.99781 0.000982171 0)
(2.99522 0.0027052 0)
(2.98738 0.00542635 0)
(2.97197 0.0166975 0)
(2.92389 0.0344715 0)
(2.80339 0.11171 0)
(2.48892 0.281396 0)
(1.83727 0.725907 0)
(1.51823 0.899485 0)
(1.46309 0.930274 0)
(1.46732 0.937277 0)
(1.5062 0.920177 0)
(3 2.59589e-09 0)
(3 1.12057e-08 0)
(3 4.77071e-08 0)
(3 1.09448e-07 0)
(3 3.31767e-07 0)
(3 6.8818e-07 0)
(3 1.94652e-06 0)
(2.99999 3.95405e-06 0)
(2.99998 1.10067e-05 0)
(2.99995 2.22491e-05 0)
(2.9999 6.17669e-05 0)
(2.99975 0.000124446 0)
(2.99944 0.000346806 0)
(2.99858 0.000694239 0)
(2.9969 0.00196938 0)
(2.99188 0.00386103 0)
(2.98224 0.0115727 0)
(2.95191 0.0226116 0)
(2.88054 0.0723902 0)
(2.68567 0.166454 0)
(2.14077 0.499477 0)
(1.66419 0.857059 0)
(1.51977 0.927427 0)
(1.5012 0.943994 0)
(1.51958 0.937782 0)
(3 1.71417e-09 0)
(3 7.41669e-09 0)
(3 3.15004e-08 0)
(3 7.24968e-08 0)
(3 2.19118e-07 0)
(3 4.55803e-07 0)
(3 1.28468e-06 0)
(3 2.61647e-06 0)
(2.99999 7.25341e-06 0)
(2.99997 1.47015e-05 0)
(2.99993 4.06195e-05 0)
(2.99985 8.20979e-05 0)
(2.99962 0.000227427 0)
(2.99916 0.000457658 0)
(2.99786 0.00128446 0)
(2.99534 0.00254683 0)
(2.98771 0.00747979 0)
(2.97275 0.0146212 0)
(2.92631 0.0452426 0)
(2.81277 0.104127 0)
(2.49969 0.306492 0)
(1.90067 0.732697 0)
(1.60266 0.908632 0)
(1.54455 0.941441 0)
(1.54393 0.948724 0)
(3 7.64789e-10 0)
(3 5.91244e-09 0)
(3 1.82324e-08 0)
(3 5.45764e-08 0)
(3 1.29279e-07 0)
(3 3.38615e-07 0)
(3 7.60843e-07 0)
(3 1.93476e-06 0)
(2.99999 4.2942e-06 0)
(2.99998 1.08496e-05 0)
(2.99996 2.39916e-05 0)
(2.9999 6.06086e-05 0)
(2.99976 0.000133709 0)
(2.99946 0.000339196 0)
(2.99865 0.000745268 0)
(2.99704 0.00191927 0)
(2.99231 0.00418752 0)
(2.98318 0.0111371 0)
(2.9549 0.0250341 0)
(2.88926 0.0686604 0)
(2.70733 0.176535 0)
(2.20322 0.49448 0)
(1.74601 0.863302 0)
(1.59827 0.937865 0)
(1.57599 0.954024 0)
(3 4.25201e-10 0)
(3 4.21781e-09 0)
(3 1.16283e-08 0)
(3 3.81331e-08 0)
(3 8.28361e-08 0)
(3 2.34714e-07 0)
(3 4.86678e-07 0)
(3 1.33392e-06 0)
(3 2.73814e-06 0)
(2.99999 7.44358e-06 0)
(2.99997 1.52385e-05 0)
(2.99994 4.1363e-05 0)
(2.99985 8.44554e-05 0)
(2.99967 0.000229783 0)
(2.99918 0.000466938 0)
(2.99821 0.00128456 0)
(2.99536 0.00257171 0)
(2.99018 0.00737172 0)
(2.97305 0.0145033 0)
(2.93896 0.0443384 0)
(2.83629 0.0988505 0)
(2.53326 0.30812 0)
(2.01246 0.696411 0)
(1.69567 0.90037 0)
(1.6264 0.942983 0)
(3 3.22523e-10 0)
(3 2.48221e-09 0)
(3 7.66207e-09 0)
(3 2.28454e-08 0)
(3 5.41073e-08 0)
(3 1.40997e-07 0)
(3 3.16563e-07 0)
(3 7.99928e-07 0)
(3 1.77404e-06 0)
(2.99999 4.44714e-06 0)
(2.99998 9.83131e-06 0)
(2.99996 2.45801e-05 0)
(2.99991 5.4238e-05 0)
(2.99978 0.000135547 0)
(2.99952 0.000298277 0)
(2.99879 0.000749957 0)
(2.99737 0.00163033 0)
(2.99316 0.00425751 0)
(2.98505 0.00888488 0)
(2.96015 0.0250945 0)
(2.90276 0.0559829 0)
(2.74145 0.159513 0)
(2.30592 0.442075 0)
(1.85325 0.823013 0)
(1.68477 0.926269 0)
(3 2.89102e-10 0)
(3 1.27868e-09 0)
(3 5.3344e-09 0)
(3 1.2474e-08 0)
(3 3.70475e-08 0)
(3 7.81078e-08 0)
(3 2.16039e-07 0)
(3 4.45351e-07 0)
(3 1.21017e-06 0)
(3 2.48211e-06 0)
(2.99999 6.71351e-06 0)
(2.99998 1.37484e-05 0)
(2.99994 3.71755e-05 0)
(2.99988 7.60149e-05 0)
(2.99969 0.000206259 0)
(2.99932 0.000420474 0)
(2.99828 0.00115501 0)
(2.99622 0.00233079 0)
(2.99034 0.00664009 0)
(2.97808 0.0132837 0)
(2.94328 0.0394069 0)
(2.85895 0.0903462 0)
(2.62471 0.262096 0)
(2.10839 0.648321 0)
(1.78531 0.890093 0)
(3 1.25007e-10 0)
(3 9.6372e-10 0)
(3 2.97492e-09 0)
(3 8.87917e-09 0)
(3 2.10242e-08 0)
(3 5.48005e-08 0)
(3 1.22942e-07 0)
(3 3.10648e-07 0)
(3 6.88091e-07 0)
(3 1.72548e-06 0)
(2.99999 3.80834e-06 0)
(2.99999 9.53542e-06 0)
(2.99997 2.10035e-05 0)
(2.99992 5.26487e-05 0)
(2.99981 0.000115726 0)
(2.99959 0.000291427 0)
(2.99896 0.000638434 0)
(2.99773 0.001625 0)
(2.99417 0.00357631 0)
(2.98744 0.00918997 0)
(2.96625 0.0211332 0)
(2.92159 0.0548685 0)
(2.79035 0.139928 0)
(2.41749 0.390973 0)
(1.97492 0.779262 0)
(3 6.80934e-11 0)
(3 6.4711e-10 0)
(3 1.81549e-09 0)
(3 5.85579e-09 0)
(3 1.28909e-08 0)
(3 3.59285e-08 0)
(3 7.5395e-08 0)
(3 2.0311e-07 0)
(3 4.21839e-07 0)
(3 1.12622e-06 0)
(3 2.3347e-06 0)
(2.99999 6.21442e-06 0)
(2.99998 1.28798e-05 0)
(2.99996 3.4247e-05 0)
(2.99989 7.09171e-05 0)
(2.99976 0.000188786 0)
(2.99939 0.000389885 0)
(2.99867 0.00104575 0)
(2.99662 0.0021357 0)
(2.99275 0.00594219 0)
(2.98058 0.0116976 0)
(2.95744 0.0353428 0)
(2.88415 0.073899 0)
(2.68404 0.234115 0)
(2.26585 0.555141 0)
(3 4.11405e-11 0)
(3 3.88146e-10 0)
(3 1.09218e-09 0)
(3 3.51579e-09 0)
(3 7.75406e-09 0)
(3 2.15516e-08 0)
(3 4.52785e-08 0)
(3 1.2157e-07 0)
(3 2.52671e-07 0)
(3 6.72149e-07 0)
(3 1.39408e-06 0)
(2.99999 3.69669e-06 0)
(2.99999 7.66582e-06 0)
(2.99997 2.02969e-05 0)
(2.99994 4.20733e-05 0)
(2.99985 0.000111398 0)
(2.99967 0.000230469 0)
(2.99918 0.00061282 0)
(2.99824 0.0012577 0)
(2.99543 0.00343487 0)
(2.99042 0.00678686 0)
(2.97374 0.0201739 0)
(2.94134 0.0395414 0)
(2.8413 0.124104 0)
(2.56763 0.314622 0)
(3 4.0489e-11 0)
(3 1.86208e-10 0)
(3 7.57593e-10 0)
(3 1.80109e-09 0)
(3 5.23796e-09 0)
(3 1.11902e-08 0)
(3 3.02998e-08 0)
(3 6.32058e-08 0)
(3 1.68052e-07 0)
(3 3.4863e-07 0)
(3 9.21924e-07 0)
(3 1.91015e-06 0)
(2.99999 5.04006e-06 0)
(2.99998 1.04353e-05 0)
(2.99996 2.75089e-05 0)
(2.99991 5.68563e-05 0)
(2.99981 0.000150054 0)
(2.99953 0.000308985 0)
(2.99897 0.000823679 0)
(2.99735 0.00166426 0)
(2.99449 0.00465855 0)
(2.98467 0.00894169 0)
(2.96788 0.0274047 0)
(2.90957 0.055412 0)
(2.76532 0.173463 0)
(3 2.37536e-11 0)
(3 1.10422e-10 0)
(3 4.47548e-10 0)
(3 1.0665e-09 0)
(3 3.09276e-09 0)
(3 6.61915e-09 0)
(3 1.78689e-08 0)
(3 3.73343e-08 0)
(3 9.89578e-08 0)
(3 2.05618e-07 0)
(3 5.42079e-07 0)
(3 1.12518e-06 0)
(3 2.95977e-06 0)
(2.99999 6.14266e-06 0)
(2.99998 1.61382e-05 0)
(2.99995 3.34656e-05 0)
(2.99988 8.79402e-05 0)
(2.99975 0.000181872 0)
(2.99937 0.000481717 0)
(2.99862 0.000979059 0)
(2.99648 0.00271031 0)
(2.99251 0.0052227 0)
(2.97996 0.0159957 0)
(2.95547 0.0305513 0)
(2.88043 0.0973822 0)
(3 9.72741e-12 0)
(3 7.48317e-11 0)
(3 2.31156e-10 0)
(3 6.87335e-10 0)
(3 1.62591e-09 0)
(3 4.21396e-09 0)
(3 9.43191e-09 0)
(3 2.3661e-08 0)
(3 5.22504e-08 0)
(3 1.29971e-07 0)
(3 2.8602e-07 0)
(3 7.09761e-07 0)
(3 1.56032e-06 0)
(3 3.86906e-06 0)
(2.99999 8.49995e-06 0)
(2.99997 2.10789e-05 0)
(2.99993 4.62566e-05 0)
(2.99985 0.00011487 0)
(2.99964 0.000251664 0)
(2.99921 0.00062873 0)
(2.99803 0.0013678 0)
(2.99572 0.00351372 0)
(2.989 0.0074438 0)
(2.97597 0.0203008 0)
(2.9371 0.0446443 0)
(3 5.02097e-12 0)
(3 4.65366e-11 0)
(3 1.3199e-10 0)
(3 4.20314e-10 0)
(3 9.32025e-10 0)
(3 2.56064e-09 0)
(3 5.40063e-09 0)
(3 1.43218e-08 0)
(3 2.98518e-08 0)
(3 7.84131e-08 0)
(3 1.62987e-07 0)
(3 4.26826e-07 0)
(3 8.86707e-07 0)
(3 2.31887e-06 0)
(2.99999 4.81669e-06 0)
(2.99998 1.25867e-05 0)
(2.99996 2.61278e-05 0)
(2.99992 6.82873e-05 0)
(2.99979 0.000141449 0)
(2.99955 0.000370717 0)
(2.99888 0.000764049 0)
(2.99757 0.00202831 0)
(2.99387 0.00412009 0)
(2.98642 0.0113803 0)
(2.96536 0.0231149 0)
(3 2.787e-12 0)
(3 2.59549e-11 0)
(3 7.32026e-11 0)
(3 2.34563e-10 0)
(3 5.17595e-10 0)
(3 1.42815e-09 0)
(3 2.99674e-09 0)
(3 7.97566e-09 0)
(3 1.65335e-08 0)
(3 4.35794e-08 0)
(3 9.00678e-08 0)
(3 2.36703e-07 0)
(3 4.8889e-07 0)
(3 1.2833e-06 0)
(3 2.65038e-06 0)
(2.99999 6.95345e-06 0)
(2.99998 1.43561e-05 0)
(2.99995 3.76803e-05 0)
(2.99989 7.76813e-05 0)
(2.99973 0.000204439 0)
(2.99941 0.000420161 0)
(2.99852 0.00111552 0)
(2.99676 0.00227589 0)
(2.99186 0.00617169 0)
(2.98167 0.012789 0)
(3 2.25524e-12 0)
(3 1.21731e-11 0)
(3 4.48828e-11 0)
(3 1.15076e-10 0)
(3 3.10324e-10 0)
(3 7.06344e-10 0)
(3 1.77981e-09 0)
(3 3.9384e-09 0)
(3 9.7483e-09 0)
(3 2.14106e-08 0)
(3 5.2712e-08 0)
(3 1.15517e-07 0)
(3 2.83797e-07 0)
(3 6.21347e-07 0)
(3 1.52466e-06 0)
(2.99999 3.33506e-06 0)
(2.99999 8.17839e-06 0)
(2.99997 1.7864e-05 0)
(2.99993 4.38238e-05 0)
(2.99984 9.55391e-05 0)
(2.99964 0.000235083 0)
(2.99912 0.000510809 0)
(2.99808 0.00126682 0)
(2.99518 0.00276845 0)
(2.98945 0.00689446 0)
(3 1.39464e-12 0)
(3 5.99701e-12 0)
(3 2.55356e-11 0)
(3 5.79997e-11 0)
(3 1.74275e-10 0)
(3 3.55244e-10 0)
(3 9.90273e-10 0)
(3 1.96169e-09 0)
(3 5.37308e-09 0)
(3 1.05256e-08 0)
(3 2.87537e-08 0)
(3 5.59147e-08 0)
(3 1.52975e-07 0)
(3 2.95394e-07 0)
(3 8.10412e-07 0)
(3 1.55234e-06 0)
(2.99999 4.27504e-06 0)
(2.99998 8.10485e-06 0)
(2.99995 2.24592e-05 0)
(2.99989 4.19797e-05 0)
(2.99975 0.000117685 0)
(2.99938 0.000215356 0)
(2.99864 0.000619613 0)
(2.99654 0.00107531 0)
(2.9925 0.00333952 0)
(3 7.38319e-13 0)
(3 2.68986e-12 0)
(3 1.28817e-11 0)
(3 2.68423e-11 0)
(3 8.7591e-11 0)
(3 1.64354e-10 0)
(3 4.94932e-10 0)
(3 8.96276e-10 0)
(3 2.66228e-09 0)
(3 4.72132e-09 0)
(3 1.40995e-08 0)
(3 2.45318e-08 0)
(3 7.41627e-08 0)
(3 1.26378e-07 0)
(3 3.88216e-07 0)
(3 6.45734e-07 0)
(2.99999 2.02304e-06 0)
(2.99998 3.26749e-06 0)
(2.99996 1.05001e-05 0)
(2.99992 1.63247e-05 0)
(2.99979 5.43831e-05 0)
(2.99954 8.00363e-05 0)
(2.9988 0.000282837 0)
(2.99744 0.000368618 0)
(2.99287 0.00154229 0)
(3 2.36446e-13 0)
(3 1.77599e-12 0)
(3 5.47317e-12 0)
(3 1.6041e-11 0)
(3 3.78721e-11 0)
(3 9.62122e-11 0)
(3 2.13652e-10 0)
(3 5.22009e-10 0)
(3 1.13931e-09 0)
(3 2.74834e-09 0)
(3 5.9634e-09 0)
(3 1.43079e-08 0)
(3 3.09654e-08 0)
(3 7.40411e-08 0)
(3 1.60017e-07 0)
(3 3.81361e-07 0)
(2.99999 8.23988e-07 0)
(2.99999 1.95459e-06 0)
(2.99997 4.22995e-06 0)
(2.99992 9.94675e-06 0)
(2.99981 2.1576e-05 0)
(2.99957 4.92098e-05 0)
(2.99888 0.000111434 0)
(2.99759 0.000224238 0)
(2.99329 0.000553453 0)
(3 -1.37843e-14 0)
(3 1.27114e-12 0)
(3 1.72215e-12 0)
(3 1.06152e-11 0)
(3 1.23064e-11 0)
(3 6.23616e-11 0)
(3 6.67403e-11 0)
(3 3.38686e-10 0)
(3 3.31631e-10 0)
(3 1.79936e-09 0)
(3 1.57905e-09 0)
(3 9.49163e-09 0)
(3 7.263e-09 0)
(3 4.99656e-08 0)
(3 3.20843e-08 0)
(3 2.63086e-07 0)
(2.99999 1.33059e-07 0)
(2.99999 1.38875e-06 0)
(2.99997 4.80754e-07 0)
(2.99993 7.37186e-06 0)
(2.99982 9.71563e-07 0)
(2.99961 3.96293e-05 0)
(2.99894 -1.15003e-05 0)
(2.99781 0.000238457 0)
(2.99348 -0.000307482 0)
(3 4.55975e-14 0)
(3 2.8104e-13 0)
(3 9.67374e-13 0)
(3 2.7844e-12 0)
(3 6.59114e-12 0)
(3 1.65706e-11 0)
(3 3.65998e-11 0)
(3 8.78549e-11 0)
(3 1.8987e-10 0)
(3 4.47174e-10 0)
(3 9.5798e-10 0)
(3 2.23611e-09 0)
(3 4.76999e-09 0)
(3 1.10633e-08 0)
(3 2.35351e-08 0)
(3 5.42346e-08 0)
(2.99999 1.15159e-07 0)
(2.99999 2.63109e-07 0)
(2.99997 5.58474e-07 0)
(2.99992 1.25868e-06 0)
(2.99983 2.6728e-06 0)
(2.99956 5.82625e-06 0)
(2.99905 1.27251e-05 0)
(2.99734 2.49289e-05 0)
(2.9945 5.72567e-05 0)
(3 1.50518e-13 0)
(3 -3.21844e-13 0)
(3 1.17847e-12 0)
(3 -2.25778e-12 0)
(3 7.31704e-12 0)
(3 -1.33846e-11 0)
(3 4.15837e-11 0)
(3 -7.89081e-11 0)
(3 2.3173e-10 0)
(3 -4.68698e-10 0)
(3 1.28532e-09 0)
(3 -2.77755e-09 0)
(3 7.13526e-09 0)
(3 -1.63947e-08 0)
(3 3.97164e-08 0)
(3 -9.64767e-08 0)
(2.99999 2.22498e-07 0)
(2.99999 -5.67944e-07 0)
(2.99997 1.2678e-06 0)
(2.99993 -3.36159e-06 0)
(2.99982 7.55792e-06 0)
(2.99962 -2.02677e-05 0)
(2.99896 5.26704e-05 0)
(2.99785 -0.000146895 0)
(2.99354 0.000501208 0)
(3 -2.6149e-15 0)
(3 -1.4442e-14 0)
(3 -1.11472e-13 0)
(3 -4.14637e-13 0)
(3 -1.07116e-12 0)
(3 -3.43422e-12 0)
(3 -8.04754e-12 0)
(3 -2.43184e-11 0)
(3 -5.64174e-11 0)
(3 -1.65341e-10 0)
(3 -3.81148e-10 0)
(3 -1.09696e-09 0)
(3 -2.51796e-09 0)
(3 -7.14896e-09 0)
(3 -1.64061e-08 0)
(3 -4.59967e-08 0)
(2.99999 -1.06419e-07 0)
(2.99999 -2.92561e-07 0)
(2.99997 -6.90728e-07 0)
(2.99993 -1.82771e-06 0)
(2.99982 -4.40331e-06 0)
(2.9996 -9.95605e-06 0)
(2.99894 -3.09435e-05 0)
(2.99772 -3.09385e-05 0)
(2.99356 -0.000192648 0)
(1.25502 1.05953 0)
(1.54889 0.842968 0)
(1.3583 0.549072 0)
(0.62263 0.294737 0)
(-0.0822196 0.302598 0)
(-0.303406 0.0784715 0)
(-0.513993 0.0121165 0)
(-0.679045 -0.0141928 0)
(-0.789131 -0.0277986 0)
(-0.841127 -0.0306555 0)
(-0.863439 -0.0206689 0)
(-0.875901 -0.00741767 0)
(-0.889897 0.00289782 0)
(-0.909964 0.0092133 0)
(-0.934365 0.0116505 0)
(-0.959999 0.0108902 0)
(-0.985873 0.00876586 0)
(-1.01232 0.00651599 0)
(-1.03907 0.00468893 0)
(-1.06557 0.00331279 0)
(-1.09153 0.00194175 0)
(-1.11746 0.000622159 0)
(-1.14322 0.000440996 0)
(-1.16268 0.00176942 0)
(-1.17282 0.00195654 0)
(-1.17782 0.00135893 0)
(-1.17643 0.000477313 0)
(-1.16137 -0.00159567 0)
(-1.12634 -0.00549874 0)
(-1.07142 -0.0103793 0)
(-1.0005 -0.0150362 0)
(-0.918865 -0.0190978 0)
(-0.830853 -0.0223687 0)
(-0.739725 -0.0249213 0)
(-0.648517 -0.0267394 0)
(-0.559727 -0.0279589 0)
(-0.474666 -0.0292032 0)
(-0.394144 -0.0306868 0)
(-0.314754 -0.0338162 0)
(-0.239726 -0.0350119 0)
(-0.167786 -0.035265 0)
(-0.0982999 -0.0367834 0)
(-0.0339417 -0.0414586 0)
(0.0404435 -0.0350905 0)
(0.0988259 -0.0311966 0)
(0.157368 -0.0297402 0)
(0.211896 -0.0284545 0)
(0.2637 -0.0270419 0)
(0.311937 -0.0255728 0)
(0.357129 -0.0242848 0)
(0.40347 -0.0237727 0)
(0.450678 -0.0237725 0)
(0.495621 -0.0228062 0)
(0.538277 -0.0215275 0)
(0.579302 -0.0204619 0)
(0.618881 -0.019477 0)
(0.657226 -0.0186064 0)
(0.694332 -0.017728 0)
(0.730326 -0.0169174 0)
(0.7652 -0.0161076 0)
(0.799052 -0.0153582 0)
(0.831881 -0.0146173 0)
(0.863764 -0.0139295 0)
(0.894701 -0.0132565 0)
(0.924749 -0.012632 0)
(0.953907 -0.0120275 0)
(0.982218 -0.0114694 0)
(1.00968 -0.0109346 0)
(1.03631 -0.0104455 0)
(1.0621 -0.00998627 0)
(1.08706 -0.00957493 0)
(1.11116 -0.00920116 0)
(1.13438 -0.00887856 0)
(1.15668 -0.00860504 0)
(1.17802 -0.00839383 0)
(1.19832 -0.00824277 0)
(1.21755 -0.00815755 0)
(1.23562 -0.0081439 0)
(1.25245 -0.00820591 0)
(1.26795 -0.00834554 0)
(1.28205 -0.00855721 0)
(1.29453 -0.00882518 0)
(1.30514 -0.00910429 0)
(1.31463 -0.00941963 0)
(1.32363 -0.00976509 0)
(1.33173 -0.0101341 0)
(1.33837 -0.0104806 0)
(1.34379 -0.0106657 0)
(1.34872 -0.0106745 0)
(1.35348 -0.0105032 0)
(1.35844 -0.0101423 0)
(1.36396 -0.00959538 0)
(1.37043 -0.00893181 0)
(1.37796 -0.0081571 0)
(1.38599 -0.00734025 0)
(1.39427 -0.00645283 0)
(1.403 -0.00549286 0)
(1.41191 -0.00450696 0)
(1.41941 -0.00338371 0)
(1.42888 -0.00238595 0)
(1.32991 0.977804 0)
(1.54542 0.69602 0)