/*--------------------------------*- C++ -*----------------------------------*\
| =========                 |                                                 |
| \\      /  F ield         | OpenFOAM: The Open Source CFD Toolbox           |
|  \\    /   O peration     | Version:  2112                                  |
|   \\  /    A nd           | Website:  www.openfoam.com                      |
|    \\/     M anipulation  |                                                 |
\*---------------------------------------------------------------------------*/
FoamFile
{
    version     2.0;
    format      ascii;
    arch        "LSB;label=32;scalar=64";
    class       volScalarField;
    location    "70.5";
    object      p;
}
// * * * * * * * * * * * * * * * * * * * * * * * * * * * * * * * * * * * * * //

dimensions      [0 2 -2 0 0 0 0];

internalField   nonuniform List<scalar> 
8800
(
0.846591
0.798806
0.76012
0.731129
0.710272
0.695452
0.684872
0.677414
0.672627
0.670614
0.67193
0.676161
0.682836
0.692174
0.704969
0.722714
0.747498
0.781444
0.823998
0.8827
0.677833
0.685512
0.692993
0.696305
0.694807
0.689738
0.683264
0.677207
0.672512
0.669708
0.669478
0.672031
0.676557
0.682529
0.689317
0.69561
0.699259
0.698528
0.693115
0.684429
0.656226
0.662387
0.666517
0.669467
0.671525
0.672141
0.671052
0.668972
0.666992
0.666134
0.66715
0.669576
0.672409
0.674615
0.675239
0.674053
0.671721
0.668334
0.663779
0.660018
0.650398
0.653049
0.655806
0.658215
0.659859
0.661033
0.661794
0.66194
0.661684
0.661689
0.662501
0.663721
0.664598
0.66469
0.664101
0.663025
0.66122
0.658657
0.656259
0.654755
0.644993
0.646418
0.648202
0.650241
0.652036
0.653392
0.654403
0.655232
0.655892
0.656519
0.657238
0.65779
0.657933
0.657678
0.657004
0.655773
0.654091
0.652253
0.650951
0.650119
0.639885
0.640806
0.642052
0.643627
0.645271
0.646813
0.648123
0.649227
0.650244
0.651209
0.651977
0.652371
0.65238
0.651979
0.651127
0.649949
0.648638
0.64739
0.646573
0.646021
0.634939
0.635609
0.636576
0.637888
0.639311
0.640789
0.642256
0.643621
0.64488
0.646071
0.646985
0.647431
0.647408
0.646945
0.646174
0.645253
0.644261
0.643352
0.642772
0.642366
0.630107
0.630623
0.631412
0.632554
0.633847
0.635243
0.636721
0.638242
0.639739
0.641173
0.642288
0.642853
0.6429
0.642572
0.642012
0.641319
0.640572
0.639905
0.639477
0.639159
0.625316
0.625727
0.626388
0.627407
0.62863
0.629983
0.631466
0.633077
0.634778
0.636489
0.637863
0.638632
0.638884
0.638784
0.638453
0.637977
0.637439
0.636967
0.636651
0.636392
0.620478
0.620813
0.621386
0.622327
0.623504
0.624846
0.626369
0.628086
0.629985
0.631998
0.633707
0.634786
0.635327
0.63549
0.635398
0.635153
0.634815
0.634506
0.634275
0.634056
0.615504
0.615781
0.616294
0.61719
0.618352
0.619723
0.621325
0.62319
0.62533
0.627694
0.629824
0.631301
0.63219
0.632655
0.632825
0.632815
0.632676
0.632511
0.632348
0.632159
0.610302
0.610535
0.611009
0.611891
0.613078
0.614521
0.616246
0.618314
0.62076
0.623561
0.626205
0.628159
0.629456
0.630269
0.630734
0.630965
0.631032
0.631001
0.630894
0.630725
0.604779
0.604976
0.605431
0.606328
0.607582
0.609142
0.611045
0.613384
0.61622
0.619565
0.622833
0.625356
0.62713
0.628341
0.629139
0.629634
0.62992
0.630015
0.629956
0.6298
0.598829
0.598997
0.59945
0.600392
0.601754
0.603482
0.60563
0.608321
0.61165
0.615666
0.619689
0.622892
0.62523
0.626901
0.628079
0.62889
0.629398
0.629616
0.629598
0.62945
0.59233
0.592475
0.592941
0.593957
0.595473
0.597429
0.5999
0.603038
0.606985
0.611825
0.61676
0.620775
0.623783
0.625997
0.627611
0.628771
0.62953
0.629876
0.629895
0.62975
0.585141
0.585262
0.585756
0.586877
0.588599
0.590852
0.593735
0.597441
0.602154
0.607999
0.614035
0.619019
0.622817
0.625673
0.627801
0.629358
0.630405
0.630884
0.630937
0.630791
0.577071
0.57718
0.577714
0.578974
0.580958
0.583588
0.586997
0.591415
0.597075
0.604146
0.611506
0.617643
0.622373
0.625982
0.628729
0.630757
0.632121
0.632738
0.632823
0.632672
0.567894
0.567993
0.568586
0.57001
0.572327
0.575447
0.579522
0.584829
0.59166
0.600223
0.60917
0.616672
0.622505
0.626999
0.630476
0.633054
0.634777
0.635541
0.635654
0.635494
0.557286
0.557365
0.558048
0.559697
0.562453
0.566199
0.57111
0.577532
0.585813
0.596191
0.607032
0.616143
0.623269
0.628807
0.633116
0.636349
0.638474
0.639389
0.639525
0.639353
0.544865
0.544931
0.545714
0.547674
0.550989
0.555535
0.561517
0.569351
0.579433
0.592016
0.605107
0.616097
0.62472
0.631472
0.636755
0.640735
0.643296
0.644361
0.644512
0.644324
0.530063
0.530117
0.531044
0.533421
0.537477
0.543077
0.550451
0.560092
0.572424
0.587681
0.603422
0.616586
0.626916
0.635055
0.641464
0.64628
0.649297
0.650498
0.650654
0.650447
0.512097
0.51214
0.513281
0.516246
0.521317
0.52834
0.53757
0.549558
0.564717
0.583203
0.60203
0.617665
0.629924
0.639621
0.647262
0.653009
0.656477
0.657784
0.657928
0.657701
0.489787
0.489828
0.491319
0.495172
0.501704
0.510733
0.522506
0.53759
0.556303
0.578656
0.601021
0.619406
0.633787
0.6452
0.65418
0.660891
0.664758
0.666116
0.666229
0.665981
0.461354
0.461416
0.463504
0.468788
0.477601
0.489575
0.504935
0.524132
0.547285
0.574196
0.600534
0.621901
0.638543
0.651775
0.662187
0.66981
0.673961
0.675286
0.675346
0.675081
0.423714
0.423882
0.427197
0.435126
0.447784
0.464271
0.484745
0.509344
0.537924
0.570078
0.60075
0.625249
0.644234
0.659318
0.671169
0.679548
0.683785
0.684974
0.68496
0.684686
0.370955
0.371963
0.378565
0.39194
0.41129
0.434764
0.462297
0.493722
0.528693
0.566656
0.601876
0.629548
0.650865
0.667753
0.680907
0.689761
0.693821
0.69477
0.694679
0.694405
0.294014
0.301452
0.316737
0.340331
0.369647
0.402478
0.438636
0.477912
0.519954
0.564184
0.604239
0.635268
0.659069
0.677875
0.692216
0.701296
0.705009
0.705709
0.705569
0.705331
0.211361
0.228935
0.253697
0.288126
0.32781
0.370124
0.414945
0.462226
0.511679
0.562775
0.608458
0.64351
0.670216
0.691191
0.706776
0.715571
0.718526
0.718937
0.718824
0.718662
0.142432
0.16314
0.195718
0.23935
0.288169
0.339408
0.392626
0.447748
0.504454
0.562189
0.613181
0.651918
0.68117
0.703842
0.719808
0.727931
0.730359
0.730709
0.730652
0.730527
0.0859736
0.108355
0.14651
0.196645
0.252679
0.311429
0.372075
0.434393
0.497908
0.561953
0.617958
0.660127
0.691646
0.715595
0.731876
0.739694
0.741888
0.742215
0.742197
0.742102
0.0390044
0.0625705
0.104549
0.15984
0.221674
0.286627
0.353649
0.422363
0.492121
0.562084
0.622859
0.668275
0.701959
0.72726
0.744019
0.751636
0.753763
0.754114
0.754128
0.754057
-0.000750156
0.0234652
0.0683375
0.127702
0.194413
0.264649
0.33722
0.411637
0.487104
0.562609
0.627949
0.67654
0.712384
0.739032
0.756333
0.764197
0.766353
0.766653
0.766693
0.766637
-0.0353405
-0.0107148
0.0364279
0.0991611
0.17
0.244839
0.322339
0.401915
0.482659
0.563402
0.633141
0.684844
0.722833
0.750862
0.768978
0.777187
0.779405
0.779715
0.779747
0.77971
-0.0662857
-0.0413097
0.00768063
0.0732867
0.147695
0.226575
0.308509
0.392815
0.478492
0.564227
0.638231
0.692995
0.733145
0.7626
0.781524
0.790145
0.792533
0.792847
0.792873
0.792851
-0.0945796
-0.0692975
-0.0187322
0.0493617
0.126905
0.209383
0.295321
0.38398
0.474293
0.564822
0.643006
0.700801
0.743064
0.77394
0.793638
0.802687
0.805265
0.805617
0.805624
0.805611
-0.121047
-0.0954186
-0.0434436
0.0268318
0.107182
0.192878
0.282445
0.375125
0.469817
0.564987
0.647293
0.708083
0.752415
0.784653
0.805111
0.814547
0.817285
0.817661
0.817639
0.81762
-0.146082
-0.120107
-0.0668044
0.00531919
0.0881894
0.176779
0.269647
0.36605
0.464883
0.564558
0.65096
0.714743
0.761108
0.794616
0.815729
0.825453
0.828307
0.82868
0.82863
0.828597
-0.170149
-0.14375
-0.0894456
-0.0154168
0.0696908
0.160885
0.256763
0.356606
0.459341
0.563394
0.653911
0.720739
0.76912
0.80381
0.825411
0.835312
0.838213
0.838571
0.838497
0.838441
-0.193389
-0.166521
-0.111265
-0.0355653
0.0515373
0.145074
0.243679
0.346689
0.453097
0.561409
0.656084
0.726057
0.776487
0.812245
0.834185
0.84413
0.846973
0.847309
0.847194
0.847126
-0.215957
-0.188683
-0.132393
-0.0552465
0.0336488
0.129278
0.230338
0.336243
0.446088
0.558518
0.657405
0.730701
0.783298
0.820093
0.842197
0.851967
0.854714
0.854988
0.854854
0.85477
-0.237989
-0.210229
-0.152962
-0.0745153
0.0159748
0.113471
0.216732
0.32526
0.43828
0.554658
0.657812
0.734673
0.789674
0.827524
0.849605
0.859016
0.861524
0.861717
0.861562
0.861468
-0.259556
-0.231202
-0.173051
-0.0933851
-0.0014748
0.0976599
0.202878
0.313752
0.429672
0.549781
0.657233
0.737952
0.79571
0.834767
0.85666
0.865426
0.867528
0.867597
0.867419
0.867319
-0.280514
-0.251599
-0.192597
-0.111849
-0.0186873
0.0818901
0.188815
0.301771
0.4203
0.543883
0.655584
0.74048
0.801461
0.842068
0.863713
0.871462
0.872849
0.872705
0.872524
0.872429
-0.300853
-0.271399
-0.211598
-0.129872
-0.0356224
0.066205
0.174618
0.289378
0.410219
0.536967
0.652796
0.74214
0.806904
0.849638
0.871263
0.877684
0.877812
0.877174
0.877032
0.876978
-0.320644
-0.290578
-0.230047
-0.147437
-0.0522279
0.050676
0.160362
0.276662
0.399503
0.529075
0.648799
0.742773
0.8119
0.857529
0.879842
0.885076
0.883274
0.881404
0.881091
0.88141
-0.339734
-0.309125
-0.247895
-0.164495
-0.0684539
0.0353773
0.14613
0.263721
0.388255
0.520283
0.643553
0.742178
0.816187
0.865502
0.889669
0.894868
0.891341
0.88712
0.885358
0.885465
-0.358216
-0.327038
-0.265165
-0.181085
-0.0843363
0.020265
0.131869
0.250503
0.376412
0.51052
0.636924
0.740077
0.819487
0.87314
0.90036
0.907603
0.904399
0.897082
0.889711
0.876409
-0.376025
-0.344303
-0.281972
-0.197403
-0.100153
0.00501982
0.11718
0.236548
0.363469
0.499194
0.62832
0.735768
0.821357
0.879933
0.910566
0.921702
0.91922
0.905362
0.884326
0.874364
-0.392997
-0.361082
-0.298135
-0.213262
-0.115549
-0.0100217
0.102278
0.222167
0.34971
0.486527
0.617736
0.728675
0.820808
0.884629
0.916256
0.927506
0.926444
0.900794
0.833758
0.803953
-0.408477
-0.378653
-0.313351
-0.228188
-0.129723
-0.0243574
0.0874835
0.207587
0.335347
0.472628
0.605063
0.718398
0.816196
0.886368
0.911945
0.918139
0.902273
0.845392
0.775968
0.733519
-0.462992
-0.394131
-0.327092
-0.243313
-0.14435
-0.0394904
0.0727205
0.192513
0.319989
0.457002
0.589627
0.704139
0.803386
0.880638
0.880666
0.878531
0.822709
0.748893
0.671036
0.627727
-0.424688
-0.408762
-0.347582
-0.262693
-0.165999
-0.0611648
0.0500254
0.169222
0.295813
0.431627
0.562708
0.676186
0.768737
0.851976
0.832983
0.712601
0.60312
0.526999
0.452013
0.480473
-0.454817
-0.425833
-0.363789
-0.279752
-0.183106
-0.0783887
0.033094
0.151677
0.277245
0.411346
0.53978
0.649133
0.731852
0.775912
0.722957
0.567528
0.435616
0.341473
0.241354
0.28943
-0.478007
-0.446112
-0.382971
-0.298816
-0.202054
-0.0974477
0.0139582
0.131717
0.255906
0.387646
0.512405
0.615477
0.689048
0.698069
0.586205
0.408893
0.252804
0.131421
-0.00118218
0.0305639
-0.500635
-0.467274
-0.403027
-0.31798
-0.221152
-0.11671
-0.00583868
0.110955
0.233554
0.362515
0.482569
0.577499
0.635279
0.612476
0.448699
0.248733
0.0559098
-0.113819
-0.30329
-0.323268
-0.522662
-0.488896
-0.423812
-0.338021
-0.241081
-0.136882
-0.0266818
0.0890094
0.209738
0.335482
0.45004
0.536611
0.574422
0.514199
0.317604
0.103971
-0.11523
-0.305723
-0.548171
-0.843891
-0.544979
-0.511234
-0.445657
-0.359423
-0.262331
-0.15833
-0.0487381
0.065801
0.184529
0.306747
0.415403
0.493384
0.509077
0.397037
0.203328
-0.00946284
-0.215689
-0.389214
-0.45972
-0.537931
-0.568527
-0.53475
-0.468912
-0.382498
-0.285392
-0.181691
-0.0728079
0.0403933
0.156782
0.274902
0.3772
0.443811
0.433877
0.287986
0.101535
-0.0921771
-0.257172
-0.351436
-0.375807
-0.391596
-0.593612
-0.559737
-0.493746
-0.407319
-0.310393
-0.207172
-0.0992488
0.0122986
0.125908
0.239249
0.334689
0.386517
0.358544
0.186551
0.00914058
-0.159359
-0.287888
-0.327643
-0.340448
-0.341748
-0.620432
-0.586367
-0.520223
-0.433884
-0.337285
-0.234781
-0.128082
-0.0185348
0.0918413
0.199805
0.287407
0.324427
0.275823
0.0928521
-0.0754633
-0.226369
-0.303784
-0.320876
-0.322281
-0.322105
-0.649047
-0.614704
-0.548373
-0.462194
-0.366088
-0.264508
-0.159312
-0.0521233
0.0545918
0.156647
0.2355
0.260512
0.175101
0.00733644
-0.152603
-0.276984
-0.314051
-0.312435
-0.311542
-0.310962
-0.679174
-0.644578
-0.578098
-0.492166
-0.39672
-0.296305
-0.192914
-0.0884418
0.0141999
0.10989
0.179859
0.187533
0.0837811
-0.0718658
-0.213642
-0.291386
-0.3015
-0.303986
-0.304604
-0.304323
-0.710271
-0.675533
-0.609144
-0.523581
-0.428998
-0.330017
-0.228737
-0.12736
-0.0291467
0.0598998
0.121012
0.113551
0.00209913
-0.138892
-0.258315
-0.290318
-0.298749
-0.300042
-0.299721
-0.299397
-0.741877
-0.707038
-0.641058
-0.55605
-0.462586
-0.365333
-0.266508
-0.168591
-0.0751602
0.00736991
0.0580252
0.0435018
-0.0723975
-0.193088
-0.288117
-0.306142
-0.297027
-0.295905
-0.295783
-0.295522
-0.773096
-0.738389
-0.673004
-0.588977
-0.496951
-0.401787
-0.305784
-0.211663
-0.123368
-0.047042
-0.00622314
-0.0204093
-0.1369
-0.233704
-0.290251
-0.29919
-0.295667
-0.294123
-0.293445
-0.293165
-0.802413
-0.768419
-0.70401
-0.621456
-0.531341
-0.438693
-0.345923
-0.2559
-0.172967
-0.102744
-0.0654254
-0.0905929
-0.187696
-0.268994
-0.276063
-0.292216
-0.294967
-0.292854
-0.292101
-0.291629
-0.828214
-0.795283
-0.732964
-0.652334
-0.564737
-0.475133
-0.386076
-0.30046
-0.222849
-0.158888
-0.121409
-0.158125
-0.230542
-0.281563
-0.305359
-0.299027
-0.297396
-0.297046
-0.296717
-0.296242
-0.848396
-0.817197
-0.757754
-0.68022
-0.595871
-0.509995
-0.425178
-0.344332
-0.271907
-0.214115
-0.17888
-0.213116
-0.264926
-0.30544
-0.331852
-0.316039
-0.309252
-0.308706
-0.307882
-0.307352
-0.860759
-0.832259
-0.776614
-0.703215
-0.623274
-0.541982
-0.462055
-0.386338
-0.319084
-0.266856
-0.234372
-0.260004
-0.292096
-0.323036
-0.312633
-0.314505
-0.315967
-0.315535
-0.314938
-0.31509
-0.862714
-0.838242
-0.787556
-0.719564
-0.645276
-0.5697
-0.495409
-0.425247
-0.363232
-0.315774
-0.280558
-0.299727
-0.320159
-0.353002
-0.337312
-0.322615
-0.316256
-0.313294
-0.312614
-0.312336
-0.852019
-0.832336
-0.788426
-0.727706
-0.660442
-0.591705
-0.523934
-0.459785
-0.403121
-0.359641
-0.318795
-0.325371
-0.324443
-0.364792
-0.346426
-0.319971
-0.310727
-0.308412
-0.307365
-0.306618
-0.826815
-0.812062
-0.777455
-0.726408
-0.667792
-0.607035
-0.546492
-0.488677
-0.437394
-0.397603
-0.350392
-0.320658
-0.263048
-0.22617
-0.233591
-0.268604
-0.289184
-0.29798
-0.300783
-0.301311
-0.789677
-0.780185
-0.755505
-0.71583
-0.667325
-0.615438
-0.562478
-0.510922
-0.464754
-0.42862
-0.393522
-0.336098
-0.243395
-0.154355
-0.200818
-0.265068
-0.305215
-0.32244
-0.329365
-0.331885
-0.747302
-0.741907
-0.727401
-0.69879
-0.660969
-0.617699
-0.572018
-0.526207
-0.483946
-0.451023
-0.423575
-0.400694
-0.415593
-0.482976
-0.540923
-0.514592
-0.462325
-0.437706
-0.433395
-0.433807
-0.709402
-0.706133
-0.699265
-0.680655
-0.65159
-0.615649
-0.57611
-0.534634
-0.494353
-0.46255
-0.440797
-0.468976
-0.555352
-0.643028
-0.600858
-0.520074
-0.499376
-0.504428
-0.500863
-0.500053
-0.682363
-0.680355
-0.676863
-0.665575
-0.642952
-0.612179
-0.576551
-0.536977
-0.49618
-0.457299
-0.434745
-0.417519
-0.450909
-0.515706
-0.643857
-0.739239
-0.791964
-0.76018
-0.661207
-0.632412
-0.661906
-0.66116
-0.660009
-0.654456
-0.637563
-0.610032
-0.575189
-0.535355
-0.49082
-0.443606
-0.410494
-0.372039
-0.351507
-0.361806
-0.419133
-0.472106
-0.482157
-0.46583
-0.367333
-0.336849
-0.650126
-0.649834
-0.649211
-0.646718
-0.635037
-0.60916
-0.573483
-0.531315
-0.482601
-0.428393
-0.380079
-0.344317
-0.234055
-0.0666475
0.112411
0.270495
0.319366
0.326129
0.32317
0.322862
-0.642336
-0.64222
-0.641831
-0.641169
-0.634089
-0.610031
-0.572657
-0.526613
-0.472779
-0.407363
-0.339916
-0.266467
-0.10213
0.143793
0.372378
0.537669
0.624058
0.669956
0.697208
0.70793
-0.636808
-0.636888
-0.637009
-0.637639
-0.633066
-0.612121
-0.57329
-0.523136
-0.461775
-0.388167
-0.300674
-0.206909
-0.0132932
0.228509
0.460274
0.6496
0.780342
0.886849
0.965883
0.999989
-0.631694
-0.631653
-0.631354
-0.630574
-0.629234
-0.614453
-0.57587
-0.521242
-0.454117
-0.3727
-0.272214
-0.174777
0.0309761
0.316813
0.608073
0.872098
1.08394
1.2293
1.3131
1.34225
-0.62906
-0.629197
-0.629269
-0.628492
-0.627793
-0.619438
-0.580381
-0.522565
-0.452529
-0.364643
-0.262944
-0.160779
0.0126912
0.302453
0.624865
0.917172
1.16127
1.31597
1.38797
1.40732
-0.628604
-0.629856
-0.633471
-0.640809
-0.648331
-0.632467
-0.587057
-0.529508
-0.458425
-0.367956
-0.268574
-0.169275
-0.0397232
0.233897
0.520776
0.773548
0.980639
1.10539
1.15938
1.17216
-0.635952
-0.637294
-0.638017
-0.634839
-0.632069
-0.618063
-0.588631
-0.542239
-0.471035
-0.378859
-0.28354
-0.188269
-0.0854362
0.118698
0.355902
0.553677
0.708827
0.797392
0.834165
0.841332
-0.67326
-0.672517
-0.659475
-0.612373
-0.555137
-0.55441
-0.586576
-0.563331
-0.490372
-0.395526
-0.301696
-0.217182
-0.14048
0.00994443
0.189274
0.335731
0.447604
0.508098
0.531708
0.535224
-0.731731
-0.72893
-0.724678
-0.702334
-0.681594
-0.66989
-0.674138
-0.610441
-0.516269
-0.41225
-0.321548
-0.248267
-0.191359
-0.0806732
0.048253
0.152184
0.228163
0.267885
0.28261
0.28425
-0.857901
-0.873421
-0.921044
-0.98061
-0.995622
-0.956139
-0.850536
-0.689975
-0.547209
-0.426621
-0.335718
-0.270661
-0.224549
-0.145923
-0.0594095
0.00907237
0.0555356
0.0786686
0.0870305
0.0865454
-1.00034
-1.02938
-1.08548
-1.13376
-1.14746
-1.10022
-0.950618
-0.737967
-0.560853
-0.429208
-0.340885
-0.283508
-0.243782
-0.188673
-0.138524
-0.102183
-0.0805794
-0.071913
-0.0691545
-0.0693365
-0.991338
-1.01178
-1.05182
-1.08703
-1.09674
-1.04833
-0.892789
-0.695434
-0.531
-0.409352
-0.33111
-0.282089
-0.245431
-0.211675
-0.186773
-0.174018
-0.170858
-0.172357
-0.172288
-0.172081
-0.775637
-0.796485
-0.833431
-0.872711
-0.8881
-0.844305
-0.713247
-0.572524
-0.45306
-0.364433
-0.307416
-0.27282
-0.246224
-0.22477
-0.211551
-0.209658
-0.213954
-0.21681
-0.216131
-0.215542
-0.426621
-0.44149
-0.47049
-0.505994
-0.531573
-0.522488
-0.473768
-0.410533
-0.351804
-0.304013
-0.273604
-0.25883
-0.248189
-0.229873
-0.216594
-0.210189
-0.20941
-0.208693
-0.207351
-0.207251
-0.0996723
-0.107771
-0.127249
-0.159403
-0.197083
-0.228468
-0.247466
-0.253111
-0.248306
-0.237546
-0.233022
-0.239106
-0.243504
-0.223909
-0.202427
-0.188755
-0.181099
-0.176655
-0.175205
-0.175781
0.0997072
0.0951408
0.0812445
0.0529289
0.00848107
-0.0450116
-0.0942081
-0.132837
-0.158422
-0.17371
-0.186605
-0.204331
-0.214156
-0.193648
-0.172554
-0.15763
-0.147273
-0.142332
-0.141607
-0.142629
0.17555
0.172681
0.162258
0.138606
0.0988004
0.047088
-0.006999
-0.0549747
-0.0916513
-0.117267
-0.135114
-0.150361
-0.154905
-0.14331
-0.132265
-0.1242
-0.117934
-0.115198
-0.115169
-0.116183
0.182557
0.180585
0.173071
0.155488
0.12511
0.0843061
0.0386179
-0.00553705
-0.0428727
-0.0699314
-0.0848564
-0.089975
-0.0884489
-0.0888702
-0.0910075
-0.0927546
-0.0929276
-0.0932816
-0.0940324
-0.0950263
0.161506
0.160282
0.155284
0.143252
0.121991
0.0924519
0.0572746
0.0218116
-0.00941499
-0.0317217
-0.0394962
-0.035395
-0.0296788
-0.0410106
-0.0556684
-0.066677
-0.0734014
-0.077358
-0.0791787
-0.0799693
0.132455
0.131781
0.128675
0.12088
0.106685
0.0863117
0.061025
0.0345771
0.010754
-0.00501932
-0.00697268
0.00185382
0.00774513
-0.00933662
-0.0297716
-0.0458065
-0.0569986
-0.0637473
-0.0663549
-0.0668503
0.102735
0.102519
0.100724
0.0959383
0.0868818
0.0734227
0.0561634
0.0378475
0.0212339
0.0115498
0.0135513
0.0226804
0.0255942
0.00863247
-0.0117083
-0.0280018
-0.0401627
-0.0476683
-0.0502915
-0.0505317
0.0752135
0.0750887
0.0741592
0.0713764
0.0658081
0.0573437
0.0462189
0.0343417
0.0239338
0.0194434
0.0248822
0.0343342
0.0347804
0.0188069
0.0021017
-0.011366
-0.0211394
-0.0270401
-0.0290237
-0.0292345
0.0498128
0.0498447
0.0494295
0.0479969
0.0448694
0.0399713
0.0334101
0.0263955
0.0207073
0.019869
0.0276301
0.0393776
0.0400576
0.0251938
0.0117022
0.00207231
-0.00363157
-0.0069908
-0.00820188
-0.00854082
0.0264899
0.0265834
0.0264814
0.0259331
0.0245287
0.0222255
0.0190289
0.0156138
0.0130733
0.0137694
0.0213668
0.034091
0.0368764
0.0233827
0.0130223
0.00804068
0.00594815
0.00543386
0.00457493
0.00401149
0.00473619
0.00481058
0.00480256
0.00495703
0.00509964
0.00485751
0.00423215
0.00346186
0.00282019
0.00272961
0.00366498
0.00682486
0.0100179
0.0122219
0.0074972
0.00478982
0.0030395
0.00170862
0.00164587
0.00152548
-0.0786922
0.0866763
0.279325
0.447372
0.581014
0.685466
0.771383
0.844607
0.878223
0.85502
0.219425
0.338847
0.46716
0.577761
0.670636
0.747191
0.809121
0.85315
0.875193
0.887422
0.435149
0.516921
0.604577
0.681774
0.748036
0.803436
0.847519
0.879783
0.903207
0.921293
0.593914
0.65254
0.713115
0.769508
0.818434
0.860011
0.894209
0.921547
0.944161
0.962524
0.71792
0.76048
0.805945
0.84923
0.887503
0.920956
0.949629
0.973537
0.993813
1.01169
0.821346
0.853899
0.891679
0.926901
0.959264
0.988303
1.0137
1.03508
1.05286
1.07023
0.913341
0.941849
0.975599
1.00755
1.03733
1.06438
1.08803
1.10768
1.12314
1.14022
1.0016
1.03069
1.06456
1.09649
1.126
1.15251
1.17531
1.19375
1.20709
1.22413
1.09671
1.12985
1.16641
1.19993
1.22991
1.25605
1.27796
1.29521
1.30706
1.32446
1.21159
1.24937
1.28797
1.32218
1.35149
1.3762
1.39655
1.41242
1.42387
1.44194
1.35646
1.39498
1.43109
1.46175
1.48741
1.50948
1.52852
1.54404
1.55646
1.57445
1.53149
1.5631
1.58926
1.6117
1.63166
1.65037
1.66807
1.68454
1.69989
1.71795
1.72008
1.73727
1.7523
1.76852
1.78442
1.79894
1.81214
1.82607
1.8436
1.86376
1.90178
1.91132
1.92285
1.93366
1.94294
1.95252
1.9633
1.97466
1.98602
2.00137
2.10901
2.11267
2.09772
2.08291
2.07663
2.0823
2.10078
2.13109
2.16326
2.18992
2.41533
2.28046
2.20382
2.16143
2.144
2.14797
2.17537
2.23178
2.3344
2.55876
0.737188
0.73506
0.730578
0.721957
0.709738
0.697617
0.687399
0.679521
0.673927
0.670706
0.670391
0.673167
0.678301
0.685545
0.694947
0.706496
0.719154
0.730193
0.736308
0.739364
0.661631
0.667478
0.673813
0.67831
0.680786
0.68047
0.677745
0.673952
0.670468
0.668242
0.668137
0.670375
0.674068
0.678379
0.682202
0.684096
0.683167
0.679692
0.674531
0.667911
0.653188
0.655485
0.658891
0.661891
0.663973
0.665479
0.666248
0.665951
0.664953
0.664108
0.664328
0.665798
0.667647
0.668977
0.669175
0.668297
0.666757
0.664428
0.661169
0.65825
0.647652
0.648738
0.650574
0.652957
0.654989
0.656427
0.657463
0.658237
0.65867
0.658935
0.659477
0.660333
0.660968
0.661062
0.66067
0.659836
0.658378
0.656302
0.654222
0.652841
0.642415
0.643077
0.644188
0.645899
0.64769
0.649335
0.650648
0.651689
0.652608
0.653447
0.654235
0.654843
0.655079
0.654945
0.654403
0.653366
0.651952
0.650419
0.649107
0.648329
0.637396
0.637856
0.638645
0.63995
0.641448
0.642979
0.644465
0.645792
0.646969
0.648082
0.649066
0.6497
0.649896
0.649661
0.648993
0.648026
0.646918
0.645798
0.644891
0.644376
0.632514
0.632858
0.633472
0.634548
0.635854
0.637245
0.638707
0.640187
0.641607
0.642953
0.644145
0.644914
0.645153
0.644925
0.644362
0.643614
0.642785
0.641935
0.641272
0.640895
0.627714
0.627981
0.628477
0.629394
0.630578
0.631893
0.633315
0.634842
0.636438
0.638034
0.639478
0.640441
0.640817
0.640755
0.640408
0.639883
0.639262
0.638644
0.638163
0.637876
0.622911
0.623123
0.623536
0.624344
0.625449
0.62672
0.628136
0.629716
0.631451
0.633296
0.635042
0.636281
0.636911
0.637101
0.636993
0.636696
0.636288
0.635865
0.635527
0.635302
0.618017
0.618187
0.618541
0.619277
0.620338
0.621591
0.62304
0.62471
0.626612
0.628724
0.63083
0.632445
0.633413
0.633903
0.634058
0.634001
0.633812
0.633567
0.633346
0.633168
0.61294
0.613077
0.61339
0.614083
0.61513
0.61641
0.617931
0.619735
0.621858
0.624296
0.626842
0.628923
0.630297
0.631136
0.631592
0.631792
0.631821
0.631751
0.63163
0.631487
0.60759
0.6077
0.607986
0.608659
0.609727
0.611081
0.612718
0.61471
0.617122
0.619973
0.623061
0.625701
0.627556
0.6288
0.629596
0.630077
0.630339
0.630443
0.630411
0.630294
0.601867
0.601954
0.602223
0.602903
0.604028
0.605497
0.607306
0.609555
0.612336
0.615706
0.619457
0.622769
0.625194
0.626909
0.628091
0.628902
0.629422
0.629694
0.62974
0.629644
0.595659
0.595725
0.595988
0.596697
0.597916
0.599548
0.601592
0.604179
0.607428
0.611444
0.616002
0.620123
0.623226
0.625495
0.627124
0.628304
0.629112
0.629566
0.629687
0.629608
0.588835
0.58888
0.589145
0.589904
0.591258
0.59311
0.595463
0.598478
0.60232
0.607131
0.612671
0.617763
0.621671
0.624596
0.626751
0.62835
0.629487
0.630139
0.630334
0.630269
0.581238
0.581261
0.581527
0.582362
0.583894
0.58603
0.588778
0.59234
0.596921
0.602708
0.609439
0.615692
0.620555
0.624251
0.627032
0.629129
0.630642
0.631508
0.631777
0.631721
0.572641
0.572654
0.572935
0.573869
0.575637
0.578118
0.581375
0.585624
0.591124
0.598111
0.60628
0.613919
0.619913
0.624518
0.628035
0.630734
0.632675
0.633774
0.634116
0.634066
0.562764
0.562747
0.563079
0.564157
0.566215
0.569158
0.573058
0.57817
0.584813
0.593272
0.603177
0.612463
0.619789
0.625465
0.629846
0.633243
0.635682
0.637037
0.637452
0.637404
0.551291
0.55125
0.551631
0.552902
0.55533
0.558866
0.563581
0.569786
0.577858
0.588125
0.600118
0.611349
0.620231
0.62716
0.632554
0.636754
0.639764
0.641388
0.641871
0.641821
0.537729
0.53766
0.538121
0.539647
0.542561
0.546867
0.552639
0.560243
0.570117
0.582608
0.597102
0.610614
0.621291
0.629657
0.636235
0.641358
0.644996
0.646896
0.647436
0.647377
0.521407
0.52131
0.521899
0.52378
0.527347
0.532683
0.539855
0.549285
0.561449
0.576683
0.594151
0.610301
0.623028
0.633023
0.640934
0.647101
0.651418
0.653582
0.654158
0.654083
0.501371
0.501247
0.502041
0.504441
0.508928
0.515696
0.52478
0.536641
0.551749
0.570355
0.591327
0.610482
0.625504
0.637313
0.646678
0.654002
0.659009
0.661394
0.661977
0.661878
0.476169
0.47603
0.477163
0.480369
0.486252
0.495117
0.506914
0.522082
0.540988
0.563712
0.58875
0.611258
0.628774
0.642548
0.653494
0.662029
0.667666
0.67019
0.670735
0.670606
0.443447
0.443332
0.445085
0.449691
0.457897
0.470039
0.485817
0.505525
0.529289
0.556955
0.586609
0.612755
0.63291
0.648743
0.661324
0.671058
0.677177
0.679705
0.680163
0.679999
0.398976
0.399032
0.402155
0.409682
0.422199
0.439686
0.461369
0.487196
0.517008
0.550432
0.585161
0.615119
0.637973
0.65588
0.670083
0.680875
0.687198
0.689545
0.689869
0.689673
0.334834
0.336079
0.343722
0.357776
0.37819
0.404189
0.434189
0.467814
0.50478
0.544609
0.58468
0.618485
0.643981
0.66388
0.679522
0.691026
0.697226
0.699155
0.699305
0.699092
0.258849
0.26068
0.275317
0.29947
0.33094
0.366975
0.40603
0.447933
0.492517
0.539334
0.585491
0.623918
0.652681
0.674992
0.692218
0.704313
0.710118
0.711685
0.711782
0.711649
0.18051
0.18684
0.208454
0.242978
0.284943
0.330731
0.378793
0.429011
0.481272
0.535148
0.587498
0.630606
0.662594
0.687243
0.706188
0.71826
0.723172
0.724219
0.724262
0.724201
0.116391
0.12509
0.151308
0.192933
0.24312
0.297205
0.353379
0.411371
0.470951
0.531607
0.58985
0.637316
0.672235
0.698822
0.718552
0.730408
0.734908
0.735852
0.735938
0.735935
0.0642488
0.07355
0.103355
0.150267
0.206654
0.267425
0.330457
0.395312
0.461568
0.528567
0.592395
0.64397
0.681601
0.709929
0.730514
0.742416
0.746661
0.747508
0.74764
0.74769
0.0206596
0.0302428
0.0625165
0.113455
0.174934
0.241253
0.310102
0.380961
0.453235
0.526104
0.595211
0.650735
0.690995
0.721102
0.742647
0.754634
0.758745
0.759761
0.759934
0.760027
-0.0167524
-0.00706747
0.0270469
0.0812059
0.146901
0.217958
0.291888
0.368079
0.445816
0.524138
0.598265
0.65762
0.700486
0.732346
0.754853
0.767292
0.771654
0.772699
0.772871
0.772984
-0.0496813
-0.0399771
-0.00445813
0.0524166
0.12165
0.1968
0.275232
0.356233
0.439006
0.522452
0.601391
0.664476
0.709913
0.743552
0.767194
0.780235
0.784846
0.785977
0.786144
0.786236
-0.0794337
-0.069711
-0.0330466
0.0261711
0.0984397
0.17718
0.259629
0.345015
0.432459
0.52076
0.604345
0.671096
0.719086
0.75453
0.779267
0.79295
0.797867
0.799042
0.799186
0.799258
-0.106922
-0.0971734
-0.0595301
0.00175662
0.0767048
0.158633
0.244688
0.334076
0.425871
0.518801
0.606923
0.677289
0.727787
0.764949
0.790782
0.805041
0.81032
0.811544
0.811653
0.811696
-0.132732
-0.122934
-0.0843971
-0.0213599
0.0560127
0.140795
0.230104
0.323157
0.419021
0.516383
0.608953
0.682914
0.735894
0.774724
0.801553
0.816335
0.821887
0.823137
0.82321
0.823218
-0.157364
-0.147456
-0.108032
-0.0435101
0.0360677
0.123402
0.215661
0.312077
0.411745
0.513343
0.610296
0.687883
0.74334
0.783779
0.811524
0.826666
0.832352
0.833621
0.833665
0.833638
-0.181118
-0.171016
-0.130856
-0.0648658
0.0166668
0.106282
0.20121
0.300705
0.403909
0.509566
0.610863
0.692143
0.75013
0.792124
0.820612
0.835981
0.841721
0.84293
0.842958
0.842904
-0.204111
-0.193822
-0.152994
-0.0855752
-0.00232532
0.0893402
0.186664
0.288958
0.395443
0.504962
0.610567
0.695659
0.756285
0.799843
0.828935
0.844366
0.849994
0.851161
0.851131
0.851062
-0.226545
-0.215995
-0.17444
-0.105765
-0.0209779
0.0725153
0.17198
0.276808
0.386311
0.499478
0.609328
0.698393
0.761874
0.807089
0.836666
0.85194
0.857338
0.858384
0.858321
0.858227
-0.248384
-0.237582
-0.195348
-0.125493
-0.039316
0.0557974
0.15717
0.264262
0.376504
0.493074
0.607084
0.700296
0.766949
0.81402
0.844018
0.858908
0.863879
0.864731
0.864614
0.864506
-0.269693
-0.258619
-0.215669
-0.144758
-0.0573369
0.0391999
0.142252
0.251355
0.366052
0.485749
0.603774
0.701296
0.771521
0.820805
0.851281
0.865506
0.869739
0.870273
0.870095
0.869981
-0.290347
-0.279062
-0.235399
-0.16353
-0.0750111
0.0227777
0.127277
0.238142
0.355009
0.477537
0.599354
0.701304
0.775541
0.827564
0.858808
0.872174
0.875223
0.875138
0.87485
0.874768
-0.310477
-0.298875
-0.254542
-0.1818
-0.0923197
0.00655809
0.112325
0.22469
0.343447
0.468497
0.593809
0.700201
0.778881
0.834306
0.866946
0.879616
0.88102
0.879657
0.879028
0.879028
-0.329933
-0.318042
-0.273079
-0.199539
-0.109192
-0.00938236
0.0974661
0.211109
0.331461
0.458678
0.587157
0.69786
0.781338
0.840865
0.875819
0.888655
0.888501
0.88505
0.883017
0.882509
-0.348785
-0.336615
-0.290965
-0.216704
-0.125601
-0.024981
0.0827785
0.19747
0.319156
0.448204
0.579447
0.694148
0.78265
0.846876
0.885054
0.899598
0.89945
0.894073
0.887901
0.880266
-0.366954
-0.354554
-0.308295
-0.23345
-0.141752
-0.0405009
0.0679419
0.183397
0.306111
0.436613
0.570196
0.688577
0.782413
0.852144
0.894225
0.912142
0.914568
0.908393
0.897081
0.892774
-0.384396
-0.371781
-0.325057
-0.249753
-0.157658