/*--------------------------------*- C++ -*----------------------------------*\
| =========                 |                                                 |
| \\      /  F ield         | OpenFOAM: The Open Source CFD Toolbox           |
|  \\    /   O peration     | Version:  2112                                  |
|   \\  /    A nd           | Website:  www.openfoam.com                      |
|    \\/     M anipulation  |                                                 |
\*---------------------------------------------------------------------------*/
FoamFile
{
    version     2.0;
    format      ascii;
    arch        "LSB;label=32;scalar=64";
    class       volVectorField;
    location    "70.5";
    object      U;
}
// * * * * * * * * * * * * * * * * * * * * * * * * * * * * * * * * * * * * * //

dimensions      [0 1 -1 0 0 0 0];

internalField   nonuniform List<vector> 
8800
(
(0.980136 -0.09152 0)
(1.00234 -0.0587303 0)
(0.999585 -0.0321283 0)
(0.999987 -0.0165206 0)
(1.0001 -0.00883937 0)
(1.00011 -0.00509374 0)
(1.00007 -0.00298931 0)
(1.00003 -0.00167815 0)
(0.999998 -0.000776158 0)
(1.00007 -7.66399e-05 0)
(0.999975 0.000633117 0)
(0.999986 0.00139146 0)
(1.00003 0.00241331 0)
(1.00006 0.00401 0)
(1.00004 0.00675324 0)
(1 0.0120535 0)
(0.99981 0.0230953 0)
(0.999034 0.0431551 0)
(1.00724 0.0790246 0)
(0.775026 0.0478395 0)
(0.359 -0.0147479 0)
(1.04651 -0.0724761 0)
(1.08848 -0.0660118 0)
(1.04945 -0.0509026 0)
(1.02556 -0.0376784 0)
(1.01278 -0.0258692 0)
(1.00661 -0.0166688 0)
(1.00365 -0.0101745 0)
(1.00219 -0.00553898 0)
(1.00151 -0.00194037 0)
(1.00137 0.0012743 0)
(1.00171 0.00458678 0)
(1.0027 0.00847433 0)
(1.00476 0.0137743 0)
(1.00898 0.0214432 0)
(1.01794 0.0319293 0)
(1.0358 0.0446964 0)
(1.06742 0.0581338 0)
(1.09468 0.0699487 0)
(0.845605 0.0555092 0)
(0.217823 -0.00137943 0)
(1.0757 -0.0506286 0)
(1.09943 -0.0489062 0)
(1.06442 -0.0399836 0)
(1.03995 -0.032517 0)
(1.02386 -0.0252937 0)
(1.01406 -0.0180635 0)
(1.00853 -0.0114316 0)
(1.00566 -0.00566518 0)
(1.00447 -0.000366873 0)
(1.00477 0.00474767 0)
(1.00661 0.0100364 0)
(1.01057 0.0159917 0)
(1.01789 0.0227276 0)
(1.03048 0.0298195 0)
(1.05046 0.0368962 0)
(1.08003 0.0446629 0)
(1.10563 0.0519756 0)
(0.943205 0.0410269 0)
(0.217141 0.00140706 0)
(0.176705 -0.000627498 0)
(1.01948 -0.0354328 0)
(1.10576 -0.0413624 0)
(1.07803 -0.0363354 0)
(1.05253 -0.0302783 0)
(1.0353 -0.0243872 0)
(1.02343 -0.0185756 0)
(1.01559 -0.0125613 0)
(1.01096 -0.00645024 0)
(1.0089 -0.000201204 0)
(1.0094 0.00596046 0)
(1.01247 0.0118744 0)
(1.01846 0.0176217 0)
(1.02804 0.0231685 0)
(1.04221 0.0287015 0)
(1.06303 0.0344663 0)
(1.09382 0.0403365 0)
(1.09436 0.0418416 0)
(0.830035 0.0228034 0)
(0.17554 0.000649712 0)
(0.154827 -0.000461164 0)
(0.958357 -0.0256516 0)
(1.1045 -0.0350487 0)
(1.08817 -0.0325831 0)
(1.06137 -0.0280602 0)
(1.04333 -0.0230785 0)
(1.03092 -0.0177551 0)
(1.02229 -0.0121912 0)
(1.01671 -0.00626009 0)
(1.01402 0.000208821 0)
(1.01462 0.00667262 0)
(1.01839 0.0125423 0)
(1.0252 0.0178325 0)
(1.03532 0.0228026 0)
(1.05002 0.0276053 0)
(1.07195 0.0320237 0)
(1.10092 0.0358798 0)
(1.06954 0.0340584 0)
(0.742233 0.0144877 0)
(0.153079 0.00048611 0)
(0.14018 -0.000332876 0)
(0.901465 -0.0192785 0)
(1.09698 -0.030136 0)
(1.09635 -0.0292349 0)
(1.06912 -0.025432 0)
(1.05029 -0.021323 0)
(1.03729 -0.0165969 0)
(1.02827 -0.01132 0)
(1.02229 -0.00557094 0)
(1.01925 0.000804095 0)
(1.01981 0.00718183 0)
(1.02378 0.0128272 0)
(1.03083 0.0177762 0)
(1.04132 0.0222004 0)
(1.05664 0.026121 0)
(1.07942 0.0296089 0)
(1.10317 0.0322963 0)
(1.03762 0.0282469 0)
(0.675241 0.0103504 0)
(0.137716 0.000362507 0)
(0.129486 -0.000251206 0)
(0.851739 -0.0148733 0)
(1.08472 -0.0260175 0)
(1.10209 -0.0263323 0)
(1.07599 -0.0229863 0)
(1.05665 -0.0193033 0)
(1.04323 -0.0150751 0)
(1.03383 -0.0101789 0)
(1.02756 -0.00464758 0)
(1.02429 0.00154505 0)
(1.02472 0.0077071 0)
(1.02868 0.0130677 0)
(1.03588 0.0175887 0)
(1.04664 0.0214023 0)
(1.06232 0.0247209 0)
(1.08555 0.0277251 0)
(1.10232 0.0295045 0)
(1.00276 0.0237358 0)
(0.622975 0.00795825 0)
(0.126146 0.000287221 0)
(0.121351 -0.000192145 0)
(0.809418 -0.0116794 0)
(1.06952 -0.022404 0)
(1.10568 -0.0236752 0)
(1.08229 -0.0207772 0)
(1.06249 -0.0173172 0)
(1.0488 -0.0133666 0)
(1.03913 -0.00878702 0)
(1.03258 -0.00352515 0)
(1.02906 0.0024382 0)
(1.02931 0.00833276 0)
(1.03322 0.0133388 0)
(1.04046 0.017397 0)
(1.05131 0.0207303 0)
(1.06724 0.0236501 0)
(1.09084 0.0263318 0)
(1.09857 0.0271953 0)
(0.967428 0.0201978 0)
(0.580939 0.00640285 0)
(0.116945 0.00023589 0)
(0.115061 -0.000147251 0)
(0.773785 -0.0092862 0)
(1.05281 -0.0192183 0)
(1.1081 -0.0212145 0)
(1.08822 -0.0186933 0)
(1.068 -0.0153899 0)
(1.05405 -0.0116028 0)
(1.04419 -0.00721953 0)
(1.0374 -0.00219128 0)
(1.03361 0.0035151 0)
(1.03362 0.00909998 0)
(1.03738 0.0137263 0)
(1.04456 0.0173764 0)
(1.05541 0.0203269 0)
(1.07156 0.0229145 0)
(1.09485 0.0252427 0)
(1.09197 0.025293 0)
(0.932967 0.0174691 0)
(0.546117 0.00534012 0)
(0.109359 0.00020033 0)
(0.110168 -0.000111704 0)
(0.743918 -0.00742924 0)
(1.03566 -0.0163888 0)
(1.10958 -0.0188955 0)
(1.09385 -0.0166819 0)
(1.07334 -0.0134739 0)
(1.0591 -0.00978018 0)
(1.04904 -0.00551558 0)
(1.04203 -0.000651982 0)
(1.03794 0.0048113 0)
(1.03765 0.0100769 0)
(1.04118 0.0143425 0)
(1.04821 0.0176284 0)
(1.05904 0.0202268 0)
(1.07539 0.0225209 0)
(1.09757 0.0244687 0)
(1.0829 0.0237452 0)
(0.899956 0.0154014 0)
(0.516435 0.00460204 0)
(0.102892 0.000175975 0)
(0.106382 -8.22725e-05 0)
(0.718999 -0.00593163 0)
(1.01889 -0.0138443 0)
(1.11023 -0.0166495 0)
(1.09938 -0.0147123 0)
(1.0786 -0.0115181 0)
(1.06405 -0.00785468 0)
(1.05376 -0.00364924 0)
(1.04649 0.00110826 0)
(1.04206 0.00636932 0)
(1.0414 0.0113374 0)
(1.04461 0.0152615 0)
(1.05146 0.0181965 0)
(1.06223 0.0204551 0)
(1.07878 0.0224848 0)
(1.09891 0.0240235 0)
(1.07172 0.0225491 0)
(0.868514 0.013882 0)
(0.490413 0.00409707 0)
(0.0971939 0.000160291 0)
(0.103511 -5.67577e-05 0)
(0.698384 -0.00467501 0)
(1.00314 -0.0115183 0)
(1.11023 -0.0144394 0)
(1.10476 -0.0126986 0)
(1.08386 -0.00946934 0)
(1.06898 -0.0057774 0)
(1.05843 -0.00156843 0)
(1.05084 0.00313413 0)
(1.046 0.00824364 0)
(1.04487 0.0129479 0)
(1.04771 0.0165485 0)
(1.05432 0.0191379 0)
(1.06502 0.0210617 0)
(1.08171 0.0228311 0)
(1.09921 0.0239697 0)
(1.05872 0.021721 0)
(0.838473 0.0128235 0)
(0.466947 0.00376863 0)
(0.0920001 0.000151413 0)
(0.101436 -3.322e-05 0)
(0.681602 -0.00357099 0)
(0.988861 -0.00934096 0)
(1.10976 -0.0121805 0)
(1.10997 -0.010553 0)
(1.0892 -0.00726763 0)
(1.07397 -0.00348629 0)
(1.06309 0.000791988 0)
(1.05512 0.0054963 0)
(1.04978 0.0105056 0)
(1.0481 0.0149734 0)
(1.05048 0.0182609 0)
(1.05681 0.0205064 0)
(1.06739 0.0220922 0)
(1.08414 0.0235904 0)
(1.09849 0.0243008 0)
(1.04403 0.0212688 0)
(0.809497 0.0121521 0)
(0.445166 0.00357782 0)
(0.0871044 0.000147864 0)
(0.100092 -9.96586e-06 0)
(0.66835 -0.00255017 0)
(0.976418 -0.00723807 0)
(1.10916 -0.00981265 0)
(1.11514 -0.00821346 0)
(1.09472 -0.00483508 0)
(1.0791 -0.000899739 0)
(1.06784 0.00350995 0)
(1.0594 0.00828316 0)
(1.05344 0.0132438 0)
(1.05108 0.0175015 0)
(1.05291 0.0204823 0)
(1.05891 0.022374 0)
(1.06935 0.0236027 0)
(1.08611 0.0248333 0)
(1.09652 0.0250838 0)
(1.0277 0.0211884 0)
(0.781146 0.011817 0)
(0.424359 0.00350003 0)
(0.082341 0.000148654 0)
(0.0994643 1.51361e-05 0)
(0.658468 -0.00155854 0)
(0.966129 -0.00513828 0)
(1.10876 -0.00727288 0)
(1.12041 -0.00560952 0)
(1.10048 -0.00208872 0)
(1.08444 0.0020689 0)
(1.07272 0.00667923 0)
(1.06371 0.0115927 0)
(1.05701 0.0165603 0)
(1.05384 0.0206358 0)
(1.05501 0.023308 0)
(1.0606 0.0248263 0)
(1.07087 0.0256895 0)
(1.08754 0.0266077 0)
(1.09328 0.0263198 0)
(1.00968 0.0215146 0)
(0.752928 0.0117884 0)
(0.403927 0.00352003 0)
(0.0775727 0.000153237 0)
(0.0995694 3.5463e-05 0)
(0.651926 -0.000552266 0)
(0.958297 -0.00297153 0)
(1.10888 -0.00448853 0)
(1.12593 -0.00265207 0)
(1.1066 0.001074 0)
(1.09009 0.00552962 0)
(1.07783 0.0104221 0)
(1.06812 0.0155478 0)
(1.06052 0.0205741 0)
(1.05638 0.0244851 0)
(1.05676 0.026846 0)
(1.06187 0.0279851 0)
(1.07192 0.0284566 0)
(1.0882 0.0290028 0)
(1.08846 0.0280699 0)
(0.989796 0.0222842 0)
(0.72429 0.012053 0)
(0.383326 0.00362913 0)
(0.072676 0.000161181 0)
(0.100465 7.14427e-05 0)
(0.648821 0.00048787 0)
(0.953246 -0.000659899 0)
(1.10991 -0.0013762 0)
(1.13193 0.000754695 0)
(1.11319 0.0047679 0)
(1.09617 0.00961363 0)
(1.08325 0.0148774 0)
(1.07269 0.0202946 0)
(1.06399 0.0254331 0)
(1.05869 0.0291932 0)
(1.05814 0.0312252 0)
(1.06267 0.0319715 0)
(1.07245 0.0320244 0)
(1.08795 0.0321446 0)
(1.0818 0.0304302 0)
(0.967741 0.0235265 0)
(0.694617 0.0125995 0)
(0.362039 0.00381888 0)
(0.0675398 0.000171855 0)
(0.102338 0.000105382 0)
(0.64953 0.00166412 0)
(0.951333 0.00188843 0)
(1.11228 0.00217391 0)
(1.13859 0.00469797 0)
(1.12039 0.00914324 0)
(1.10278 0.0144808 0)
(1.08907 0.0202163 0)
(1.07747 0.026011 0)
(1.06746 0.0313162 0)
(1.06075 0.0349329 0)
(1.05911 0.0365898 0)
(1.06296 0.0369244 0)
(1.07239 0.0365265 0)
(1.08653 0.0361594 0)
(1.07302 0.0334897 0)
(0.943092 0.0252799 0)
(0.663251 0.0134231 0)
(0.339589 0.00408215 0)
(0.0620695 0.000184675 0)
(0.105256 0.000154206 0)
(0.6545 0.00313249 0)
(0.953039 0.00482607 0)
(1.11648 0.00627274 0)
(1.14616 0.00936046 0)
(1.12837 0.0143872 0)
(1.11007 0.020337 0)
(1.0954 0.0266572 0)
(1.08253 0.0329161 0)
(1.07092 0.0384258 0)
(1.06256 0.0418748 0)
(1.05964 0.0431166 0)
(1.06266 0.0430098 0)
(1.07169 0.0421087 0)
(1.08377 0.0412261 0)
(1.06174 0.0373579 0)
(0.915275 0.0275884 0)
(0.629477 0.0145154 0)
(0.315515 0.00440958 0)
(0.0561859 0.000198684 0)
(0.109503 0.000217599 0)
(0.66413 0.00483122 0)
(0.958813 0.00828791 0)
(1.12299 0.0110889 0)
(1.15491 0.0149354 0)
(1.13735 0.0207237 0)
(1.11821 0.0274329 0)
(1.10234 0.0344678 0)
(1.08792 0.0412754 0)
(1.07438 0.0470083 0)
(1.06407 0.0502428 0)
(1.05966 0.0510026 0)
(1.06171 0.050413 0)
(1.07025 0.0489368 0)
(1.07978 0.0474575 0)
(1.04743 0.0421466 0)
(0.88356 0.0304686 0)
(0.592529 0.0158522 0)
(0.289401 0.00478412 0)
(0.0498341 0.000212493 0)
(0.11542 0.00030251 0)
(0.6792 0.0069391 0)
(0.96929 0.0124735 0)
(1.13239 0.0168684 0)
(1.16522 0.0216941 0)
(1.14758 0.0284778 0)
(1.12739 0.0361214 0)
(1.11002 0.0440041 0)
(1.09366 0.0514224 0)
(1.07779 0.0573516 0)
(1.06521 0.0602762 0)
(1.05901 0.0604359 0)
(1.06004 0.0593135 0)
(1.06806 0.0572256 0)
(1.07426 0.0550459 0)
(1.02941 0.0479314 0)
(0.847052 0.0339163 0)
(0.551619 0.0173823 0)
(0.260913 0.00517845 0)
(0.0429991 0.00022424 0)
(0.123511 0.000425189 0)
(0.700673 0.00970288 0)
(0.985353 0.0176979 0)
(1.14534 0.0239596 0)
(1.17758 0.0300359 0)
(1.15938 0.038115 0)
(1.1378 0.0468859 0)
(1.1185 0.0557316 0)
(1.09972 0.0637643 0)
(1.08107 0.0697762 0)
(1.06586 0.0722261 0)
(1.05765 0.0716504 0)
(1.05755 0.0698636 0)
(1.06502 0.0670881 0)
(1.06684 0.0639783 0)
(1.00676 0.0547656 0)
(0.804702 0.0378621 0)
(0.506008 0.0190107 0)
(0.229874 0.00555046 0)
(0.0357225 0.000231439 0)
(0.134508 0.000598861 0)
(0.729775 0.0134931 0)
(1.00816 0.0244332 0)
(1.16262 0.0329122 0)
(1.19259 0.0405571 0)
(1.1731 0.0503044 0)
(1.1496 0.0603911 0)
(1.12779 0.0702512 0)
(1.10601 0.0787859 0)
(1.08405 0.0846395 0)
(1.06586 0.0863448 0)
(1.05548 0.0848493 0)
(1.05418 0.0823133 0)
(1.06079 0.078664 0)
(1.05677 0.0744623 0)
(0.978339 0.0626104 0)
(0.755351 0.0421435 0)
(0.455122 0.0205838 0)
(0.196357 0.00584235 0)
(0.0281226 0.000231246 0)
(0.149675 0.000878649 0)
(0.768553 0.0189215 0)
(1.03938 0.0334729 0)
(1.18519 0.0446792 0)
(1.21105 0.0544571 0)
(1.18907 0.0660913 0)
(1.16287 0.0776011 0)
(1.13773 0.0883464 0)
(1.11224 0.0970531 0)
(1.08645 0.102301 0)
(1.06499 0.102855 0)
(1.05233 0.100171 0)
(1.04981 0.0967609 0)
(1.05504 0.0923401 0)
(1.0432 0.0865573 0)
(0.942639 0.0712626 0)
(0.697856 0.0464631 0)
(0.398764 0.0218774 0)
(0.160815 0.00598195 0)
(0.0204118 0.000220665 0)
(0.171237 0.00136262 0)
(0.8203 0.027163 0)
(1.08166 0.0464025 0)
(1.21417 0.0611418 0)
(1.23349 0.0737003 0)
(1.20737 0.0871033 0)
(1.17732 0.0998361 0)
(1.1479 0.110953 0)
(1.11798 0.119158 0)
(1.08788 0.123093 0)
(1.06295 0.121929 0)
(1.04802 0.117718 0)
(1.04431 0.113242 0)
(1.04779 0.107963 0)
(1.02491 0.100126 0)
(0.897815 0.0802996 0)
(0.63141 0.0503605 0)
(0.337489 0.022621 0)
(0.124245 0.00589756 0)
(0.0129111 0.000196741 0)
(0.202638 0.0024386 0)
(0.890802 0.0409554 0)
(1.13856 0.0670951 0)
(1.24998 0.0858511 0)
(1.2597 0.101069 0)
(1.2274 0.115689 0)
(1.19215 0.128679 0)
(1.15747 0.139037 0)
(1.1225 0.145626 0)
(1.08781 0.147243 0)
(1.05943 0.143618 0)
(1.04238 0.137483 0)
(1.03757 0.131749 0)
(1.03847 0.125445 0)
(1.00017 0.114755 0)
(0.841714 0.0889535 0)
(0.556217 0.0532485 0)
(0.273347 0.0226286 0)
(0.0885289 0.00558254 0)
(0.00613602 0.000160797 0)
(0.24541 0.00876637 4.30979e-20)
(0.984156 0.0684981 3.7722e-20)
(1.20782 0.101788 -1.32319e-20)
(1.28957 0.122381 0)
(1.28686 0.140172 -3.42428e-34)
(1.24699 0.154181 5.01745e-21)
(1.20578 0.16565 -9.09633e-21)
(1.16534 0.173827 0)
(1.12499 0.177707 1.88312e-34)
(1.08548 0.176198 -1.13835e-20)
(1.05348 0.169646 0)
(1.03425 0.161463 -1.35915e-20)
(1.02869 0.154758 -4.01513e-20)
(1.02577 0.148139 -1.89884e-20)
(0.964582 0.132877 -5.7233e-21)
(0.767753 0.0985168 -3.40227e-21)
(0.467065 0.055329 0)
(0.204919 0.0222471 2.37736e-21)
(0.0537025 0.00528368 2.80638e-21)
(4.92833e-05 0.00011487 5.06285e-20)
(0.275382 0.0244652 3.02387e-20)
(1.06125 0.111563 5.49047e-22)
(1.26492 0.151241 3.46824e-21)
(1.32506 0.172037 0)
(1.31071 0.189586 -1.7164e-20)
(1.26384 0.201426 -1.95986e-20)
(1.21675 0.210573 -9.12677e-21)
(1.17051 0.216271 -3.26871e-20)
(1.12461 0.21739 0)
(1.07993 0.212825 4.83441e-20)
(1.04393 0.203471 4.80616e-20)
(1.02235 0.193306 1.42915e-20)
(1.0146 0.185008 5.22905e-20)
(1.00243 0.176336 7.36453e-20)
(0.907851 0.153731 0)
(0.666786 0.107959 1.03889e-19)
(0.362078 0.0566788 1.48881e-19)
(0.133826 0.021087 1.65259e-19)
(0.0187409 0.00377819 -1.88877e-19)
(-0.00611234 -0.000513596 -3.56028e-21)
(0.276415 0.0405034 0)
(1.11002 0.167342 5.0168e-21)
(1.30345 0.21207 0)
(1.35266 0.232287 -2.15009e-20)
(1.32948 0.246701 0)
(1.27674 0.254648 -3.80931e-20)
(1.22413 0.26004 1.85321e-20)
(1.17242 0.262132 -6.53833e-20)
(1.12126 0.259603 -1.59023e-21)
(1.07171 0.25131 2.49012e-20)
(1.03196 0.238666 1.0555e-19)
(1.00819 0.226151 -1.98554e-22)
(0.998033 0.215975 -3.7944e-20)
(0.976643 0.204153 -6.91977e-20)
(0.856136 0.173244 8.19164e-20)
(0.593278 0.115979 -1.44985e-19)
(0.299413 0.0577678 -1.91088e-20)
(0.0958657 0.0196208 0)
(0.000244467 0.00145302 -1.48564e-23)
(-0.00963733 -0.00136183 0)
(0.269837 0.054356 5.71125e-20)
(1.1363 0.226394 -2.9157e-20)
(1.32724 0.277363 -2.40805e-20)
(1.371 0.297689 9.92131e-21)
(1.34172 0.308107 -1.67774e-20)
(1.28457 0.311488 7.945e-20)
(1.22745 0.31243 3.84813e-20)
(1.17103 0.310248 0)
(1.11519 0.303486 -1.23955e-19)
(1.06118 0.290942 0)
(1.01799 0.274601 -5.52016e-20)
(0.992099 0.259405 -6.84341e-20)
(0.979553 0.246976 -4.12292e-20)
(0.949954 0.231206 -5.01578e-20)
(0.813811 0.191969 0)
(0.544915 0.124876 0)
(0.264841 0.0604327 -1.24131e-19)
(0.0749068 0.0184472 2.44886e-20)
(-0.0115619 -0.00128151 -1.43422e-20)
(-0.0124549 -0.00242913 -1.67787e-20)
(0.26193 0.0665565 -1.63352e-20)
(1.14773 0.285232 0)
(1.34027 0.34352 4.56671e-20)
(1.38105 0.364445 2.70435e-20)
(1.34753 0.370949 3.92672e-20)
(1.28718 0.369728 0)
(1.22651 0.366093 3.72443e-20)
(1.16621 0.359424 7.18969e-20)
(1.10636 0.348177 6.32017e-20)
(1.04838 0.331107 1.17014e-19)
(1.002 0.310758 0)
(0.974063 0.292588 -1.47302e-19)
(0.959194 0.277532 -8.88543e-20)
(0.923251 0.257624 -5.25652e-20)
(0.779664 0.210857 3.21851e-19)
(0.514537 0.135347 3.82042e-20)
(0.247093 0.0647498 1.79346e-19)
(0.0644398 0.0178494 -8.47295e-19)
(-0.0187334 -0.00407243 5.00806e-19)
(-0.0147244 -0.00362916 -6.03694e-19)
(0.254233 0.077519 2.99364e-22)
(1.14957 0.341967 2.72093e-21)
(1.34544 0.408612 -4.07261e-21)
(1.3844 0.430659 -2.46717e-20)
(1.34785 0.433489 -3.15442e-20)
(1.28512 0.427841 1.80089e-21)
(1.22166 0.41977 -4.03716e-20)
(1.15817 0.408667 7.40118e-20)
(1.09487 0.392929 -1.35916e-19)
(1.03336 0.371257 0)
(0.984017 0.346765 -6.6595e-20)
(0.954026 0.325446 -1.58088e-21)
(0.936902 0.307653 -9.72228e-20)
(0.896536 0.283639 0)
(0.751574 0.230249 -6.96356e-20)
(0.4956 0.14754 -1.64957e-19)
(0.23984 0.0708669 4.38781e-19)
(0.0620577 0.0184889 -4.32321e-19)
(-0.021341 -0.0062581 6.12646e-19)
(-0.0160937 -0.00477326 -6.36724e-19)
(0.247625 0.0875901 -4.23322e-22)
(1.14537 0.395925 1.5843e-21)
(1.34493 0.471639 -6.74839e-21)
(1.38249 0.495126 8.58164e-21)
(1.34375 0.494683 -1.56192e-20)
(1.27923 0.484893 0)
(1.21351 0.472631 -3.69358e-20)
(1.14736 0.457282 -7.73162e-20)
(1.08108 0.437187 -7.0466e-20)
(1.01638 0.410982 0)
(0.964258 0.382352 -6.89221e-20)
(0.932217 0.357832 -8.56838e-20)
(0.91296 0.337237 1.05458e-19)
(0.869646 0.309276 -6.40174e-20)
(0.727044 0.25035 -3.0399e-19)
(0.482755 0.161344 1.80043e-19)
(0.238784 0.0785546 5.33228e-20)
(0.064648 0.0205327 0)
(-0.020159 -0.00738522 -5.92757e-19)
(-0.0164394 -0.00565375 -2.17455e-20)
(0.242236 0.0970841 3.32302e-21)
(1.13749 0.446918 -4.50632e-21)
(1.34023 0.532134 2.25566e-21)
(1.37658 0.557131 3.25996e-20)
(1.33618 0.553868 -5.51335e-20)
(1.2703 0.540303 7.14836e-20)
(1.20276 0.524149 7.9629e-20)
(1.13435 0.504815 -1.23499e-19)
(1.06541 0.480581 4.3928e-20)
(0.997804 0.449999 -2.87509e-19)
(0.943058 0.417308 -7.81656e-20)
(0.909008 0.389601 0)
(0.887696 0.366221 1.14528e-19)
(0.842343 0.334639 1.37411e-19)
(0.704059 0.270739 1.63979e-19)
(0.472292 0.176127 -1.95941e-19)
(0.239571 0.0875528 -5.78414e-20)
(0.0697311 0.0240997 6.80162e-20)
(-0.0163044 -0.00723417 0)
(-0.0158637 -0.00617576 -4.73062e-20)
(0.238004 0.106169 -5.84092e-20)
(1.1276 0.495058 3.09258e-20)
(1.33263 0.589891 -7.30947e-22)
(1.3677 0.616361 1.79266e-20)
(1.32597 0.610653 -2.32982e-20)
(1.25905 0.593681 -4.11208e-21)
(1.19001 0.573985 -8.73333e-20)
(1.11965 0.550976 -4.47682e-20)
(1.04835 0.522864 -1.22605e-19)
(0.978032 0.488123 3.27171e-22)
(0.920765 0.451496 -2.44725e-19)
(0.884737 0.420675 2.0741e-19)
(0.861497 0.394627 -1.26137e-19)
(0.814658 0.359496 1.51723e-19)
(0.681523 0.290913 0)
(0.461779 0.19141 -1.06791e-19)
(0.240477 0.0972164 3.10697e-22)
(0.075577 0.0287496 -2.97516e-19)
(-0.0111027 -0.00607896 -4.36334e-20)
(-0.0146964 -0.00638116 0)
(0.234814 0.114993 0)
(1.1167 0.540572 3.64828e-20)
(1.32305 0.645336 9.99797e-21)
(1.35667 0.672673 -1.44162e-20)
(1.31381 0.664831 -3.16158e-20)
(1.24607 0.644812 0)
(1.17581 0.621921 -3.87793e-20)
(1.10375 0.595568 -1.0407e-21)
(1.03028 0.563886 2.63029e-19)
(0.957399 0.525234 -3.94463e-20)
(0.897693 0.484822 -1.76928e-19)
(0.859761 0.450982 1.07803e-19)
(0.834699 0.422283 -2.23799e-21)
(0.786604 0.383685 1.61709e-19)
(0.658235 0.310481 9.91688e-20)
(0.449738 0.206544 -2.30716e-19)
(0.239484 0.107012 2.72911e-19)
(0.0805014 0.0340413 8.08718e-20)
(-0.00560277 -0.00411518 3.33058e-19)
(-0.0131387 -0.00627988 -8.89612e-19)
(0.232594 0.123715 -2.11698e-20)
(1.10551 0.583639 2.7509e-20)
(1.31208 0.697787 -1.76183e-20)
(1.34412 0.726049 7.30787e-21)
(1.30027 0.716309 0)
(1.2319 0.693571 -3.0852e-20)
(1.16061 0.667835 1.31556e-19)
(1.08703 0.638475 9.80039e-20)
(1.01156 0.603542 0)
(0.936215 0.561254 -5.70074e-19)
(0.874118 0.517227 4.79653e-19)
(0.834329 0.480433 0)
(0.807542 0.449068 1.47926e-19)
(0.758286 0.406935 -2.22159e-21)
(0.633876 0.329119 -3.18961e-19)
(0.435857 0.220659 1.24485e-19)
(0.235963 0.116365 0)
(0.08353 0.0393534 4.37306e-19)
(-0.000855824 -0.00185754 0)
(-0.0115248 -0.00599813 -4.21964e-19)
(0.231204 0.132401 2.59088e-20)
(1.09445 0.624533 3.72832e-20)
(1.30037 0.747316 -1.69968e-20)
(1.33052 0.776509 0)
(1.28582 0.76507 -2.39776e-20)
(1.21696 0.739926 0)
(1.14479 0.711662 -1.28415e-19)
(1.06986 0.679629 -4.48806e-20)
(0.992516 0.641783 4.62402e-20)
(0.91476 0.596152 -2.82268e-19)
(0.850261 0.548683 4.94955e-20)
(0.808629 0.50894 0)
(0.780187 0.474839 -3.16453e-19)
(0.729691 0.429008 2.12688e-21)
(0.608243 0.346377 0)
(0.419884 0.233279 9.61396e-22)
(0.229676 0.124572 4.00708e-19)
(0.0839748 0.0439948 -3.78176e-19)
(0.00241858 0.000188903 1.11591e-19)
(-0.0101164 -0.00565374 0)
(0.230324 0.140961 0)
(1.0838 0.663344 4.59018e-20)
(1.28808 0.794076 2.74169e-20)
(1.31631 0.824101 -2.5547e-21)
(1.27085 0.811144 -5.58583e-21)
(1.20159 0.783877 -6.97396e-20)
(1.12869 0.75339 4.87004e-20)
(1.05253 0.719006 -5.36739e-20)
(0.973408 0.678576 2.07399e-19)
(0.893256 0.629922 -4.52178e-19)
(0.826293 0.57918 -4.20548e-21)
(0.782801 0.536471 -1.38346e-19)
(0.752749 0.499481 5.14317e-19)
(0.700978 0.449658 -2.56981e-21)
(0.581843 0.361843 -2.4846e-19)
(0.401879 0.243985 -4.40716e-19)
(0.220944 0.131122 0)
(0.0820609 0.0473918 0)
(0.0041195 0.00163419 1.20563e-19)
(-0.00901759 -0.00537539 -7.071e-20)
(0.230165 0.149517 3.74828e-20)
(1.07379 0.699972 -1.05255e-19)
(1.2755 0.838227 -2.94202e-20)
(1.30183 0.868888 0)
(1.25564 0.854592 -1.50339e-21)
(1.18608 0.825455 -6.12327e-20)
(1.11257 0.793031 1.1597e-19)
(1.03529 0.756602 2.09824e-19)
(0.954463 0.713923 2.69489e-19)
(0.871916 0.66258 -3.69686e-19)
(0.802383 0.608752 -4.14206e-19)
(0.756929 0.563049 3.70456e-19)
(0.725239 0.522912 0)
(0.672075 0.468568 -1.13275e-19)
(0.554752 0.375087 -2.68645e-19)
(0.382277 0.252263 -3.17239e-19)
(0.209969 0.135656 -3.7416e-19)
(0.0781643 0.0492836 1.10492e-19)
(0.00443761 0.00231039 -6.49432e-20)
(-0.00824476 -0.00521668 3.12922e-22)
(0.230158 0.15799 0)
(1.0645 0.734747 0)
(1.26288 0.879846 2.46775e-21)
(1.28728 0.910988 0)
(1.24043 0.895506 5.40685e-21)
(1.17066 0.864722 3.93598e-20)
(1.09663 0.830614 0)
(1.01834 0.792433 2.46406e-20)
(0.935885 0.747832 4.49953e-19)
(0.850931 0.694154 -8.51286e-19)
(0.778665 0.63747 0)
(0.73106 0.588738 -2.39009e-19)
(0.697588 0.545065 -3.01502e-21)
(0.642929 0.485494 -2.25535e-21)
(0.527107 0.385789 2.87999e-19)
(0.36119 0.257835 -1.29925e-23)
(0.197317 0.137842 -8.06535e-19)
(0.072636 0.0496394 2.37789e-19)
(0.00370256 0.00226575 7.02824e-20)
(-0.00772259 -0.00515291 0)
(0.23028 0.166336 -1.52719e-19)
(1.05571 0.767876 -7.2748e-20)
(1.25034 0.919027 -9.13543e-20)
(1.27286 0.950541 7.82838e-20)
(1.22542 0.933961 -5.40908e-21)
(1.15551 0.901743 0)
(1.08104 0.866188 6.9266e-20)
(1.00184 0.826525 -5.53418e-20)
(0.917836 0.780324 3.92916e-21)
(0.830467 0.724681 6.2955e-20)
(0.755273 0.665422 5.38003e-19)
(0.70522 0.613638 -8.38914e-20)
(0.669705 0.56594 -3.18077e-19)
(0.6134 0.500237 -1.32184e-19)
(0.498956 0.393603 1.562e-19)
(0.339228 0.260408 1.46602e-22)
(0.183549 0.137593 2.173e-19)
(0.0660533 0.0484826 -5.11921e-19)
(0.00231057 0.00165317 6.05018e-19)
(-0.00735285 -0.0051489 8.82154e-20)
(0.230373 0.174432 5.84012e-20)
(1.04741 0.799436 -4.1246e-20)
(1.23802 0.955873 6.2536e-21)
(1.25868 0.987682 5.33524e-20)
(1.21073 0.970071 7.888e-21)
(1.14074 0.936594 -6.6913e-20)
(1.06595 0.899805 1.92628e-20)
(0.985922 0.858903 -2.30515e-19)
(0.900452 0.811403 -4.96709e-19)
(0.810668 0.754177 -5.08479e-19)
(0.732351 0.692702 0)
(0.679434 0.637878 -3.69524e-19)
(0.641465 0.585622 4.59213e-19)
(0.583241 0.512636 0)
(0.470311 0.39808 -3.34916e-19)
(0.31718 0.259501 1.98764e-19)
(0.169779 0.134713 -2.33759e-19)
(0.059555 0.04607 -2.75489e-19)
(0.000771368 0.00069572 -4.87397e-19)
(-0.00711073 -0.00519738 -3.80057e-19)
(0.230816 0.182407 -6.64707e-20)
(1.03946 0.829424 4.41446e-20)
(1.22597 0.99046 9.94327e-20)
(1.24484 1.0225 8.00039e-20)
(1.19648 1.00393 -1.25015e-20)
(1.12648 0.969362 -3.32901e-20)
(1.05143 0.931517 6.51573e-20)
(0.970679 0.88961 -2.36389e-19)
(0.883827 0.841096 -2.94668e-19)
(0.791662 0.782666 5.33163e-19)
(0.710026 0.719389 1.18533e-18)
(0.653764 0.661625 0)
(0.612739 0.604296 0)
(0.552079 0.522657 -1.52282e-19)
(0.440863 0.398725 0)
(0.295372 0.254159 4.27098e-19)
(0.15765 0.128334 5.02454e-19)
(0.0552109 0.0422542 0)
(0.000294301 -0.000357213 0)
(-0.00695614 -0.00527104 4.08499e-19)
(0.230962 0.189964 7.60653e-20)
(1.03188 0.85784 6.12236e-20)
(1.21425 1.02292 7.247e-20)
(1.2314 1.05513 -7.93656e-20)
(1.18273 1.03565 -2.04248e-20)
(1.11277 1.00013 2.97905e-20)
(1.03756 0.961387 -8.91041e-20)
(0.956182 0.918675 -6.99434e-22)
(0.868051 0.869411 -5.11954e-21)
(0.773551 0.81015 -4.37217e-21)
(0.688441 0.745539 6.11305e-19)
(0.628317 0.685057 0)
(0.583444 0.622238 4.6662e-19)
(0.519462 0.530451 3.25658e-19)
(0.409839 0.395258 7.82133e-19)
(0.273407 0.242911 2.3029e-19)
(0.148815 0.115495 -2.70308e-19)
(0.0578539 0.0334717 -1.58709e-19)
(0.00749039 -0.00271579 0)
(-0.0046724 -0.00459497 4.39051e-19)
(0.231447 0.197545 -1.72516e-19)
(1.02462 0.884775 0)
(1.20287 1.05329 8.65019e-20)
(1.21841 1.08563 -6.81536e-20)
(1.16953 1.06533 3.2753e-20)
(1.09967 1.02897 -2.37911e-20)
(1.02439 0.989472 1.69707e-19)
(0.942472 0.946134 -1.93895e-20)
(0.85317 0.896356 0)
(0.756421 0.836611 -5.89506e-19)
(0.66774 0.771173 -1.33137e-18)
(0.60324 0.708357 5.4757e-20)
(0.553594 0.639781 6.4583e-19)
(0.485034 0.536452 0)
(0.375952 0.388031 5.28603e-19)
(0.248898 0.224412 0)
(0.141033 0.0895139 0)
(0.0725656 0.00453367 -1.71578e-19)
(0.0447725 -0.0165961 0)
(0.0264362 0.00978752 1.177e-19)
(0.23159 0.204553 -1.93654e-19)
(1.01765 0.910579 0)
(1.19181 1.0818 1.45113e-19)
(1.20583 1.11424 0)
(1.15686 1.09323 -2.15141e-20)
(1.08712 1.05619 0)
(1.01186 1.01608 7.69039e-21)
(0.929453 0.972321 3.2599e-20)
(0.839061 0.922288 3.71166e-20)
(0.7401 0.862428 -6.47054e-19)
(0.647726 0.796724 3.99217e-20)
(0.578282 0.73219 4.41951e-19)
(0.522718 0.65776 6.30917e-19)
(0.44783 0.541288 8.50477e-20)
(0.337083 0.378374 4.15076e-19)
(0.216464 0.199558 0)
(0.121666 0.0455524 5.69497e-19)
(0.0666709 -0.0374922 -3.32266e-19)
(0.0412946 0.0403739 3.86741e-19)
(-0.0691025 0.4386 -4.55752e-19)
(0.231741 0.21138 1.60904e-19)
(1.0107 0.935017 2.46386e-19)
(1.18098 1.10875 0)
(1.19351 1.1414 4.89435e-21)
(1.14451 1.11993 6.67393e-20)
(1.07484 1.08245 4.85524e-21)
(0.999634 1.04201 5.67256e-20)
(0.916705 0.998166 0)
(0.825182 0.948286 2.44639e-19)
(0.723907 0.888893 -3.36316e-20)
(0.62747 0.823666 0)
(0.552144 0.758228 0)
(0.488752 0.677605 5.66687e-19)
(0.405349 0.54546 -2.63306e-19)
(0.28987 0.36802 -4.21773e-19)
(0.170936 0.171501 0)
(0.0714879 0.0577598 2.87501e-19)
(0.00269711 0.436426 -3.31518e-19)
(0.0324082 1.89558 -1.81094e-19)
(0.0615439 2.81432 -2.31941e-19)
(0.231744 0.217409 -1.2143e-19)
(1.00398 0.958282 -3.1733e-19)
(1.17039 1.13413 8.68352e-20)
(1.18145 1.167 6.92843e-20)
(1.13249 1.14519 0)
(1.06293 1.10747 -7.45893e-21)
(0.987926 1.06695 7.39225e-20)
(0.904426 1.02324 -1.56587e-20)
(0.811809 0.973837 3.66853e-20)
(0.708233 0.915405 6.17409e-19)
(0.607581 0.851386 6.75949e-19)
(0.525745 0.786124 4.97748e-19)
(0.452495 0.699538 5.7175e-19)
(0.359052 0.548078 -6.21178e-19)
(0.239453 0.360719 -6.38825e-19)
(0.11601 0.217435 0)
(0.0412337 0.83406 0)
(0.0986228 2.55424 1.58561e-19)
(0.0999713 3.20389 0)
(0.103386 3.38902 3.76722e-19)
(0.234281 0.223003 0)
(0.998079 0.980579 0)
(1.15982 1.15779 0)
(1.16945 1.19086 2.13649e-20)
(1.12047 1.16877 6.17801e-20)
(1.05115 1.13112 -1.82528e-20)
(0.976624 1.09079 4.62341e-20)
(0.892575 1.04744 -1.52002e-20)
(0.79891 0.99881 3.04649e-19)
(0.693113 0.941831 -8.75142e-21)
(0.588226 0.879813 1.3376e-18)
(0.49939 0.815731 -5.76191e-20)
(0.414125 0.724803 6.93879e-20)
(0.311463 0.546854 9.01394e-20)
(0.175951 0.37213 -5.85955e-21)
(0.0956127 0.96159 1.84194e-21)
(0.136875 2.72658 -8.43538e-19)
(0.144713 3.29335 -3.15114e-19)
(0.134313 3.42544 1.62004e-19)
(0.122372 3.44761 -1.80184e-19)
(0.153182 0.180491 7.23771e-20)
(0.986793 1.00464 0)
(1.14887 1.17993 -1.75558e-19)
(1.15802 1.2135 -1.90463e-19)
(1.10934 1.1915 1.53002e-19)
(1.04046 1.15411 2.43254e-20)
(0.965668 1.11363 -4.58239e-20)
(0.881267 1.0709 1.6407e-19)
(0.786662 1.02338 -2.48879e-19)
(0.678851 0.968357 0)
(0.569838 0.909177 6.57931e-19)
(0.473646 0.84694 -4.07619e-19)
(0.375678 0.756275 0)
(0.256683 0.542264 8.45443e-20)
(0.13884 0.724126 2.01427e-19)
(0.152648 2.50132 -2.32764e-19)
(0.208787 3.32181 2.60436e-19)
(0.189521 3.43715 1.39453e-19)
(0.157948 3.45895 1.557e-19)
(0.136613 3.46943 2.46272e-19)
(0.276955 0.260611 -1.31763e-19)
(0.97119 1.01412 0)
(1.13052 1.20514 1.92673e-19)
(1.14278 1.24388 2.10812e-19)
(1.09181 1.22449 -1.73963e-19)
(1.02215 1.18746 -4.74933e-20)
(0.946437 1.14862 3.34193e-20)
(0.861506 1.10712 1.29876e-20)
(0.765549 1.06179 2.3614e-19)
(0.65489 1.01071 5.33274e-19)
(0.540372 0.958087 3.70155e-20)
(0.432716 0.900529 3.63528e-19)
(0.304503 0.790621 6.5476e-20)
(0.2103 0.903633 -8.335e-20)
(0.227288 2.34885 -1.87865e-19)
(0.28902 3.32296 1.78233e-19)
(0.271901 3.46473 -1.95802e-19)
(0.236722 3.48716 -1.12447e-19)
(0.19992 3.51524 -9.31327e-20)
(0.148548 3.50986 -1.08917e-20)
(0.264743 0.257435 0)
(0.96863 1.03657 5.674e-20)
(1.12202 1.22852 -4.0065e-20)
(1.13202 1.26748 -2.55216e-20)
(1.08086 1.24766 -1.22302e-19)
(1.01115 1.21085 5.13111e-20)
(0.93511 1.17215 -1.35584e-20)
(0.84996 1.13145 1.15213e-20)
(0.753441 1.08762 -2.45267e-19)
(0.641412 1.03945 -1.35637e-20)
(0.523919 0.991808 -1.1919e-18)
(0.410761 0.938554 5.20357e-20)
(0.28482 0.855236 -6.17714e-20)
(0.253515 1.47086 -7.69962e-20)
(0.329587 3.09871 1.81911e-20)
(0.348504 3.46143 8.50281e-23)
(0.308336 3.51814 2.79349e-19)
(0.271086 3.54568 1.34292e-19)
(0.222542 3.56964 -2.95411e-20)
(0.163641 3.5661 -4.96011e-20)
(0.248592 0.255937 1.44611e-19)
(0.964479 1.06169 3.88098e-19)
(1.11313 1.25399 -1.14917e-19)
(1.12067 1.29249 -9.62266e-20)
(1.06928 1.27217 0)
(0.999717 1.23542 1.02993e-19)
(0.923652 1.19696 -4.70698e-21)
(0.838565 1.15705 9.93698e-21)
(0.741805 1.11481 -2.74786e-20)
(0.628941 1.06983 -4.81296e-19)
(0.509331 1.02757 -5.49671e-19)
(0.392312 0.977837 -4.24798e-19)
(0.286104 0.984629 -4.68807e-19)
(0.324355 2.19771 4.83254e-19)
(0.417736 3.37052 4.00534e-19)
(0.393535 3.51851 0)
(0.348246 3.56459 0)
(0.310213 3.60628 -2.25949e-20)
(0.259478 3.66693 0)
(0.176474 3.64343 -1.90437e-20)
(0.237967 0.257824 -2.17488e-19)
(0.958409 1.08789 -3.30679e-19)
(1.10279 1.28063 0)
(1.10794 1.31822 5.87193e-21)
(1.05641 1.29727 -1.36067e-19)
(0.987141 1.26046 1.72956e-19)
(0.911394 1.22229 5.64145e-21)