/*--------------------------------*- C++ -*----------------------------------*\
| =========                 |                                                 |
| \\      /  F ield         | OpenFOAM: The Open Source CFD Toolbox           |
|  \\    /   O peration     | Version:  2112                                  |
|   \\  /    A nd           | Website:  www.openfoam.com                      |
|    \\/     M anipulation  |                                                 |
\*---------------------------------------------------------------------------*/
FoamFile
{
    version     2.0;
    format      ascii;
    arch        "LSB;label=32;scalar=64";
    class       volScalarField;
    location    "26";
    object      p;
}
// * * * * * * * * * * * * * * * * * * * * * * * * * * * * * * * * * * * * * //

dimensions      [0 2 -2 0 0 0 0];

internalField   nonuniform List<scalar> 
400
(
3.3748885e-07
-0.00067249521
-0.0013849673
-0.0019423222
-0.0022196128
-0.0021561076
-0.0017274013
-0.00092580961
0.00023581089
0.0017077951
0.0033876751
0.0051125841
0.0066738644
0.0078494871
0.0084587739
0.0084240704
0.0078137867
0.0068449111
0.0058616952
0.0052993406
0.00065821694
-4.0144642e-05
-0.00056927697
-0.00094024063
-0.0011104764
-0.0010395325
-0.00070539988
-9.5152878e-05
0.00078949139
0.0019165767
0.003209974
0.0045550925
0.0057823518
0.0067166471
0.0072148155
0.0072149214
0.0067703492
0.0060531651
0.0053109243
0.0047388836
0.0014240756
0.00044102889
-0.00011621931
-0.00045286038
-0.00061442349
-0.00058442446
-0.00034619216
0.00012013205
0.00082884846
0.0017702943
0.0028946781
0.0040985516
0.0052286305
0.0061113688
0.0065942669
0.0065980623
0.0061561346
0.005421907
0.004594142
0.0037486302
0.0020145699
0.00068206274
1.7148189e-05
-0.00035847239
-0.0005711661
-0.00062617423
-0.00050969568
-0.00019024278
0.00036889089
0.0011847754
0.0022303021
0.0034178157
0.004591757
0.0055573365
0.0061239531
0.0061669606
0.005684019
0.0048174476
0.0037476893
0.0024739966
0.00216764
0.00049649245
-0.00029588211
-0.00074832618
-0.0010578711
-0.0012448848
-0.0012923598
-0.0011509109
-0.00075465787
-5.2707631e-05
0.00095741633
0.0022106728
0.0035450985
0.0047330545
0.0055222379
0.0057102803
0.0052296831
0.0042020013
0.0028065822
0.00098436178
0.0016543313
-0.00031410499
-0.0012384107
-0.0017989215
-0.0022522792
-0.0026275222
-0.0028982286
-0.0029906852
-0.0028021377
-0.0022372785
-0.0012506989
0.00013128667
0.0017450385
0.0033275022
0.0045420374
0.0050661739
0.0047178919
0.0035665966
0.0017899934
-0.00072551858
0.00028739642
-0.0019191946
-0.0029726198
-0.0036710001
-0.0043199101
-0.0049528094
-0.0055297228
-0.0059475484
-0.0060585926
-0.005706969
-0.0047753047
-0.0032582881
-0.0012661048
0.00090758006
0.002823528
0.003987237
0.0040254949
0.0028881093
0.00071578214
-0.0026800936
-0.0020760528
-0.0044508118
-0.0056264215
-0.0064919359
-0.0073925279
-0.0083653647
-0.0093565162
-0.010231368
-0.010790546
-0.010804412
-0.010062931
-0.0084613348
-0.0060403445
-0.0030827996
-0.00012589463
0.0021130304
0.0029642312
0.0021359851
-0.00036562837
-0.0048722003
-0.0055237833
-0.0079917271
-0.0092775318
-0.010333396
-0.011537599
-0.012935009
-0.014462294
-0.015955898
-0.017162031
-0.01776559
-0.017437636
-0.015919033
-0.013122522
-0.0092513287
-0.0048985845
-0.0010296001
0.0012698193
0.0012781706
-0.0013335495
-0.0072012642
-0.010076521
-0.012564701
-0.013936267
-0.015183603
-0.016717974
-0.018602209
-0.020773777
-0.023048338
-0.02512125
-0.026585905
-0.026968898
-0.025812492
-0.022845232
-0.018074009
-0.012050658
-0.0059515283
-0.0013703223
0.00030100585
-0.0019467914
-0.0093818091
-0.015684588
-0.018132012
-0.01953715
-0.020926398
-0.022757326
-0.025129457
-0.027996579
-0.03116597
-0.034291029
-0.0368764
-0.038293718
-0.037843821
-0.035065402
-0.02960102
-0.021822055
-0.012985144
-0.0051845517
-0.0007153338
-0.0017637853
-0.010791838
-0.022243194
-0.024612633
-0.025945182
-0.027334539
-0.029323738
-0.032078802
-0.035588509
-0.03966421
-0.043926824
-0.047800847
-0.050529728
-0.051236021
-0.04895642
-0.043143094
-0.03376857
-0.021925906
-0.010036456
-0.0014150248
-9.4523111e-06
-0.010225204
-0.029640807
-0.031923489
-0.032978339
-0.034079451
-0.035939079
-0.038831082
-0.042795178
-0.047651141
-0.052990081
-0.058163128
-0.062283786
-0.064265073
-0.062874704
-0.057111738
-0.046476301
-0.031648655
-0.015037437
-0.00086397232
0.0046471758
-0.005521127
-0.037865594
-0.040048104
-0.040439736
-0.04075211
-0.04201462
-0.04465263
-0.048757758
-0.054143619
-0.060355584
-0.066664892
-0.072060233
-0.075267832
-0.074810919
-0.069268832
-0.057627881
-0.039961089
-0.018247557
0.0027894481
0.014445563
0.0069079494
-0.047230178
-0.049133946
-0.048140178
-0.046881907
-0.046905093
-0.048798268
-0.052667863
-0.058275583
-0.065075663
-0.072231553
-0.078595325
-0.082711884
-0.082879782
-0.077308974
-0.064523532
-0.043934555
-0.016747591
0.012503343
0.032939179
0.032409343
-0.058896389
-0.059639477
-0.055883502
-0.051940668
-0.049971932
-0.050629474
-0.053928232
-0.059494918
-0.06661143
-0.074284863
-0.081190736
-0.08567898
-0.085831385
-0.079521796
-0.064875713
-0.040688888
-0.0072405446
0.032139749
0.064981829
0.077749557
-0.076226121
-0.072613358
-0.063515768
-0.055434979
-0.050724639
-0.049781213
-0.052311942
-0.057663952
-0.064891398
-0.072774546
-0.079778944
-0.084036334
-0.083391255
-0.075348577
-0.057602303
-0.02837478
0.012933685
0.065396838
0.11555187
0.15150659
-0.10809184
-0.089556017
-0.071233467
-0.057232612
-0.049071745
-0.046329834
-0.048076876
-0.053202204
-0.060434209
-0.068295447
-0.075026979
-0.078526509
-0.076388616
-0.0658093
-0.043865119
-0.0078180977
0.044394016
0.1129985
0.18838078
0.27186112
-0.17684512
-0.10828937
-0.076202173
-0.054650899
-0.042992021
-0.03899766
-0.040570131
-0.045927651
-0.053441134
-0.061437949
-0.068027177
-0.070962159
-0.067550747
-0.054739463
-0.029148455
0.01356395
0.078147301
0.1700647
0.28949581
0.47421856
-0.37208312
-0.12470812
-0.054972723
-0.031962174
-0.022063207
-0.020300162
-0.024359085
-0.031957615
-0.041261163
-0.050640483
-0.058316496
-0.062187064
-0.059782165
-0.048056436
-0.022658167
0.021474559
0.092819067
0.21015311
0.40288877
0.77640963
)
;

boundaryField
{
    movingWall
    {
        type            zeroGradient;
    }
    fixedWalls
    {
        type            zeroGradient;
    }
    frontAndBack
    {
        type            empty;
    }
}


// ************************************************************************* //
