/*--------------------------------*- C++ -*----------------------------------*\
| =========                 |                                                 |
| \\      /  F ield         | OpenFOAM: The Open Source CFD Toolbox           |
|  \\    /   O peration     | Version:  2112                                  |
|   \\  /    A nd           | Website:  www.openfoam.com                      |
|    \\/     M anipulation  |                                                 |
\*---------------------------------------------------------------------------*/
FoamFile
{
    version     2.0;
    format      ascii;
    arch        "LSB;label=32;scalar=64";
    class       surfaceScalarField;
    location    "26";
    object      phi_0;
}
// * * * * * * * * * * * * * * * * * * * * * * * * * * * * * * * * * * * * * //

dimensions      [0 3 -1 0 0 0 0];

oriented        oriented;

internalField   nonuniform List<scalar> 
760
(
1.2701157e-05
-1.2705094e-05
-2.872405e-05
4.1425211e-05
-0.00012229235
9.3568302e-05
-0.00025039681
0.00012810447
-0.00039607615
0.00014567934
-0.00054539297
0.00014931683
-0.00068627419
0.00014088122
-0.00080689539
0.0001206212
-0.00089495614
8.8060756e-05
-0.00093839434
4.3438202e-05
-0.00092727796
-1.1116381e-05
-0.00085686471
-7.0413253e-05
-0.00073043114
-0.00012643357
-0.00056134276
-0.00016908839
-0.00037276076
-0.00018858199
-0.00019447414
-0.00017828659
-5.6521966e-05
-0.00013795212
1.9614403e-05
-7.613633e-05
3.0411281e-05
-1.0796857e-05
3.0411298e-05
-4.3183632e-05
3.0478541e-05
-0.00020456711
0.0002028087
-0.00046832569
0.00035732689
-0.00080070919
0.00046048798
-0.0011673523
0.00051232244
-0.0015364516
0.00051841618
-0.0018782301
0.0004826597
-0.0021636848
0.00040607593
-0.0023645469
0.00028892288
-0.0024553537
0.00013424501
-0.0024181465
-4.8323584e-05
-0.0022453617
-0.00024319809
-0.0019475591
-0.00042423613
-0.0015544708
-0.00056217662
-0.0011143221
-0.00062873065
-0.00068747504
-0.00060513363
-0.00033452566
-0.00049090148
-0.00010089675
-0.00030976523
-1.5519525e-06
-0.00011014164
2.8859351e-05
-0.00011002771
0.00014050625
-0.00040303321
0.00049581422
-0.00083139133
0.00078568502
-0.0013456222
0.00097471885
-0.0018986053
0.0010653055
-0.0024465889
0.0010663998
-0.0029480415
0.00098411238
-0.0033626284
0.00082066278
-0.0036519003
0.00057819486
-0.0037823268
0.00026467149
-0.0037298315
-0.00010081881
-0.0034858183
-0.00048721133
-0.0030632782
-0.00084677627
-0.0024999954
-0.0011254594
-0.0018582351
-0.0012704909
-0.0012181443
-0.0012452245
-0.00066373665
-0.0010453092
-0.00026308964
-0.00071041226
-4.7956356e-05
-0.00032527492
-1.9096996e-05
-0.00017344036
0.00031394662
-0.00059329494
0.00091566881
-0.0011777004
0.0013700905
-0.0018583781
0.0016553965
-0.0025769196
0.001783847
-0.003281321
0.0017708012
-0.0039228078
0.0016255992
-0.0044541506
0.0013520056
-0.0048302733
0.00095431756
-0.0050112458
0.000445644
-0.0049672627
-0.00014480187
-0.0046844381
-0.00077003587
-0.0041723521
-0.0013588623
-0.0034691279
-0.0018286836
-0.0026440097
-0.0020956092
-0.0017932008
-0.0020960334
-0.0010258504
-0.0018126596
-0.00044021488
-0.0012960478
-9.6723864e-05
-0.00066876592
-0.00011582085
-0.00022979647
0.00054374309
-0.00076507784
0.0014509502
-0.0014914915
0.0020965042
-0.0023225568
0.0024864619
-0.0031901529
0.0026514431
-0.0040368373
0.0026174856
-0.0048100532
0.0023988151
-0.005458982
0.0020009343
-0.0059341987
0.0014295343
-0.006189829
0.00070127427
-0.0061884087
-0.0001462221
-0.0059055784
-0.0010528661
-0.0053404146
-0.0019240262
-0.0045231139
-0.0026459843
-0.0035229747
-0.0030957483
-0.0024498035
-0.0031692046
-0.0014425387
-0.0028199245
-0.00064123092
-0.0020973555
-0.00014883683
-0.00116116
-0.00026465767
-0.00027729886
0.00082104196
-0.00091155038
0.0020852017
-0.0017607366
0.0029456904
-0.0027228181
0.0034485434
-0.0037222234
0.0036508485
-0.004698709
0.0035939713
-0.0055989071
0.0032990132
-0.0063712077
0.002773235
-0.0069637451
0.0020220717
-0.0073248524
0.0010623816
-0.0074074741
-6.3600454e-05
-0.0071717048
-0.0012886353
-0.0065988937
-0.0024968373
-0.0057016816
-0.0035431963
-0.0045400189
-0.0042574109
-0.0032318415
-0.004477382
-0.0019490199
-0.004102746
-0.00088728717
-0.0031590882
-0.00021159408
-0.0018368531
-0.00047625175
-0.00031411634
0.0011351583
-0.0010263402
0.0027974256
-0.00197351
0.0038928603
-0.0030417573
0.0045167907
-0.0041507207
0.0047598118
-0.0052399485
0.0046831991
-0.0062580783
0.004317143
-0.0071555308
0.0036706875
-0.0078803724
0.0027469133
-0.0083768469
0.0015588561
-0.0085853933
0.00014494597
-0.0084513227
-0.0014227059
-0.0079295011
-0.0030186588
-0.0070049642
-0.0044677332
-0.0057150432
-0.0055473319
-0.0041735801
-0.0060188451
-0.0025818435
-0.0056944826
-0.001204104
-0.0045368277
-0.00029450385
-0.0027464532
-0.0007707556
-0.00033824833
0.0014734066
-0.0011031686
0.0035623458
-0.0021176329
0.0049073246
-0.0032598877
0.0056590455
-0.0044474042
0.0059473283
-0.005621958
0.0058577529
-0.006736944
0.005432129
-0.007747961
0.0046817045
-0.0086063679
0.0036053201
-0.0092552437
0.0022077318
-0.0096270072
0.00051670945
-0.0096491986
-0.0014005145
-0.0092489739
-0.0034188836
-0.0083739375
-0.0053427697
-0.007022068
-0.0068992014
-0.0052818104
-0.0077591027
-0.0033676647
-0.0076086283
-0.0016173623
-0.0062871301
-0.00040826864
-0.0039555469
-0.0011790242
-0.00034815589
0.0018215625
-0.0011372141
0.004351404
-0.0021827867
0.0059528973
-0.0033586172
0.0068348759
-0.0045822388
0.00717095
-0.0057998176
0.0070753317
-0.0069721893
0.0066045008
-0.008063662
0.0057731772
-0.0090334353
0.0045750934
-0.0098289871
0.0030032837
-0.010381268
0.0010689902
-0.010604519
-0.001177263
-0.010400772
-0.0036226312
-0.0096748903
-0.0060686512
-0.0083686706
-0.0082054211
-0.0065156822
-0.0096120911
-0.0043098826
-0.0098144279
-0.0021483223
-0.0084486903
-0.00056492501
-0.0055389442
-0.0017439492
-0.00034393463
0.0021654972
-0.0011278591
0.0051353285
-0.0021647087
0.006989747
-0.0033259004
0.0079960677
-0.0045308004
0.00837585
-0.0057319418
0.0082764731
-0.0069002184
0.0077727775
-0.0080123781
0.006885337
-0.0090408226
0.0056035379
-0.0099449633
0.0039074244
-0.010663391
0.0017874181
-0.011106742
-0.00073391212
-0.011163417
-0.0035659565
-0.010697124
-0.0065349434
-0.009582596
-0.0093199495
-0.0077667744
-0.011427913
-0.0053714992
-0.012209703
-0.0028071776
-0.011013012
-0.00077836861
-0.0075677532
-0.0025223179
-0.0003289079
0.0024944051
-0.0010824213
0.0058888419
-0.0020707769
0.0079781025
-0.0031636125
0.0090889033
-0.0042839014
0.0094961389
-0.0053928529
0.0093854245
-0.0064741399
0.0088540646
-0.0075205477
0.0079317448
-0.0085229177
0.0066059079
-0.0094603445
0.0048448513
-0.010291332
0.0026184055
-0.010933227
-9.2017275e-05
-0.011283212
-0.0032159717
-0.011173632
-0.0066445225
-0.010415713
-0.010077869
-0.0088467348
-0.01299689
-0.0064557526
-0.014600685
-0.003581526
-0.013887238
-0.0010642225
-0.010085057
-0.0035865403
-0.00031178432
0.0028061894
-0.0010206794
0.006597737
-0.0019261009
0.0088835239
-0.0028949503
0.010057753
-0.0038568844
0.010458073
-0.0047855655
0.010314106
-0.0056807689
0.0097492679
-0.0065544586
0.0088054345
-0.0074198926
0.007471342
-0.0082818284
0.0057067872
-0.0091251589
0.0034617361
-0.009908643
0.00069146685
-0.010527259
-0.0025973553
-0.010827016
-0.006344766
-0.010573629
-0.010331256
-0.0094932089
-0.014077311
-0.0073911385
-0.016702756
-0.004418914
-0.016859463
-0.0014372113
-0.013066759
-0.0050237516
-0.00031004311
0.0031162325
-0.00098036561
0.0072680595
-0.0017790503
0.0096822087
-0.0025693683
0.010848071
-0.0032945988
0.011183304
-0.0039479005
0.010967407
-0.0045499747
0.010351342
-0.0051347905
0.0093902503
-0.0057399255
0.0080764769
-0.0063985301
0.0063653917
-0.0071301327
0.0041933387
-0.0079302644
0.0014915986
-0.0087388107
-0.0017888091
-0.009430363
-0.0056532136
-0.0097685842
-0.0099930346
-0.0094003456
-0.014445549
-0.0079305803
-0.018172521
-0.0052061613
-0.019583882
-0.0019026118
-0.016370309
-0.0069263635
-0.00035604058
0.0034722731
-0.0010239983
0.0079360172
-0.0017042323
0.010362443
-0.0022608014
0.01140464
-0.0026657255
0.011588228
-0.0029440142
0.011245696
-0.003144254
0.010551582
-0.0033248723
0.0095708686
-0.003547198
0.0082988027
-0.0038710511
0.0066892448
-0.0043491763
0.0046714638
-0.0050183856
0.002160808
-0.0058766181
-0.00093057652
-0.0068578401
-0.0046719917
-0.0077762924
-0.0090745822
-0.0082658384
-0.013956003
-0.0077687419
-0.018669617
-0.0057511001
-0.021601524
-0.0024366711
-0.019684738
-0.0093630346
-0.00050826151
0.0039805346
-0.0012456327
0.0086733884
-0.0017958861
0.010912696
-0.0020480025
0.011656756
-0.0020325104
0.011572736
-0.0018254313
0.011038617
-0.0015121984
0.010238349
-0.0011778667
0.0092365369
-0.00090472049
0.0080256565
-0.00077372798
0.0065582523
-0.00086349815
0.004761234
-0.0012473656
0.0025446755
-0.0019828395
-0.00019510265
-0.003081875
-0.0035729562
-0.0044600374
-0.0076964198
-0.0058274913
-0.01258855
-0.0065661665
-0.017930942
-0.0057684482
-0.022399242
-0.0029512252
-0.022501961
-0.01231426
-0.00086855377
0.0048490884
-0.0017629844
0.0095678191
-0.0021213568
0.011271069
-0.0019368467
0.011472246
-0.0013509228
0.010986812
-0.00051619326
0.010203887
0.00043704078
0.0092851151
0.0013996134
0.0082739643
0.0022723769
0.0071528931
0.0029609154
0.0058697138
0.0033691503
0.0043529992
0.0033967985
0.0025170272
0.002938544
0.00026315183
0.0019096088
-0.0025440209
0.0002696824
-0.0060564935
-0.0018541658
-0.010464701
-0.0039515978
-0.01583351
-0.0048608354
-0.021490004
-0.0032547037
-0.024108092
-0.015568963
-0.0015910843
0.0064401726
-0.0026108535
0.010587588
-0.002513137
0.011173352
-0.0015899065
0.010549016
-0.00017217005
0.0095690752
0.0014928019
0.0085389154
0.0032328988
0.0075450182
0.0049232383
0.0065836247
0.0064629971
0.0056131342
0.0077575014
0.0045752095
0.0087075067
0.0034029938
0.0092014945
0.0020230395
0.0091033391
0.00036130724
0.0082750878
-0.0017157696
0.0065654576
-0.0043468632
0.0039042324
-0.0078034762
0.0005589522
-0.01248823
-0.0024680556
-0.018462997
-0.0030273172
-0.023548831
-0.018596281
-0.0027183597
0.0091585322
-0.0031498659
0.011019095
-0.0018029988
0.009826485
0.00046670147
0.0082793155
0.0030894238
0.0069463528
0.0057738114
0.0058545278
0.0083628984
0.0049559312
0.010760396
0.0041861273
0.012893491
0.0034800392
0.014690659
0.0027780416
0.016068343
0.0020253092
0.016923282
0.0011681009
0.01711971
0.00016487903
0.016490827
-0.0010868859
0.014816837
-0.002672874
0.011846655
-0.0048332937
0.0074354906
-0.0080770657
0.0022629283
-0.013290434
-0.0012724669
-0.020013436
-0.019868748
-0.0024132793
0.011571811
2.8056991e-05
0.0085777585
0.004255138
0.0055994039
0.0084161217
0.0041183318
0.012231483
0.0031309911
0.015656262
0.0024297494
0.018686545
0.0019256484
0.021329187
0.0015434845
0.023583487
0.0012257392
0.025429222
0.00093230688
0.026820165
0.00063436595
0.027677177
0.00031108948
0.027900201
-5.8145223e-05
0.027347222
-0.00053390708
0.02577163
-0.0010972818
0.022843046
-0.0019047093
0.018054769
-0.0032887893
0.011113586
-0.0063492511
0.0033886752
-0.012288525
-0.016480072
0.011571811
0.02014957
0.025748974
0.029867306
0.032998297
0.035428046
0.037353695
0.038897179
0.040122919
0.041055225
0.041689591
0.042000681
0.041942536
0.041408629
0.040311347
0.038406637
0.035117848
0.028768597
0.016480072
)
;

boundaryField
{
    movingWall
    {
        type            calculated;
        value           uniform 0;
    }
    fixedWalls
    {
        type            calculated;
        value           uniform 0;
    }
    frontAndBack
    {
        type            empty;
        value           nonuniform List<scalar> 0();
    }
}


// ************************************************************************* //
