/*--------------------------------*- C++ -*----------------------------------*\
| =========                 |                                                 |
| \\      /  F ield         | OpenFOAM: The Open Source CFD Toolbox           |
|  \\    /   O peration     | Version:  2112                                  |
|   \\  /    A nd           | Website:  www.openfoam.com                      |
|    \\/     M anipulation  |                                                 |
\*---------------------------------------------------------------------------*/
FoamFile
{
    version     2.0;
    format      ascii;
    arch        "LSB;label=32;scalar=64";
    class       volVectorField;
    location    "26";
    object      U;
}
// * * * * * * * * * * * * * * * * * * * * * * * * * * * * * * * * * * * * * //

dimensions      [0 1 -1 0 0 0 0];

internalField   nonuniform List<vector> 
400
(
(0.00028442553 -0.00028141355 0)
(0.00011066977 7.9957734e-05 0)
(-0.0013272044 0.00047802934 0)
(-0.0036219079 0.00073593108 0)
(-0.0064236696 0.00086752365 0)
(-0.0094315094 0.00090727333 0)
(-0.012388047 0.00087487109 0)
(-0.015056504 0.00077153481 0)
(-0.017194621 0.00058849228 0)
(-0.01855293 0.00032008517 0)
(-0.018902695 -2.4812889e-05 0)
(-0.018086208 -0.00041826922 0)
(-0.016079939 -0.000799725 0)
(-0.01304897 -0.0010930854 0)
(-0.0093664032 -0.0012212138 0)
(-0.005577662 -0.0011294813 0)
(-0.0023003404 -0.0008128712 0)
(-8.2953387e-05 -0.00033798287 0)
(0.00076014979 0.0001522938 0)
(0.00040944111 0.00038933807 0)
(-8.607071e-05 -0.00012360853 0)
(-0.0018692767 0.0017872447 0)
(-0.0063065489 0.0036260635 0)
(-0.012452733 0.0048625135 0)
(-0.019600732 0.0054985527 0)
(-0.027107077 0.0056206964 0)
(-0.034359057 0.0052860539 0)
(-0.040769074 0.0045043968 0)
(-0.045758389 0.0032662286 0)
(-0.04877613 0.0015896526 0)
(-0.049366883 -0.00043547678 0)
(-0.047254057 -0.0026182041 0)
(-0.042452192 -0.0046645626 0)
(-0.035361638 -0.006218945 0)
(-0.026778708 -0.0069376157 0)
(-0.017827311 -0.0065922915 0)
(-0.0097755544 -0.0051797941 0)
(-0.0037462999 -0.0029994419 0)
(-0.00038875334 -0.00066553783 0)
(0.00028989454 0.00078354726 0)
(-0.00058808429 0.001433622 0)
(-0.0042428236 0.0063775289 0)
(-0.011758619 0.01064063 0)
(-0.021468804 0.013483675 0)
(-0.032366369 0.014898378 0)
(-0.043588248 0.015017456 0)
(-0.054287704 0.013936219 0)
(-0.06364289 0.011684278 0)
(-0.070856209 0.008281378 0)
(-0.075188747 0.0038286502 0)
(-0.076039927 -0.0014059279 0)
(-0.073058103 -0.0069356906 0)
(-0.066266945 -0.012071808 0)
(-0.056169557 -0.016000326 0)
(-0.043780948 -0.017942817 0)
(-0.030569265 -0.017380014 0)
(-0.018250691 -0.014290015 0)
(-0.0084179839 -0.0093123191 0)
(-0.0021511233 -0.0037618394 0)
(-1.9706206e-06 0.00031696591 0)
(-0.0010530689 0.0043003882 0)
(-0.006514885 0.013565783 0)
(-0.0169992 0.020864176 0)
(-0.030031041 0.02556135 0)
(-0.044300809 0.027761571 0)
(-0.058784595 0.027688061 0)
(-0.072487899 0.025487716 0)
(-0.084447325 0.021218471 0)
(-0.093729363 0.014945139 0)
(-0.099464641 0.006878377 0)
(-0.10093055 -0.0025013067 0)
(-0.09766318 -0.012378491 0)
(-0.089593338 -0.021605489 0)
(-0.07718241 -0.028824887 0)
(-0.061505211 -0.032706169 0)
(-0.044253714 -0.03230001 0)
(-0.027562255 -0.02744596 0)
(-0.013581772 -0.019080735 0)
(-0.004026355 -0.0092707064 0)
(-0.00026772071 -0.0011081924 0)
(-0.0014558677 0.0083650434 0)
(-0.0085490817 0.023181279 0)
(-0.021746271 0.034051725 0)
(-0.037792539 0.040763154 0)
(-0.055097022 0.043701823 0)
(-0.072519717 0.043259088 0)
(-0.088984588 0.039661516 0)
(-0.10345864 0.033001381 0)
(-0.11493241 0.023384246 0)
(-0.12243709 0.011116749 0)
(-0.12511548 -0.0031289504 0)
(-0.12232002 -0.018219404 0)
(-0.11376163 -0.032541655 0)
(-0.099698338 -0.04413268 0)
(-0.081100557 -0.050966345 0)
(-0.059776365 -0.051441286 0)
(-0.038291204 -0.04501368 0)
(-0.019520463 -0.032755573 0)
(-0.0060923432 -0.017491863 0)
(-0.00051102248 -0.0035220303 0)
(-0.0017889359 0.013475463 0)
(-0.010269727 0.034960892 0)
(-0.025805537 0.049908682 0)
(-0.044466813 0.058794853 0)
(-0.064427789 0.062458422 0)
(-0.084477646 0.061550945 0)
(-0.10351668 0.056416075 0)
(-0.12050365 0.047182227 0)
(-0.1344041 0.033970359 0)
(-0.14417406 0.017132369 0)
(-0.1488036 -0.00253592 0)
(-0.14739342 -0.023636434 0)
(-0.13931124 -0.044142667 0)
(-0.12443566 -0.0614422 0)
(-0.10343171 -0.0726424 0)
(-0.078055951 -0.075173999 0)
(-0.051260951 -0.067706816 0)
(-0.026809465 -0.051124219 0)
(-0.0086123046 -0.028965675 0)
(-0.00078707326 -0.0070521567 0)
(-0.0020420356 0.019436531 0)
(-0.011605657 0.048528948 0)
(-0.02899581 0.067998378 0)
(-0.049757754 0.079226065 0)
(-0.071891662 0.08365744 0)
(-0.094162116 0.082297767 0)
(-0.11550008 0.075649712 0)
(-0.13491505 0.063876917 0)
(-0.15140331 0.047075989 0)
(-0.16388479 0.025567777 0)
(-0.17119241 0.00016304371 0)
(-0.17215459 -0.02761062 0)
(-0.1657157 -0.055396325 0)
(-0.15119201 -0.079945747 0)
(-0.12870063 -0.097351213 0)
(-0.099670036 -0.10369861 0)
(-0.067241856 -0.096286144 0)
(-0.036119134 -0.075220242 0)
(-0.011929735 -0.044539838 0)
(-0.0011708178 -0.01200149 0)
(-0.0022012877 0.026013371 0)
(-0.012484722 0.063419586 0)
(-0.031139923 0.087764465 0)
(-0.05335458 0.10149025 0)
(-0.077017738 0.10677712 0)
(-0.10091208 0.10507374 0)
(-0.12405009 0.097088167 0)
(-0.14555175 0.08302136 0)
(-0.1645096 0.062902183 0)
(-0.17987592 0.03693082 0)
(-0.1903992 0.0057955434 0)
(-0.19465565 -0.029033387 0)
(-0.19113628 -0.065018064 0)
(-0.17848974 -0.098391059 0)
(-0.15602491 -0.12417746 0)
(-0.12444491 -0.13676281 0)
(-0.086646628 -0.13132909 0)
(-0.048063759 -0.10623285 0)
(-0.016429366 -0.065393244 0)
(-0.0017537926 -0.01887842 0)
(-0.0022557077 0.032933244 0)
(-0.012853711 0.07908846 0)
(-0.032098921 0.10853497 0)
(-0.05498184 0.12486421 0)
(-0.07933486 0.13109282 0)
(-0.1039942 0.12919922 0)
(-0.12810031 0.12015129 0)
(-0.15094505 0.10420143 0)
(-0.17179726 0.08127832 0)
(-0.18974465 0.051375579 0)
(-0.20357617 0.014915434 0)
(-0.21172901 -0.026876065 0)
(-0.21232511 -0.071532289 0)
(-0.20333811 -0.11502601 0)
(-0.18306276 -0.15144703 0)
(-0.15101787 -0.17328503 0)
(-0.10916557 -0.17282184 0)
(-0.063026359 -0.14524381 0)
(-0.022524966 -0.092978054 0)
(-0.0026589613 -0.028422186 0)
(-0.0022086322 0.039904483 0)
(-0.012717076 0.094944155 0)
(-0.031841286 0.12954007 0)
(-0.054496802 0.14845841 0)
(-0.078500056 0.15563537 0)
(-0.10277096 0.15366633 0)
(-0.12662138 0.14384594 0)
(-0.14957654 0.1265133 0)
(-0.17117086 0.10149247 0)
(-0.19075569 0.068517122 0)
(-0.20732703 0.02762759 0)
(-0.21937765 -0.0203942 0)
(-0.22488772 -0.073461865 0)
(-0.22130651 -0.12768871 0)
(-0.20585473 -0.17662049 0)
(-0.1764762 -0.21099192 0)
(-0.13334652 -0.21961304 0)
(-0.080899137 -0.19275384 0)
(-0.030641883 -0.12885255 0)
(-0.0040700702 -0.041637025 0)
(-0.0020933492 0.046663245 0)
(-0.012189725 0.11041846 0)
(-0.030536209 0.14996567 0)
(-0.052017586 0.17124286 0)
(-0.074464994 0.17919237 0)
(-0.096919901 0.17712097 0)
(-0.11891404 0.16672968 0)
(-0.1402665 0.14850269 0)
(-0.16086207 0.12219243 0)
(-0.18044321 0.087272647 0)
(-0.19840291 0.043352635 0)
(-0.21353681 -0.0093895986 0)
(-0.2240146 -0.069676587 0)
(-0.22708286 -0.13413336 0)
(-0.21908957 -0.19645321 0)
(-0.19626646 -0.24625209 0)
(-0.15621925 -0.26886021 0)
(-0.10070622 -0.24798798 0)
(-0.041146001 -0.17433495 0)
(-0.0062706167 -0.05983391 0)
(-0.0019963307 0.053057424 0)
(-0.011565509 0.12508341 0)
(-0.028660969 0.16904504 0)
(-0.048056637 0.19210899 0)
(-0.067638465 0.20035652 0)
(-0.08664392 0.19791271 0)
(-0.10489594 0.18696715 0)
(-0.12256947 0.16821854 0)
(-0.13996405 0.14140908 0)
(-0.15729764 0.10579907 0)
(-0.17451564 0.06057185 0)
(-0.19108375 0.0052258182 0)
(-0.20560164 -0.059922349 0)
(-0.2155059 -0.13260782 0)
(-0.21690139 -0.2075278 0)
(-0.20457806 -0.27431805 0)
(-0.17317489 -0.31571772 0)
(-0.12017096 -0.30807972 0)
(-0.054147475 -0.22988369 0)
(-0.0096749007 -0.084653124 0)
(-0.0020996052 0.059184238 0)
(-0.011414874 0.13881578 0)
(-0.027115402 0.18617327 0)
(-0.043624888 0.20994698 0)
(-0.05898128 0.21760143 0)
(-0.072777885 0.21419766 0)
(-0.085250031 0.20247356 0)
(-0.097001238 0.18339411 0)
(-0.10878869 0.15675619 0)
(-0.12135039 0.12168632 0)
(-0.13525406 0.077015482 0)
(-0.15070286 0.021618289 0)
(-0.16712215 -0.045110673 0)
(-0.18274012 -0.12251599 0)
(-0.19405363 -0.20712609 0)
(-0.1952351 -0.29011466 0)
(-0.17829429 -0.35358502 0)
(-0.13540547 -0.36743802 0)
(-0.069089016 -0.29415288 0)
(-0.014795025 -0.11798444 0)
(-0.0027677003 0.065619931 0)
(-0.012741007 0.15199849 0)
(-0.027330005 0.20099718 0)
(-0.040244556 0.22368357 0)
(-0.049928613 0.22933077 0)
(-0.056643425 0.22403744 0)
(-0.061232562 0.21108054 0)
(-0.064815966 0.19168174 0)
(-0.068620649 0.16572044 0)
(-0.073874942 0.13227357 0)
(-0.081728139 0.089960315 0)
(-0.093120049 0.037200208 0)
(-0.10846923 -0.02747901 0)
(-0.1272138 -0.10497632 0)
(-0.14705423 -0.19422069 0)
(-0.16280349 -0.28948637 0)
(-0.16509077 -0.37509931 0)
(-0.14090149 -0.41772688 0)
(-0.084061568 -0.36281394 0)
(-0.022011632 -0.16157404 0)
(-0.0047195882 0.073834745 0)
(-0.017222433 0.16572635 0)
(-0.031284339 0.21337827 0)
(-0.039683174 0.23217414 0)
(-0.041883413 0.23380241 0)
(-0.039350992 0.22539459 0)
(-0.033812438 0.21061249 0)
(-0.027000251 0.1908108 0)
(-0.020591896 0.16589801 0)
(-0.016215312 0.13493929 0)
(-0.01547626 0.096470949 0)
(-0.019925475 0.048690074 0)
(-0.03091856 -0.010412655 0)
(-0.049234227 -0.082920434 0)
(-0.074399071 -0.1701431 0)
(-0.10327664 -0.27050251 0)
(-0.12725457 -0.37369529 0)
(-0.12973498 -0.44868773 0)
(-0.094914816 -0.4275069 0)
(-0.030930664 -0.21612801 0)
(-0.0093000043 0.086952147 0)
(-0.027432098 0.18185339 0)
(-0.040981607 0.22303356 0)
(-0.042679363 0.23378962 0)
(-0.034405233 0.22880234 0)
(-0.019622369 0.21592305 0)
(-0.0012381117 0.1987801 0)
(0.018345888 0.17856481 0)
(0.03707188 0.15508362 0)
(0.053056089 0.12735941 0)
(0.064421966 0.093936298 0)
(0.069231301 0.053014576 0)
(0.06541538 0.0024625921 0)
(0.051047636 -0.060339362 0)
(0.024643107 -0.13837664 0)
(-0.013701886 -0.23417143 0)
(-0.058753793 -0.34517032 0)
(-0.093510939 -0.44953996 0)
(-0.094469925 -0.47558822 0)
(-0.039216119 -0.28048281 0)
(-0.018580317 0.11087148 0)
(-0.046039644 0.20177654 0)
(-0.055229986 0.22793167 0)
(-0.043984688 0.22501771 0)
(-0.019372214 0.21061302 0)
(0.01233375 0.19228012 0)
(0.046993524 0.17278504 0)
(0.081754645 0.15265404 0)
(0.11443838 0.13135288 0)
(0.14315369 0.10779555 0)
(0.16601722 0.080591601 0)
(0.18098148 0.048112125 0)
(0.1855763 0.0084492206 0)
(0.17716586 -0.040817584 0)
(0.15275955 -0.10317629 0)
(0.10948884 -0.18390629 0)
(0.047240537 -0.28855472 0)
(-0.021439286 -0.41051044 0)
(-0.072252955 -0.49101704 0)
(-0.041147489 -0.35054295 0)
(-0.033352245 0.15561544 0)
(-0.068601635 0.22040443 0)
(-0.055187293 0.21729225 0)
(-0.016078562 0.19532444 0)
(0.034511301 0.17092354 0)
(0.088507996 0.14849471 0)
(0.14176882 0.12861267 0)
(0.19196931 0.11057764 0)
(0.23754098 0.093297631 0)
(0.27712045 0.075575093 0)
(0.30921842 0.056181464 0)
(0.33204353 0.033823283 0)
(0.34317584 0.00702722 0)
(0.33982897 -0.02591053 0)
(0.31813256 -0.067741819 0)
(0.27327728 -0.124108 0)
(0.20044726 -0.20584715 0)
(0.10213979 -0.32506915 0)
(-0.012387276 -0.4545717 0)
(-0.023756657 -0.40864071 0)
(-0.033081117 0.23907317 0)
(-0.042647154 0.21792011 0)
(0.042207222 0.16426628 0)
(0.12760461 0.12783579 0)
(0.20769801 0.10143551 0)
(0.28028166 0.08165818 0)
(0.34487318 0.066648151 0)
(0.40158311 0.054703063 0)
(0.45055073 0.04439949 0)
(0.4916205 0.034639939 0)
(0.52416194 0.024550597 0)
(0.54698613 0.013381706 0)
(0.55822241 0.0003997413 0)
(0.55570944 -0.015137335 0)
(0.53552623 -0.034969187 0)
(0.49244659 -0.062488197 0)
(0.41797271 -0.10694763 0)
(0.30410594 -0.19317544 0)
(0.12313782 -0.33691905 0)
(0.052374204 -0.39437913 0)
(0.24299926 0.1525748 0)
(0.30529618 0.11854287 0)
(0.45481216 0.076108142 0)
(0.56000885 0.050840196 0)
(0.63223323 0.035126088 0)
(0.68654918 0.02481231 0)
(0.72943831 0.017960102 0)
(0.76379638 0.013255928 0)
(0.79127935 0.0097622042 0)
(0.81275152 0.0068543631 0)
(0.82841142 0.0041185208 0)
(0.83794401 0.0012768582 0)
(0.84057076 -0.0018441984 0)
(0.83497557 -0.005326258 0)
(0.81886697 -0.0098289632 0)
(0.78942866 -0.016232748 0)
(0.73784287 -0.026935706 0)
(0.65316763 -0.05128655 0)
(0.45609767 -0.11374603 0)
(0.31788988 -0.17206002 0)
)
;

boundaryField
{
    movingWall
    {
        type            fixedValue;
        value           uniform (1 0 0);
    }
    fixedWalls
    {
        type            fixedValue;
        value           uniform (0 0 0);
    }
    frontAndBack
    {
        type            empty;
    }
}


// ************************************************************************* //
