/*--------------------------------*- C++ -*----------------------------------*\
| =========                 |                                                 |
| \\      /  F ield         | OpenFOAM: The Open Source CFD Toolbox           |
|  \\    /   O peration     | Version:  2112                                  |
|   \\  /    A nd           | Website:  www.openfoam.com                      |
|    \\/     M anipulation  |                                                 |
\*---------------------------------------------------------------------------*/
FoamFile
{
    version     2.0;
    format      ascii;
    arch        "LSB;label=32;scalar=64";
    class       volVectorField;
    location    "26";
    object      U_0;
}
// * * * * * * * * * * * * * * * * * * * * * * * * * * * * * * * * * * * * * //

dimensions      [0 1 -1 0 0 0 0];

internalField   nonuniform List<vector> 
400
(
(0.00028442544 -0.00028141363 0)
(0.00011066965 7.9957694e-05 0)
(-0.0013272045 0.00047802932 0)
(-0.0036219079 0.00073593107 0)
(-0.0064236696 0.00086752364 0)
(-0.0094315093 0.00090727331 0)
(-0.012388047 0.00087487107 0)
(-0.015056504 0.00077153479 0)
(-0.017194621 0.00058849225 0)
(-0.018552929 0.00032008512 0)
(-0.018902695 -2.4812953e-05 0)
(-0.018086208 -0.00041826927 0)
(-0.016079939 -0.00079972499 0)
(-0.01304897 -0.0010930854 0)
(-0.0093664035 -0.0012212137 0)
(-0.0055776623 -0.0011294811 0)
(-0.0023003405 -0.00081287093 0)
(-8.2953255e-05 -0.00033798262 0)
(0.00076014992 0.00015229394 0)
(0.00040944115 0.00038933815 0)
(-8.6070753e-05 -0.00012360865 0)
(-0.0018692768 0.0017872447 0)
(-0.0063065489 0.0036260634 0)
(-0.012452733 0.0048625135 0)
(-0.019600732 0.0054985526 0)
(-0.027107076 0.0056206964 0)
(-0.034359056 0.0052860538 0)
(-0.040769074 0.0045043967 0)
(-0.045758389 0.0032662284 0)
(-0.048776129 0.0015896524 0)
(-0.049366883 -0.00043547692 0)
(-0.047254057 -0.0026182042 0)
(-0.042452192 -0.0046645625 0)
(-0.035361638 -0.0062189446 0)
(-0.026778708 -0.0069376151 0)
(-0.017827311 -0.0065922908 0)
(-0.0097755544 -0.0051797934 0)
(-0.0037462999 -0.0029994414 0)
(-0.00038875339 -0.00066553757 0)
(0.00028989452 0.0007835474 0)
(-0.0005880843 0.0014336219 0)
(-0.0042428236 0.0063775289 0)
(-0.011758618 0.01064063 0)
(-0.021468804 0.013483674 0)
(-0.032366368 0.014898378 0)
(-0.043588248 0.015017456 0)
(-0.054287703 0.013936219 0)
(-0.063642889 0.011684277 0)
(-0.070856209 0.0082813779 0)
(-0.075188746 0.00382865 0)
(-0.076039926 -0.001405928 0)
(-0.073058102 -0.0069356906 0)
(-0.066266944 -0.012071807 0)
(-0.056169556 -0.016000326 0)
(-0.043780947 -0.017942817 0)
(-0.030569265 -0.017380013 0)
(-0.018250691 -0.014290015 0)
(-0.0084179841 -0.0093123188 0)
(-0.0021511235 -0.0037618393 0)
(-1.9707156e-06 0.00031696599 0)
(-0.0010530689 0.0043003882 0)
(-0.006514885 0.013565783 0)
(-0.0169992 0.020864176 0)
(-0.030031041 0.025561349 0)
(-0.044300809 0.02776157 0)
(-0.058784595 0.027688061 0)
(-0.072487898 0.025487716 0)
(-0.084447324 0.02121847 0)
(-0.093729363 0.014945139 0)
(-0.09946464 0.006878377 0)
(-0.10093055 -0.0025013067 0)
(-0.097663179 -0.012378491 0)
(-0.089593337 -0.02160549 0)
(-0.077182409 -0.028824887 0)
(-0.06150521 -0.032706169 0)
(-0.044253714 -0.03230001 0)
(-0.027562255 -0.02744596 0)
(-0.013581772 -0.019080735 0)
(-0.0040263552 -0.0092707064 0)
(-0.00026772076 -0.0011081923 0)
(-0.0014558677 0.0083650433 0)
(-0.0085490816 0.023181279 0)
(-0.021746271 0.034051725 0)
(-0.037792539 0.040763154 0)
(-0.055097021 0.043701823 0)
(-0.072519716 0.043259087 0)
(-0.088984587 0.039661516 0)
(-0.10345863 0.03300138 0)
(-0.11493241 0.023384246 0)
(-0.12243709 0.01111675 0)
(-0.12511548 -0.0031289503 0)
(-0.12232002 -0.018219404 0)
(-0.11376163 -0.032541655 0)
(-0.099698337 -0.04413268 0)
(-0.081100556 -0.050966345 0)
(-0.059776365 -0.051441286 0)
(-0.038291204 -0.04501368 0)
(-0.019520463 -0.032755573 0)
(-0.0060923432 -0.017491862 0)
(-0.00051102249 -0.0035220302 0)
(-0.0017889359 0.013475462 0)
(-0.010269727 0.034960891 0)
(-0.025805536 0.049908682 0)
(-0.044466813 0.058794852 0)
(-0.064427789 0.062458421 0)
(-0.084477645 0.061550945 0)
(-0.10351668 0.056416075 0)
(-0.12050365 0.047182226 0)
(-0.13440409 0.033970359 0)
(-0.14417406 0.01713237 0)
(-0.1488036 -0.0025359195 0)
(-0.14739342 -0.023636433 0)
(-0.13931124 -0.044142666 0)
(-0.12443566 -0.061442199 0)
(-0.1034317 -0.072642399 0)
(-0.07805595 -0.075173998 0)
(-0.051260951 -0.067706816 0)
(-0.026809465 -0.051124219 0)
(-0.0086123046 -0.028965674 0)
(-0.00078707325 -0.0070521566 0)
(-0.0020420356 0.019436531 0)
(-0.011605657 0.048528948 0)
(-0.02899581 0.067998378 0)
(-0.049757753 0.079226065 0)
(-0.071891661 0.083657439 0)
(-0.094162115 0.082297766 0)
(-0.11550008 0.075649711 0)
(-0.13491505 0.063876916 0)
(-0.15140331 0.047075989 0)
(-0.16388479 0.025567777 0)
(-0.17119241 0.00016304443 0)
(-0.17215459 -0.027610619 0)
(-0.1657157 -0.055396324 0)
(-0.15119201 -0.079945746 0)
(-0.12870063 -0.097351212 0)
(-0.099670035 -0.10369861 0)
(-0.067241855 -0.096286144 0)
(-0.036119134 -0.075220241 0)
(-0.011929735 -0.044539837 0)
(-0.0011708177 -0.01200149 0)
(-0.0022012877 0.026013371 0)
(-0.012484722 0.063419585 0)
(-0.031139923 0.087764464 0)
(-0.05335458 0.10149025 0)
(-0.077017737 0.10677711 0)
(-0.10091207 0.10507374 0)
(-0.12405009 0.097088166 0)
(-0.14555175 0.083021359 0)
(-0.1645096 0.062902182 0)
(-0.17987592 0.03693082 0)
(-0.1903992 0.0057955438 0)
(-0.19465565 -0.029033386 0)
(-0.19113627 -0.065018063 0)
(-0.17848974 -0.098391058 0)
(-0.15602491 -0.12417746 0)
(-0.12444491 -0.13676281 0)
(-0.086646628 -0.13132909 0)
(-0.048063758 -0.10623285 0)
(-0.016429366 -0.065393243 0)
(-0.0017537926 -0.01887842 0)
(-0.0022557077 0.032933243 0)
(-0.012853711 0.07908846 0)
(-0.032098921 0.10853497 0)
(-0.054981839 0.12486421 0)
(-0.07933486 0.13109282 0)
(-0.1039942 0.12919922 0)
(-0.12810031 0.12015128 0)
(-0.15094504 0.10420143 0)
(-0.17179726 0.081278319 0)
(-0.18974465 0.051375579 0)
(-0.20357617 0.014915434 0)
(-0.21172901 -0.026876065 0)
(-0.21232511 -0.071532289 0)
(-0.20333811 -0.11502601 0)
(-0.18306276 -0.15144703 0)
(-0.15101787 -0.17328503 0)
(-0.10916557 -0.17282184 0)
(-0.063026359 -0.14524381 0)
(-0.022524966 -0.092978053 0)
(-0.0026589613 -0.028422186 0)
(-0.0022086322 0.039904482 0)
(-0.012717076 0.094944154 0)
(-0.031841286 0.12954007 0)
(-0.054496802 0.14845841 0)
(-0.078500056 0.15563537 0)
(-0.10277096 0.15366633 0)
(-0.12662138 0.14384594 0)
(-0.14957654 0.1265133 0)
(-0.17117086 0.10149247 0)
(-0.19075569 0.068517121 0)
(-0.20732703 0.02762759 0)
(-0.21937765 -0.0203942 0)
(-0.22488772 -0.073461865 0)
(-0.22130651 -0.12768871 0)
(-0.20585472 -0.17662049 0)
(-0.1764762 -0.21099192 0)
(-0.13334652 -0.21961304 0)
(-0.080899137 -0.19275384 0)
(-0.030641883 -0.12885254 0)
(-0.0040700702 -0.041637025 0)
(-0.0020933492 0.046663245 0)
(-0.012189725 0.11041846 0)
(-0.030536209 0.14996567 0)
(-0.052017586 0.17124286 0)
(-0.074464994 0.17919237 0)
(-0.096919902 0.17712097 0)
(-0.11891404 0.16672968 0)
(-0.1402665 0.14850269 0)
(-0.16086207 0.12219243 0)
(-0.18044321 0.087272647 0)
(-0.19840291 0.043352636 0)
(-0.21353681 -0.0093895983 0)
(-0.2240146 -0.069676587 0)
(-0.22708286 -0.13413336 0)
(-0.21908957 -0.19645321 0)
(-0.19626646 -0.24625209 0)
(-0.15621925 -0.26886021 0)
(-0.10070622 -0.24798798 0)
(-0.041146001 -0.17433495 0)
(-0.0062706167 -0.059833909 0)
(-0.0019963307 0.053057424 0)
(-0.011565509 0.12508341 0)
(-0.028660969 0.16904504 0)
(-0.048056637 0.19210899 0)
(-0.067638465 0.20035652 0)
(-0.086643921 0.19791271 0)
(-0.10489594 0.18696715 0)
(-0.12256947 0.16821854 0)
(-0.13996405 0.14140908 0)
(-0.15729764 0.10579907 0)
(-0.17451564 0.060571851 0)
(-0.19108375 0.0052258189 0)
(-0.20560164 -0.059922348 0)
(-0.2155059 -0.13260782 0)
(-0.21690139 -0.2075278 0)
(-0.20457806 -0.27431805 0)
(-0.17317489 -0.31571772 0)
(-0.12017096 -0.30807972 0)
(-0.054147475 -0.22988368 0)
(-0.0096749007 -0.084653124 0)
(-0.0020996052 0.059184238 0)
(-0.011414874 0.13881578 0)
(-0.027115402 0.18617327 0)
(-0.043624888 0.20994698 0)
(-0.05898128 0.21760143 0)
(-0.072777886 0.21419766 0)
(-0.085250032 0.20247356 0)
(-0.097001239 0.18339411 0)
(-0.10878869 0.15675619 0)
(-0.12135039 0.12168632 0)
(-0.13525406 0.077015483 0)
(-0.15070286 0.02161829 0)
(-0.16712215 -0.045110672 0)
(-0.18274012 -0.12251599 0)
(-0.19405363 -0.20712609 0)
(-0.1952351 -0.29011466 0)
(-0.17829429 -0.35358502 0)
(-0.13540547 -0.36743802 0)
(-0.069089016 -0.29415288 0)
(-0.014795025 -0.11798444 0)
(-0.0027677003 0.065619931 0)
(-0.012741008 0.15199849 0)
(-0.027330005 0.20099718 0)
(-0.040244556 0.22368357 0)
(-0.049928613 0.22933077 0)
(-0.056643425 0.22403744 0)
(-0.061232563 0.21108054 0)
(-0.064815967 0.19168174 0)
(-0.06862065 0.16572044 0)
(-0.073874943 0.13227357 0)
(-0.08172814 0.089960315 0)
(-0.09312005 0.037200208 0)
(-0.10846924 -0.027479009 0)
(-0.1272138 -0.10497632 0)
(-0.14705424 -0.19422069 0)
(-0.16280349 -0.28948637 0)
(-0.16509077 -0.37509931 0)
(-0.14090149 -0.41772688 0)
(-0.084061568 -0.36281394 0)
(-0.022011632 -0.16157404 0)
(-0.0047195882 0.073834745 0)
(-0.017222433 0.16572635 0)
(-0.03128434 0.21337827 0)
(-0.039683175 0.23217414 0)
(-0.041883413 0.23380241 0)
(-0.039350993 0.22539459 0)
(-0.033812439 0.21061249 0)
(-0.027000252 0.1908108 0)
(-0.020591897 0.16589801 0)
(-0.016215313 0.13493929 0)
(-0.015476261 0.096470949 0)
(-0.019925476 0.048690075 0)
(-0.030918561 -0.010412654 0)
(-0.049234228 -0.082920433 0)
(-0.074399072 -0.17014309 0)
(-0.10327664 -0.27050251 0)
(-0.12725458 -0.37369529 0)
(-0.12973498 -0.44868773 0)
(-0.094914816 -0.4275069 0)
(-0.030930664 -0.21612801 0)
(-0.0093000045 0.086952147 0)
(-0.027432099 0.18185339 0)
(-0.040981608 0.22303356 0)
(-0.042679363 0.23378962 0)
(-0.034405234 0.22880234 0)
(-0.01962237 0.21592305 0)
(-0.0012381127 0.1987801 0)
(0.018345887 0.17856481 0)
(0.037071879 0.15508362 0)
(0.053056088 0.12735941 0)
(0.064421965 0.093936298 0)
(0.0692313 0.053014576 0)
(0.065415379 0.0024625927 0)
(0.051047635 -0.060339361 0)
(0.024643106 -0.13837664 0)
(-0.013701887 -0.23417143 0)
(-0.058753794 -0.34517032 0)
(-0.093510939 -0.44953996 0)
(-0.094469926 -0.47558822 0)
(-0.039216119 -0.28048281 0)
(-0.018580318 0.11087148 0)
(-0.046039644 0.20177654 0)
(-0.055229986 0.22793167 0)
(-0.043984688 0.22501771 0)
(-0.019372215 0.21061302 0)
(0.012333749 0.19228012 0)
(0.046993523 0.17278504 0)
(0.081754644 0.15265404 0)
(0.11443838 0.13135288 0)
(0.14315369 0.10779555 0)
(0.16601722 0.080591602 0)
(0.18098148 0.048112125 0)
(0.1855763 0.008449221 0)
(0.17716586 -0.040817584 0)
(0.15275955 -0.10317629 0)
(0.10948884 -0.18390629 0)
(0.047240537 -0.28855472 0)
(-0.021439286 -0.41051044 0)
(-0.072252955 -0.49101704 0)
(-0.041147489 -0.35054295 0)
(-0.033352246 0.15561544 0)
(-0.068601636 0.22040443 0)
(-0.055187292 0.21729225 0)
(-0.016078562 0.19532444 0)
(0.034511301 0.17092354 0)
(0.088507995 0.14849471 0)
(0.14176882 0.12861267 0)
(0.19196931 0.11057764 0)
(0.23754098 0.093297631 0)
(0.27712045 0.075575093 0)
(0.30921842 0.056181464 0)
(0.33204353 0.033823283 0)
(0.34317584 0.0070272203 0)
(0.33982897 -0.02591053 0)
(0.31813256 -0.067741819 0)
(0.27327728 -0.124108 0)
(0.20044726 -0.20584715 0)
(0.10213979 -0.32506915 0)
(-0.012387276 -0.4545717 0)
(-0.023756657 -0.40864071 0)
(-0.033081118 0.23907317 0)
(-0.042647155 0.21792011 0)
(0.042207222 0.16426628 0)
(0.12760461 0.12783579 0)
(0.20769801 0.10143551 0)
(0.28028166 0.08165818 0)
(0.34487318 0.066648151 0)
(0.40158311 0.054703063 0)
(0.45055073 0.044399489 0)
(0.4916205 0.034639939 0)
(0.52416194 0.024550597 0)
(0.54698613 0.013381706 0)
(0.55822241 0.00039974138 0)
(0.55570944 -0.015137335 0)
(0.53552623 -0.034969187 0)
(0.49244658 -0.062488197 0)
(0.41797271 -0.10694763 0)
(0.30410594 -0.19317544 0)
(0.12313782 -0.33691905 0)
(0.052374204 -0.39437913 0)
(0.24299926 0.1525748 0)
(0.30529618 0.11854287 0)
(0.45481216 0.076108142 0)
(0.56000885 0.050840196 0)
(0.63223323 0.035126088 0)
(0.68654918 0.02481231 0)
(0.72943831 0.017960101 0)
(0.76379638 0.013255928 0)
(0.79127935 0.0097622041 0)
(0.81275152 0.0068543631 0)
(0.82841142 0.0041185208 0)
(0.83794401 0.0012768582 0)
(0.84057076 -0.0018441984 0)
(0.83497557 -0.005326258 0)
(0.81886697 -0.0098289632 0)
(0.78942866 -0.016232748 0)
(0.73784287 -0.026935706 0)
(0.65316763 -0.05128655 0)
(0.45609767 -0.11374603 0)
(0.31788988 -0.17206002 0)
)
;

boundaryField
{
    movingWall
    {
        type            fixedValue;
        value           uniform (1 0 0);
    }
    fixedWalls
    {
        type            fixedValue;
        value           uniform (0 0 0);
    }
    frontAndBack
    {
        type            empty;
    }
}


// ************************************************************************* //
