/*--------------------------------*- C++ -*----------------------------------*\
| =========                 |                                                 |
| \\      /  F ield         | OpenFOAM: The Open Source CFD Toolbox           |
|  \\    /   O peration     | Version:  2112                                  |
|   \\  /    A nd           | Website:  www.openfoam.com                      |
|    \\/     M anipulation  |                                                 |
\*---------------------------------------------------------------------------*/
FoamFile
{
    version     2.0;
    format      ascii;
    arch        "LSB;label=32;scalar=64";
    class       volScalarField;
    location    "30";
    object      p;
}
// * * * * * * * * * * * * * * * * * * * * * * * * * * * * * * * * * * * * * //

dimensions      [0 2 -2 0 0 0 0];

internalField   nonuniform List<scalar> 
400
(
1.1003454e-07
-0.00067275201
-0.0013852282
-0.0019425859
-0.0022198789
-0.0021563753
-0.0017276703
-0.00092608007
0.00023553855
0.0017075209
0.0033874002
0.0051123101
0.0066735932
0.0078492213
0.0084585159
0.0084238195
0.0078135362
0.0068446528
0.0058614272
0.0052990677
0.00065796232
-4.0403365e-05
-0.0005695368
-0.00094050208
-0.0011107397
-0.0010397977
-0.0007056667
-9.5420803e-05
0.00078922235
0.0019163061
0.0032097021
0.0045548199
0.0057820802
0.0067163769
0.0072145479
0.0072146564
0.0067700838
0.0060528955
0.0053106513
0.0047386088
0.0014238207
0.00044077143
-0.0001164783
-0.00045312066
-0.00061468502
-0.00058468746
-0.00034645642
0.00011986771
0.00082858517
0.001770031
0.0028944115
0.0040982795
0.0052283509
0.0061110825
0.0065939782
0.0065977758
0.0061558519
0.0054216275
0.004593865
0.003748355
0.0020143157
0.00068180604
1.6889558e-05
-0.00035873253
-0.00057142754
-0.00062643722
-0.00050996049
-0.00019050868
0.00036862566
0.0011845116
0.0022300374
0.0034175447
0.0045914763
0.0055570482
0.006123663
0.006166673
0.0056837351
0.0048171674
0.0037474123
0.0024737209
0.0021673861
0.00049623584
-0.00029614072
-0.000748587
-0.0010581346
-0.0012451515
-0.0012926303
-0.0011511853
-0.00075493349
-5.2979628e-05
0.00095714995
0.0022104079
0.0035448303
0.0047327815
0.005521962
0.0057100029
0.0052294041
0.0042017217
0.0028063034
0.00098408286
0.0016540768
-0.00031436271
-0.00123867
-0.0017991833
-0.0022525452
-0.0026277935
-0.0028985062
-0.0029909695
-0.002802426
-0.0022375642
-0.0012509752
0.00013102038
0.0017447751
0.0033272352
0.0045417653
0.0050658969
0.0047176105
0.003566313
0.0017897101
-0.0007258031
0.00028713963
-0.0019194551
-0.0029728814
-0.0036712632
-0.0043201767
-0.0049530823
-0.0055300046
-0.0059478397
-0.0060588925
-0.0057072734
-0.0047756045
-0.0032585775
-0.0012663876
0.00090729789
0.0028232437
0.00398695
0.0040252061
0.0028878203
0.00071549396
-0.0026803839
-0.0020763139
-0.0044510765
-0.0056266879
-0.0064922031
-0.0073927959
-0.0083656375
-0.0093567995
-0.010231664
-0.010790855
-0.010804734
-0.010063257
-0.0084616557
-0.0060406558
-0.0030831025
-0.00012619262
0.0021127346
0.0029639367
0.0021356923
-0.00036592071
-0.0048724957
-0.0055240509
-0.0079919974
-0.0092778062
-0.010333673
-0.011537875
-0.012935286
-0.014462579
-0.015956196
-0.017162345
-0.017765919
-0.017437974
-0.01591937
-0.013122851
-0.0092516456
-0.0048988922
-0.0010299019
0.0012695211
0.0012778746
-0.0013338456
-0.0072015638
-0.010076796
-0.012564978
-0.01393655
-0.015183893
-0.016718266
-0.018602499
-0.020774068
-0.023048637
-0.025121565
-0.026586232
-0.026969233
-0.02581283
-0.022845567
-0.018074336
-0.012050976
-0.0059518379
-0.0013706258
0.00030070606
-0.0019470905
-0.0093821116
-0.015684871
-0.018132297
-0.019537441
-0.020926698
-0.022757636
-0.02512977
-0.027996884
-0.031166276
-0.034291349
-0.036876732
-0.038294057
-0.037844164
-0.035065743
-0.029601358
-0.021822385
-0.012985463
-0.005184862
-0.00071563765
-0.0017640865
-0.010792142
-0.022243483
-0.024612924
-0.025945476
-0.027334839
-0.029324057
-0.032079138
-0.035588839
-0.039664533
-0.043927157
-0.047801192
-0.050530079
-0.05123637
-0.048956768
-0.043143437
-0.033768905
-0.021926231
-0.01003677
-0.0014153312
-9.7539507e-06
-0.010225506
-0.029641099
-0.031923785
-0.032978633
-0.034079746
-0.035939392
-0.038831423
-0.042795527
-0.047651484
-0.052990426
-0.05816348
-0.062284141
-0.064265426
-0.062875051
-0.057112078
-0.046476632
-0.031648976
-0.01503775
-0.0008642771
0.0046468766
-0.005521424
-0.037865891
-0.040048399
-0.040440027
-0.040752403
-0.04201492
-0.044652951
-0.048758098
-0.054143967
-0.060355933
-0.06666524
-0.072060579
-0.075268174
-0.074811255
-0.069269159
-0.057628198
-0.039961398
-0.01824786
0.0027891511
0.014445271
0.0069076611
-0.047230489
-0.049134238
-0.048140457
-0.0468822
-0.046905385
-0.048798562
-0.052668172
-0.058275912
-0.065076004
-0.072231893
-0.078595659
-0.082712211
-0.082880101
-0.077309284
-0.064523832
-0.043934846
-0.016747878
0.01250306
0.032938898
0.032409067
-0.058896715
-0.059639773
-0.055883763
-0.051940955
-0.049972232
-0.050629765
-0.053928524
-0.059495227
-0.066611755
-0.074285193
-0.081191063
-0.085679298
-0.085831692
-0.07952209
-0.064875995
-0.040689161
-0.0072408116
0.032139483
0.064981564
0.077749294
-0.076226448
-0.072613671
-0.063516024
-0.055435249
-0.050724935
-0.049781512
-0.05231224
-0.057664258
-0.064891715
-0.072774868
-0.079779265
-0.084036646
-0.083391553
-0.075348861
-0.057602572
-0.028375037
0.012933435
0.065396587
0.11555162
0.15150634
-0.10809213
-0.089556345
-0.071233747
-0.057232867
-0.049072009
-0.046330114
-0.048077167
-0.053202507
-0.060434521
-0.068295763
-0.075027293
-0.078526814
-0.076388908
-0.065809577
-0.04386538
-0.0078183463
0.044393775
0.11299826
0.18838054
0.27186088
-0.17684535
-0.10828967
-0.076202473
-0.054651171
-0.042992281
-0.038997926
-0.04057041
-0.045927944
-0.053441438
-0.061438257
-0.068027484
-0.070962459
-0.067551035
-0.054739737
-0.029148715
0.013563702
0.078147062
0.17006447
0.28949557
0.47421833
-0.3720833
-0.12470833
-0.054972974
-0.031962434
-0.022063467
-0.020300424
-0.024359357
-0.0319579
-0.04126146
-0.050640786
-0.0583168
-0.062187364
-0.059782455
-0.048056713
-0.02265843
0.021474308
0.092818825
0.21015288
0.40288853
0.7764094
)
;

boundaryField
{
    movingWall
    {
        type            zeroGradient;
    }
    fixedWalls
    {
        type            zeroGradient;
    }
    frontAndBack
    {
        type            empty;
    }
}


// ************************************************************************* //
