/*--------------------------------*- C++ -*----------------------------------*\
| =========                 |                                                 |
| \\      /  F ield         | OpenFOAM: The Open Source CFD Toolbox           |
|  \\    /   O peration     | Version:  2112                                  |
|   \\  /    A nd           | Website:  www.openfoam.com                      |
|    \\/     M anipulation  |                                                 |
\*---------------------------------------------------------------------------*/
FoamFile
{
    version     2.0;
    format      ascii;
    arch        "LSB;label=32;scalar=64";
    class       surfaceScalarField;
    location    "30";
    object      phi;
}
// * * * * * * * * * * * * * * * * * * * * * * * * * * * * * * * * * * * * * //

dimensions      [0 3 -1 0 0 0 0];

oriented        oriented;

internalField   nonuniform List<scalar> 
760
(
1.2702533e-05
-1.270381e-05
-2.8723345e-05
4.1425879e-05
-0.0001222921
9.3568761e-05
-0.00025039693
0.00012810483
-0.00039607659
0.00014567966
-0.00054539369
0.00014931711
-0.00068627516
0.00014088147
-0.00080689656
0.0001206214
-0.00089495744
8.8060889e-05
-0.00093839569
4.3438251e-05
-0.00092727924
-1.1116432e-05
-0.00085686582
-7.0413408e-05
-0.00073043198
-0.00012643382
-0.00056134328
-0.00016908869
-0.00037276098
-0.0001885823
-0.00019447414
-0.00017828687
-5.6521859e-05
-0.00013795232
1.9614522e-05
-7.6136415e-05
3.0411344e-05
-1.0796831e-05
3.041135e-05
-4.3183063e-05
3.0479255e-05
-0.0002045668
0.00020280962
-0.00046832595
0.00035732791
-0.00080071015
0.00046048903
-0.001167354
0.00051232347
-0.001536454
0.00051841714
-0.001878233
0.00048266055
-0.0021636882
0.00040607659
-0.0023645506
0.00028892329
-0.0024553575
0.00013424512
-0.0024181501
-4.832383e-05
-0.0022453648
-0.00024319868
-0.0019475616
-0.00042423701
-0.0015544726
-0.00056217768
-0.0011143232
-0.00062873173
-0.00068747555
-0.00060513456
-0.00033452577
-0.00049090211
-0.00010089667
-0.0003097655
-1.5518813e-06
-0.00011014161
2.8859478e-05
-0.00011002757
0.00014050683
-0.00040303349
0.00049581555
-0.0008313924
0.00078568683
-0.0013456243
0.00097472088
-0.0018986083
0.0010653076
-0.0024465929
0.0010664017
-0.0029480464
0.00098411406
-0.0033626339
0.00082066404
-0.0036519062
0.00057819558
-0.0037823327
0.00026467158
-0.0037298371
-0.0001008194
-0.0034858233
-0.00048721255
-0.0030632823
-0.000846778
-0.0024999985
-0.0011254614
-0.0018582372
-0.0012704929
-0.0012181455
-0.0012452262
-0.00066373714
-0.0010453104
-0.00026308973
-0.00071041289
-4.7956316e-05
-0.00032527501
-1.9096844e-05
-0.00017344053
0.00031394736
-0.0005932958
0.00091567082
-0.0011777023
0.0013700934
-0.0018583813
0.0016553998
-0.0025769241
0.0017838504
-0.0032813267
0.0017708043
-0.0039228144
0.0016256018
-0.0044541579
0.0013520075
-0.004830281
0.00095431861
-0.0050112535
0.00044564404
-0.00496727
-0.00014480287
-0.0046844447
-0.00077003783
-0.0041723577
-0.001358865
-0.0034691323
-0.0018286867
-0.0026440128
-0.0020956124
-0.0017932027
-0.0020960363
-0.0010258514
-0.0018126617
-0.00044021521
-0.001296049
-9.67239e-05
-0.00066876632
-0.00011582075
-0.00022979686
0.00054374422
-0.00076507917
0.0014509531
-0.0014914941
0.0020965083
-0.0023225609
0.0024864666
-0.0031901584
0.0026514479
-0.0040368441
0.0026174901
-0.0048100611
0.0023988188
-0.0054589906
0.002000937
-0.0059342078
0.0014295357
-0.006189838
0.00070127427
-0.0061884173
-0.00014622355
-0.0059055863
-0.0010528689
-0.0053404214
-0.00192403
-0.0045231194
-0.0026459888
-0.0035229788
-0.0030957529
-0.0024498062
-0.0031692089
-0.0014425401
-0.0028199278
-0.00064123153
-0.0020973577
-0.00014883696
-0.0011611609
-0.00026465772
-0.00027729937
0.00082104359
-0.000911552
0.0020852058
-0.0017607397
0.002945696
-0.0027228227
0.0034485496
-0.0037222296
0.0036508548
-0.0046987166
0.0035939771
-0.0055989157
0.003299018
-0.0063712171
0.0027732384
-0.0069637548
0.0020220736
-0.0073248621
0.0010623816
-0.0074074834
-6.360232e-05
-0.0071717135
-0.0012886388
-0.0065989013
-0.0024968422
-0.005701688
-0.0035432022
-0.0045400238
-0.0042574171
-0.0032318449
-0.0044773878
-0.0019490219
-0.0041027508
-0.00088728804
-0.0031590915
-0.00021159428
-0.0018368547
-0.000476252
-0.00031411689
0.0011351605
-0.0010263419
0.0027974308
-0.0019735132
0.0038928673
-0.0030417621
0.0045167985
-0.004150727
0.0047598196
-0.005239956
0.0046832062
-0.0062580869
0.0043171489
-0.0071555401
0.0036706916
-0.007880382
0.0027469155
-0.0083768565
0.0015588561
-0.0085854027
0.00014494383
-0.0084513315
-0.0014227101
-0.0079295091
-0.0030186646
-0.0070049711
-0.0044677402
-0.0057150487
-0.0055473394
-0.0041735841
-0.0060188524
-0.002581846
-0.0056944889
-0.0012041052
-0.0045368323
-0.00029450413
-0.0027464557
-0.00077075613
-0.00033824885
0.0014734093
-0.0011031702
0.0035623521
-0.0021176359
0.004907333
-0.0032598921
0.0056590547
-0.0044474099
0.0059473374
-0.0056219649
0.0058577612
-0.0067369517
0.0054321357
-0.0077479694
0.0046817093
-0.0086063765
0.0036053226
-0.0092552523
0.0022077319
-0.0096270156
0.00051670717
-0.0096492067
-0.0014005189
-0.0092489813
-0.0034188899
-0.0083739441
-0.0053427774
-0.0070220735
-0.00689921
-0.0052818146
-0.0077591113
-0.0033676674
-0.0076086361
-0.0016173637
-0.006287136
-0.00040826902
-0.0039555504
-0.0011790251
-0.00034815629
0.0018215656
-0.0011372153
0.0043514112
-0.0021827891
0.0059529068
-0.0033586207
0.0068348863
-0.0045822434
0.0071709601
-0.005799823
0.0070753408
-0.0069721954
0.0066045081
-0.0080636685
0.0057731824
-0.0090334419
0.0045750961
-0.0098289938
0.0030032838
-0.010381274
0.0010689879
-0.010604526
-0.0011772676
-0.010400778
-0.0036226378
-0.0096748959
-0.0060686593
-0.0083686756
-0.0082054303
-0.0065156863
-0.0096121006
-0.0043098854
-0.0098144369
-0.0021483238
-0.0084486976
-0.00056492546
-0.0055389487
-0.0017439506
-0.00034393486
0.0021655005
-0.0011278598
0.0051353362
-0.0021647102
0.0069897571
-0.0033259027
0.0079960787
-0.0045308033
0.0083758607
-0.0057319451
0.0082764826
-0.0069002221
0.0077727851
-0.008012382
0.0068853422
-0.0090408264
0.0056035405
-0.009944967
0.0039074244
-0.010663395
0.0017874156
-0.011106745
-0.00073391681
-0.01116342
-0.0035659632
-0.010697128
-0.0065349516
-0.0095825995
-0.0093199588
-0.0077667777
-0.011427923
-0.0053715017
-0.012209713
-0.0028071791
-0.01101302
-0.00077836911
-0.0075677587
-0.0025223197
-0.00032890793
0.0024944084
-0.0010824215
0.0058888497
-0.0020707772
0.0079781129
-0.0031636131
0.0090889146
-0.0042839022
0.0094961498
-0.0053928537
0.0093854341
-0.0064741407
0.0088540721
-0.0075205483
0.0079317498
-0.0085229181
0.0066059103
-0.0094603447
0.004844851
-0.010291332
0.0026184028
-0.010933227
-9.2021864e-05
-0.011283212
-0.0032159781
-0.011173633
-0.0066445302
-0.010415714
-0.010077878
-0.0088467365
-0.0129969
-0.0064557543
-0.014600695
-0.0035815273
-0.013887247
-0.001064223
-0.010085063
-0.0035865427
-0.00031178411
0.0028061925
-0.0010206789
0.0065977445
-0.0019261
0.008883534
-0.0028949491
0.010057764
-0.003856883
0.010458084
-0.0047855637
0.010314115
-0.0056807666
0.009749275
-0.0065544559
0.0088054391
-0.0074198895
0.0074713439
-0.008281825
0.0057067865
-0.0091251554
0.0034617332
-0.0099086395
0.00069146223
-0.010527256
-0.0025973613
-0.010827014
-0.006344773
-0.010573628
-0.010331264
-0.0094932086
-0.014077319
-0.007391139
-0.016702765
-0.0044189148
-0.016859471
-0.0014372117
-0.013066766
-0.0050237544
-0.00031004266
0.0031162352
-0.00098036435
0.0072680662
-0.0017790482
0.0096822179
-0.0025693654
0.010848081
-0.0032945951
0.011183313
-0.003947896
0.010967416
-0.0045499694
0.010351349
-0.0051347847
0.0093902543
-0.0057399192
0.0080764784
-0.0063985234
0.0063653908
-0.0071301259
0.0041933358
-0.0079302579
0.0014915942
-0.0087388046
-0.0017888146
-0.0094303578
-0.0056532198
-0.0097685803
-0.0099930412
-0.0094003431
-0.014445557
-0.0079305792
-0.018172528
-0.0052061613
-0.019583889
-0.0019026121
-0.016370315
-0.0069263665
-0.00035603993
0.0034722751
-0.0010239963
0.0079360226
-0.001704229
0.010362451
-0.0022607968
0.011404649
-0.0026657196
0.011588236
-0.0029440073
0.011245703
-0.0031442462
0.010551588
-0.0033248638
0.009570872
-0.0035471892
0.0082988037
-0.003871042
0.0066892437
-0.0043491672
0.004671461
-0.0050183769
0.0021608038
-0.00587661
-0.00093058144
-0.0068578328
-0.004671997
-0.0077762864
-0.0090745876
-0.008265834
-0.013956009
-0.0077687393
-0.018669623
-0.0057510991
-0.02160153
-0.0024366711
-0.019684743
-0.0093630376
-0.00050826072
0.0039805358
-0.0012456303
0.0086733923
-0.001795882
0.010912702
-0.0020479967
0.011656763
-0.002032503
0.011572743
-0.0018254225
0.011038623
-0.0015121888
0.010238354
-0.0011778564
0.0092365396
-0.00090470999
0.0080256573
-0.00077371753
0.0065582512
-0.000863488
0.0047612315
-0.001247356
0.0025446718
-0.0019828305
-0.0001951069
-0.0030818669
-0.0035729606
-0.0044600305
-0.0076964241
-0.0058274859
-0.012588554
-0.0065661629
-0.017930946
-0.0057684464
-0.022399246
-0.0029512247
-0.022501965
-0.012314262
-0.00086855293
0.0048490888
-0.0017629819
0.0095678213
-0.0021213523
0.011271073
-0.0019368403
0.011472251
-0.0013509147
0.010986817
-0.00051618367
0.010203892
0.00043705133
0.0092851187
0.0013996245
0.0082739665
0.002272388
0.0071528937
0.0029609262
0.005869713
0.0033691606
0.0043529971
0.0033968081
0.0025170243
0.0029385527
0.00026314844
0.0019096165
-0.0025440243
0.00026968911
-0.0060564966
-0.0018541603
-0.010464704
-0.0039515938
-0.015833513
-0.0048608331
-0.021490007
-0.003254703
-0.024108095
-0.015568965
-0.0015910836
0.0064401724
-0.0026108514
0.010587589
-0.0025131331
0.011173354
-0.0015899007
0.010549019
-0.00017216241
0.0095690786
0.001492811
0.0085389187
0.0032329088
0.0075450209
0.0049232488
0.0065836265
0.0064630077
0.0056131349
0.0077575116
0.0045752091
0.0087075163
0.0034029925
0.0092015031
0.0020230374
0.0091033467
0.00036130485
0.0082750945
-0.0017157721
0.0065654633
-0.0043468654
0.003904237
-0.0078034779
0.00055895558
-0.012488231
-0.0024680535
-0.018462998
-0.0030273164
-0.023548832
-0.018596282
-0.0027183593
0.0091585318
-0.0031498648
0.011019094
-0.0018029963
0.0098264858
0.00046670551
0.0082793171
0.0030894294
0.0069463548
0.0057738184
0.0058545297
0.0083629064
0.0049559328
0.010760404
0.0041861284
0.0128935
0.0034800396
0.014690667
0.0027780414
0.016068351
0.0020253085
0.016923289
0.0011680997
0.017119716
0.00016487766
0.016490832
-0.0010868874
0.014816841
-0.0026728752
0.011846658
-0.0048332946
0.0074354931
-0.0080770662
0.0022629299
-0.013290435
-0.0012724662
-0.020013436
-0.019868748
-0.0024132793
0.011571811
2.8056677e-05
0.0085777583
0.0042551385
0.005599404
0.0084161233
0.0041183323
0.012231486
0.0031309918
0.015656266
0.0024297501
0.01868655
0.0019256491
0.021329193
0.0015434849
0.023583493
0.0012257394
0.025429228
0.0009323068
0.026820171
0.00063436566
0.027677182
0.00031108905
0.027900205
-5.8145823e-05
0.027347225
-0.00053390755
0.025771632
-0.0010972822
0.022843047
-0.0019047096
0.01805477
-0.0032887893
0.011113587
-0.0063492511
0.0033886755
-0.012288525
-0.016480072
0.011571811
0.02014957
0.025748974
0.029867306
0.032998298
0.035428048
0.037353697
0.038897182
0.040122921
0.041055228
0.041689594
0.042000683
0.041942537
0.041408629
0.040311347
0.038406637
0.035117848
0.028768597
0.016480072
)
;

boundaryField
{
    movingWall
    {
        type            calculated;
        value           uniform 0;
    }
    fixedWalls
    {
        type            calculated;
        value           uniform 0;
    }
    frontAndBack
    {
        type            empty;
        value           nonuniform List<scalar> 0();
    }
}


// ************************************************************************* //
