/*--------------------------------*- C++ -*----------------------------------*\
| =========                 |                                                 |
| \\      /  F ield         | OpenFOAM: The Open Source CFD Toolbox           |
|  \\    /   O peration     | Version:  2112                                  |
|   \\  /    A nd           | Website:  www.openfoam.com                      |
|    \\/     M anipulation  |                                                 |
\*---------------------------------------------------------------------------*/
FoamFile
{
    version     2.0;
    format      ascii;
    arch        "LSB;label=32;scalar=64";
    class       surfaceScalarField;
    location    "30";
    object      phi_0;
}
// * * * * * * * * * * * * * * * * * * * * * * * * * * * * * * * * * * * * * //

dimensions      [0 3 -1 0 0 0 0];

oriented        oriented;

internalField   nonuniform List<scalar> 
760
(
1.2702531e-05
-1.2703812e-05
-2.8723345e-05
4.1425878e-05
-0.00012229211
9.3568761e-05
-0.00025039694
0.00012810483
-0.00039607659
0.00014567966
-0.00054539369
0.00014931711
-0.00068627516
0.00014088147
-0.00080689657
0.00012062141
-0.00089495745
8.8060902e-05
-0.00093839569
4.3438266e-05
-0.00092727924
-1.1116421e-05
-0.00085686581
-7.0413399e-05
-0.00073043196
-0.00012643381
-0.00056134324
-0.00016908869
-0.00037276094
-0.00018858233
-0.00019447413
-0.00017828692
-5.6521891e-05
-0.00013795237
1.9614478e-05
-7.6136451e-05
3.0411324e-05
-1.0796842e-05
3.0411353e-05
-4.3183064e-05
3.0479254e-05
-0.0002045668
0.00020280962
-0.00046832595
0.00035732791
-0.00080071015
0.00046048903
-0.001167354
0.00051232347
-0.001536454
0.00051841715
-0.001878233
0.00048266055
-0.0021636882
0.0004060766
-0.0023645506
0.00028892331
-0.0024553575
0.00013424515
-0.0024181501
-4.8323802e-05
-0.0022453648
-0.00024319868
-0.0019475616
-0.00042423704
-0.0015544726
-0.00056217774
-0.0011143232
-0.0006287318
-0.00068747554
-0.00060513463
-0.00033452578
-0.00049090216
-0.00010089669
-0.00030976552
-1.5518928e-06
-0.00011014161
2.8859492e-05
-0.00011002757
0.00014050683
-0.00040303349
0.00049581555
-0.0008313924
0.00078568682
-0.0013456242
0.00097472088
-0.0018986083
0.0010653076
-0.0024465929
0.0010664017
-0.0029480464
0.00098411406
-0.0033626339
0.00082066404
-0.0036519062
0.00057819557
-0.0037823327
0.00026467158
-0.0037298371
-0.00010081938
-0.0034858233
-0.00048721254
-0.0030632823
-0.000846778
-0.0024999985
-0.0011254614
-0.0018582372
-0.0012704929
-0.0012181455
-0.0012452262
-0.00066373713
-0.0010453104
-0.00026308972
-0.00071041288
-4.795631e-05
-0.000325275
-1.9096831e-05
-0.00017344053
0.00031394736
-0.0005932958
0.00091567082
-0.0011777023
0.0013700934
-0.0018583812
0.0016553998
-0.002576924
0.0017838504
-0.0032813266
0.0017708043
-0.0039228144
0.0016256018
-0.0044541579
0.0013520075
-0.004830281
0.00095431858
-0.0050112535
0.00044564402
-0.00496727
-0.00014480286
-0.0046844448
-0.00077003778
-0.0041723577
-0.001358865
-0.0034691323
-0.0018286867
-0.0026440127
-0.0020956123
-0.0017932027
-0.0020960362
-0.0010258513
-0.0018126617
-0.00044021519
-0.001296049
-9.6723891e-05
-0.00066876632
-0.00011582075
-0.00022979686
0.00054374422
-0.00076507917
0.0014509531
-0.0014914941
0.0020965083
-0.0023225609
0.0024864666
-0.0031901584
0.0026514479
-0.0040368441
0.0026174901
-0.0048100611
0.0023988188
-0.0054589906
0.002000937
-0.0059342077
0.0014295357
-0.0061898379
0.00070127424
-0.0061884173
-0.00014622356
-0.0059055863
-0.0010528688
-0.0053404214
-0.0019240299
-0.0045231194
-0.0026459887
-0.0035229788
-0.0030957529
-0.0024498062
-0.0031692088
-0.0014425401
-0.0028199278
-0.00064123152
-0.0020973577
-0.00014883695
-0.0011611609
-0.00026465772
-0.00027729936
0.00082104359
-0.000911552
0.0020852058
-0.0017607397
0.002945696
-0.0027228227
0.0034485496
-0.0037222296
0.0036508548
-0.0046987166
0.0035939771
-0.0055989157
0.003299018
-0.0063712171
0.0027732384
-0.0069637548
0.0020220736
-0.0073248621
0.0010623815
-0.0074074833
-6.3602376e-05
-0.0071717135
-0.0012886389
-0.0065989013
-0.0024968422
-0.005701688
-0.0035432022
-0.0045400238
-0.0042574171
-0.0032318449
-0.0044773878
-0.0019490219
-0.0041027508
-0.00088728803
-0.0031590915
-0.00021159427
-0.0018368547
-0.00047625201
-0.00031411689
0.0011351605
-0.0010263419
0.0027974308
-0.0019735132
0.0038928673
-0.0030417621
0.0045167985
-0.004150727
0.0047598196
-0.005239956
0.0046832062
-0.0062580869
0.0043171489
-0.0071555401
0.0036706917
-0.0078803821
0.0027469155
-0.0083768565
0.0015588561
-0.0085854026
0.00014494377
-0.0084513314
-0.0014227101
-0.0079295091
-0.0030186647
-0.0070049711
-0.0044677402
-0.0057150487
-0.0055473394
-0.0041735841
-0.0060188524
-0.002581846
-0.0056944889
-0.0012041052
-0.0045368323
-0.00029450413
-0.0027464557
-0.00077075614
-0.00033824885
0.0014734093
-0.0011031702
0.0035623521
-0.0021176358
0.004907333
-0.003259892
0.0056590547
-0.0044474099
0.0059473374
-0.0056219649
0.0058577612
-0.0067369517
0.0054321357
-0.0077479694
0.0046817093
-0.0086063765
0.0036053227
-0.0092552523
0.002207732
-0.0096270156
0.00051670719
-0.0096492066
-0.0014005189
-0.0092489813
-0.00341889
-0.0083739441
-0.0053427774
-0.0070220735
-0.00689921
-0.0052818146
-0.0077591113
-0.0033676674
-0.007608636
-0.0016173637
-0.006287136
-0.00040826901
-0.0039555504
-0.0011790252
-0.00034815629
0.0018215656
-0.0011372154
0.0043514112
-0.0021827891
0.0059529067
-0.0033586206
0.0068348862
-0.0045822433
0.0071709601
-0.005799823
0.0070753407
-0.0069721954
0.0066045081
-0.0080636685
0.0057731824
-0.009033442
0.0045750961
-0.0098289938
0.0030032839
-0.010381274
0.0010689879
-0.010604526
-0.0011772675
-0.010400778
-0.0036226378
-0.0096748959
-0.0060686593
-0.0083686756
-0.0082054303
-0.0065156863
-0.0096121006
-0.0043098854
-0.0098144369
-0.0021483238
-0.0084486976
-0.00056492546
-0.0055389487
-0.0017439506
-0.00034393486
0.0021655005
-0.0011278599
0.0051353362
-0.0021647102
0.0069897571
-0.0033259026
0.0079960787
-0.0045308032
0.0083758607
-0.0057319451
0.0082764825
-0.0069002221
0.0077727851
-0.008012382
0.0068853423
-0.0090408264
0.0056035405
-0.009944967
0.0039074244
-0.010663395
0.0017874156
-0.011106745
-0.00073391677
-0.01116342
-0.0035659631
-0.010697128
-0.0065349516
-0.0095825995
-0.0093199588
-0.0077667777
-0.011427923
-0.0053715017
-0.012209713
-0.0028071791
-0.01101302
-0.00077836911
-0.0075677587
-0.0025223197
-0.00032890792
0.0024944084
-0.0010824215
0.0058888497
-0.0020707773
0.0079781129
-0.0031636132
0.0090889147
-0.0042839022
0.0094961498
-0.0053928536
0.009385434
-0.0064741407
0.008854072
-0.0075205484
0.0079317498
-0.0085229182
0.0066059103
-0.0094603447
0.004844851
-0.010291332
0.0026184028
-0.010933227
-9.2021882e-05
-0.011283212
-0.0032159781
-0.011173633
-0.0066445302
-0.010415714
-0.010077878
-0.0088467365
-0.0129969
-0.0064557543
-0.014600695
-0.0035815273
-0.013887247
-0.001064223
-0.010085063
-0.0035865427
-0.00031178414
0.0028061926
-0.0010206789
0.0065977445
-0.0019261
0.008883534
-0.0028949492
0.010057764
-0.003856883
0.010458084
-0.0047855636
0.010314115
-0.0056807665
0.0097492749
-0.0065544559
0.008805439
-0.0074198896
0.0074713438
-0.0082818251
0.0057067865
-0.0091251554
0.0034617332
-0.0099086395
0.00069146221
-0.010527256
-0.0025973613
-0.010827014
-0.006344773
-0.010573628
-0.010331264
-0.0094932086
-0.014077319
-0.007391139
-0.016702765
-0.0044189148
-0.016859471
-0.0014372117
-0.013066766
-0.0050237544
-0.00031004271
0.0031162352
-0.00098036434
0.0072680662
-0.0017790482
0.0096822179
-0.0025693654
0.010848081
-0.0032945952
0.011183314
-0.003947896
0.010967416
-0.0045499693
0.010351349
-0.0051347846
0.0093902543
-0.0057399192
0.0080764783
-0.0063985235
0.0063653908
-0.007130126
0.0041933358
-0.0079302579
0.0014915942
-0.0087388046
-0.0017888146
-0.0094303578
-0.0056532198
-0.0097685803
-0.0099930412
-0.0094003431
-0.014445557
-0.0079305792
-0.018172528
-0.0052061613
-0.019583889
-0.0019026121
-0.016370315
-0.0069263665
-0.00035603994
0.003472275
-0.0010239964
0.0079360227
-0.001704229
0.010362451
-0.0022607968
0.011404649
-0.0026657197
0.011588236
-0.0029440074
0.011245704
-0.0031442462
0.010551588
-0.0033248638
0.009570872
-0.0035471891
0.0082988037
-0.003871042
0.0066892436
-0.0043491673
0.004671461
-0.0050183769
0.0021608038
-0.00587661
-0.00093058142
-0.0068578328
-0.004671997
-0.0077762864
-0.0090745876
-0.008265834
-0.013956009
-0.0077687393
-0.018669623
-0.0057510992
-0.02160153
-0.0024366711
-0.019684743
-0.0093630375
-0.00050826061
0.0039805357
-0.0012456303
0.0086733922
-0.0017958822
0.010912702
-0.0020479966
0.011656763
-0.0020325029
0.011572742
-0.0018254226
0.011038623
-0.0015121889
0.010238354
-0.0011778565
0.0092365397
-0.00090470996
0.0080256573
-0.00077371751
0.0065582512
-0.00086348801
0.0047612314
-0.001247356
0.0025446718
-0.0019828305
-0.0001951069
-0.0030818669
-0.0035729606
-0.0044600305
-0.0076964241
-0.0058274859
-0.012588554
-0.0065661629
-0.017930946
-0.0057684464
-0.022399246
-0.0029512247
-0.022501965
-0.012314262
-0.00086855275
0.0048490887
-0.0017629817
0.009567821
-0.0021213526
0.011271073
-0.0019368404
0.011472251
-0.0013509145
0.010986817
-0.00051618361
0.010203892
0.00043705127
0.0092851186
0.0013996244
0.0082739664
0.002272388
0.0071528937
0.0029609262
0.005869713
0.0033691606
0.0043529971
0.0033968081
0.0025170243
0.0029385527
0.00026314843
0.0019096165
-0.0025440243
0.0002696891
-0.0060564966
-0.0018541603
-0.010464704
-0.0039515938
-0.015833513
-0.0048608331
-0.021490007
-0.003254703
-0.024108095
-0.015568965
-0.0015910836
0.0064401726
-0.002610851
0.010587589
-0.0025131332
0.011173354
-0.0015899009
0.010549019
-0.00017216241
0.0095690789
0.001492811
0.0085389188
0.0032329089
0.0075450208
0.0049232488
0.0065836264
0.0064630077
0.0056131349
0.0077575116
0.0045752091
0.0087075163
0.0034029925
0.0092015031
0.0020230374
0.0091033467
0.00036130485
0.0082750945
-0.0017157721
0.0065654633
-0.0043468654
0.003904237
-0.0078034779
0.00055895557
-0.012488231
-0.0024680535
-0.018462998
-0.0030273164
-0.023548832
-0.018596282
-0.0027183599
0.0091585322
-0.0031498644
0.011019095
-0.0018029961
0.0098264855
0.00046670542
0.0082793168
0.0030894293
0.0069463547
0.0057738184
0.0058545298
0.0083629064
0.0049559329
0.010760404
0.0041861285
0.0128935
0.0034800396
0.014690667
0.0027780414
0.016068351
0.0020253085
0.016923289
0.0011680998
0.017119716
0.00016487767
0.016490832
-0.0010868874
0.014816841
-0.0026728752
0.011846658
-0.0048332946
0.0074354931
-0.0080770662
0.0022629299
-0.013290435
-0.0012724662
-0.020013436
-0.019868748
-0.0024132802
0.011571811
2.805669e-05
0.0085777591
0.0042551388
0.0055994044
0.0084161234
0.0041183324
0.012231486
0.0031309918
0.015656266
0.0024297501
0.01868655
0.0019256491
0.021329193
0.001543485
0.023583493
0.0012257394
0.025429228
0.0009323068
0.026820171
0.00063436566
0.027677182
0.00031108906
0.027900205
-5.8145821e-05
0.027347225
-0.00053390755
0.025771632
-0.0010972822
0.022843047
-0.0019047096
0.01805477
-0.0032887893
0.011113587
-0.0063492511
0.0033886755
-0.012288525
-0.016480072
0.011571811
0.020149569
0.025748973
0.029867306
0.032998298
0.035428048
0.037353697
0.038897182
0.040122921
0.041055228
0.041689594
0.042000683
0.041942537
0.041408629
0.040311347
0.038406637
0.035117848
0.028768597
0.016480072
)
;

boundaryField
{
    movingWall
    {
        type            calculated;
        value           uniform 0;
    }
    fixedWalls
    {
        type            calculated;
        value           uniform 0;
    }
    frontAndBack
    {
        type            empty;
        value           nonuniform List<scalar> 0();
    }
}


// ************************************************************************* //
