/*--------------------------------*- C++ -*----------------------------------*\
| =========                 |                                                 |
| \\      /  F ield         | OpenFOAM: The Open Source CFD Toolbox           |
|  \\    /   O peration     | Version:  2112                                  |
|   \\  /    A nd           | Website:  www.openfoam.com                      |
|    \\/     M anipulation  |                                                 |
\*---------------------------------------------------------------------------*/
FoamFile
{
    version     2.0;
    format      ascii;
    arch        "LSB;label=32;scalar=64";
    class       volVectorField;
    location    "30";
    object      U;
}
// * * * * * * * * * * * * * * * * * * * * * * * * * * * * * * * * * * * * * //

dimensions      [0 1 -1 0 0 0 0];

internalField   nonuniform List<vector> 
400
(
(0.00028444391 -0.00028139645 0)
(0.00011069532 7.9966787e-05 0)
(-0.0013271952 0.00047803411 0)
(-0.0036219071 0.00073593396 0)
(-0.0064236753 0.00086752569 0)
(-0.009431521 0.000907275 0)
(-0.012388064 0.00087487257 0)
(-0.015056526 0.00077153609 0)
(-0.017194646 0.00058849323 0)
(-0.018552956 0.00032008563 0)
(-0.018902721 -2.4813052e-05 0)
(-0.018086232 -0.00041827006 0)
(-0.016079959 -0.00079972642 0)
(-0.013048984 -0.0010930873 0)
(-0.0093664108 -0.0012212157 0)
(-0.0055776641 -0.001129483 0)
(-0.0023003389 -0.00081287219 0)
(-8.2950629e-05 -0.00033798305 0)
(0.00076015189 0.00015229441 0)
(0.00040944185 0.00038933872 0)
(-8.6061462e-05 -0.00012358494 0)
(-0.0018692636 0.0017872625 0)
(-0.0063065475 0.0036260778 0)
(-0.012452745 0.0048625261 0)
(-0.019600758 0.0054985641 0)
(-0.027107117 0.0056207069 0)
(-0.034359111 0.0052860631 0)
(-0.040769139 0.0045044043 0)
(-0.045758461 0.0032662335 0)
(-0.048776205 0.0015896542 0)
(-0.049366957 -0.00043547903 0)
(-0.047254125 -0.0026182102 0)
(-0.042452249 -0.0046645719 0)
(-0.035361681 -0.0062189563 0)
(-0.026778736 -0.0069376271 0)
(-0.017827327 -0.0065923011 0)
(-0.0097755596 -0.0051798002 0)
(-0.0037462994 -0.0029994439 0)
(-0.00038875113 -0.00066553642 0)
(0.00028989561 0.00078354935 0)
(-0.00058808092 0.0014336335 0)
(-0.0042428221 0.0063775501 0)
(-0.011758631 0.010640657 0)
(-0.021468835 0.013483704 0)
(-0.03236642 0.014898407 0)
(-0.04358832 0.015017484 0)
(-0.054287794 0.013936243 0)
(-0.063642995 0.011684296 0)
(-0.070856325 0.0082813892 0)
(-0.075188866 0.0038286522 0)
(-0.076040043 -0.0014059356 0)
(-0.073058209 -0.0069357077 0)
(-0.066267036 -0.012071832 0)
(-0.056169629 -0.016000355 0)
(-0.043780999 -0.017942846 0)
(-0.030569297 -0.017380038 0)
(-0.018250706 -0.014290032 0)
(-0.0084179886 -0.0093123265 0)
(-0.0021511229 -0.0037618391 0)
(-1.9698405e-06 0.00031696907 0)
(-0.0010530691 0.0043004002 0)
(-0.0065148927 0.013565815 0)
(-0.016999226 0.020864221 0)
(-0.030031091 0.025561401 0)
(-0.044300885 0.027761624 0)
(-0.058784696 0.027688111 0)
(-0.072488022 0.025487759 0)
(-0.084447465 0.021218502 0)
(-0.093729515 0.014945157 0)
(-0.099464796 0.0068783785 0)
(-0.1009307 -0.0025013222 0)
(-0.097663319 -0.012378522 0)
(-0.089593459 -0.021605533 0)
(-0.077182509 -0.028824937 0)
(-0.061505285 -0.03270622 0)
(-0.044253763 -0.032300055 0)
(-0.027562283 -0.027445993 0)
(-0.013581783 -0.019080752 0)
(-0.0040263572 -0.0092707104 0)
(-0.00026772038 -0.0011081895 0)
(-0.00145587 0.0083650614 0)
(-0.0085490961 0.023181328 0)
(-0.021746309 0.034051794 0)
(-0.037792605 0.040763233 0)
(-0.055097117 0.043701904 0)
(-0.072519841 0.043259162 0)
(-0.088984736 0.039661579 0)
(-0.1034588 0.033001427 0)
(-0.11493259 0.023384271 0)
(-0.12243727 0.01111675 0)
(-0.12511566 -0.0031289746 0)
(-0.12232019 -0.018219451 0)
(-0.11376178 -0.03254172 0)
(-0.09969846 -0.044132755 0)
(-0.081100652 -0.050966422 0)
(-0.059776432 -0.051441356 0)
(-0.038291245 -0.045013734 0)
(-0.019520482 -0.032755606 0)
(-0.0060923484 -0.017491875 0)
(-0.00051102265 -0.0035220294 0)
(-0.0017889392 0.01347549 0)
(-0.010269746 0.034960961 0)
(-0.025805582 0.049908779 0)
(-0.04446689 0.058794962 0)
(-0.064427897 0.062458532 0)
(-0.084477783 0.061551047 0)
(-0.10351685 0.05641616 0)
(-0.12050383 0.047182288 0)
(-0.13440429 0.033970391 0)
(-0.14417426 0.017132369 0)
(-0.14880379 -0.0025359524 0)
(-0.1473936 -0.023636496 0)
(-0.1393114 -0.044142754 0)
(-0.1244358 -0.061442302 0)
(-0.10343182 -0.072642507 0)
(-0.078056034 -0.075174098 0)
(-0.051261004 -0.067706897 0)
(-0.026809492 -0.051124272 0)
(-0.0086123129 -0.028965699 0)
(-0.00078707393 -0.0070521592 0)
(-0.0020420394 0.019436569 0)
(-0.011605677 0.048529041 0)
(-0.028995858 0.067998504 0)
(-0.049757833 0.079226206 0)
(-0.071891772 0.083657581 0)
(-0.094162255 0.082297896 0)
(-0.11550024 0.075649818 0)
(-0.13491523 0.063876993 0)
(-0.1514035 0.047076029 0)
(-0.16388498 0.025567777 0)
(-0.1711926 0.000163004 0)
(-0.17215477 -0.027610697 0)
(-0.16571587 -0.055396432 0)
(-0.15119216 -0.079945876 0)
(-0.12870075 -0.09735135 0)
(-0.09967013 -0.10369874 0)
(-0.067241919 -0.096286255 0)
(-0.036119168 -0.075220319 0)
(-0.011929747 -0.044539877 0)
(-0.001170819 -0.012001498 0)
(-0.0022012912 0.02601342 0)
(-0.01248474 0.063419701 0)
(-0.031139967 0.08776462 0)
(-0.053354653 0.10149042 0)
(-0.077017839 0.10677728 0)
(-0.1009122 0.10507389 0)
(-0.12405023 0.097088293 0)
(-0.14555191 0.083021449 0)
(-0.16450977 0.062902229 0)
(-0.17987609 0.036930821 0)
(-0.19039937 0.0057954986 0)
(-0.19465582 -0.029033474 0)
(-0.19113643 -0.065018187 0)
(-0.17848989 -0.098391208 0)
(-0.15602503 -0.12417763 0)
(-0.12444501 -0.13676297 0)
(-0.086646698 -0.13132923 0)
(-0.048063799 -0.10623296 0)
(-0.016429381 -0.065393302 0)
(-0.0017537945 -0.018878435 0)
(-0.0022557104 0.032933302 0)
(-0.012853726 0.079088596 0)
(-0.032098957 0.10853515 0)
(-0.054981898 0.12486441 0)
(-0.079334941 0.13109302 0)
(-0.1039943 0.1291994 0)
(-0.12810042 0.12015143 0)
(-0.15094517 0.10420153 0)
(-0.1717974 0.081278371 0)
(-0.18974479 0.051375581 0)
(-0.2035763 0.014915386 0)
(-0.21172914 -0.026876157 0)
(-0.21232523 -0.07153242 0)
(-0.20333822 -0.11502617 0)
(-0.18306286 -0.15144721 0)
(-0.15101796 -0.17328521 0)
(-0.10916564 -0.17282201 0)
(-0.063026402 -0.14524395 0)
(-0.022524983 -0.092978134 0)
(-0.002658964 -0.028422209 0)
(-0.0022086336 0.039904547 0)
(-0.012717084 0.094944305 0)
(-0.031841308 0.12954027 0)
(-0.054496839 0.14845863 0)
(-0.078500107 0.15563558 0)
(-0.10277103 0.15366651 0)
(-0.12662145 0.14384609 0)
(-0.14957661 0.1265134 0)
(-0.17117094 0.10149252 0)
(-0.19075577 0.068517123 0)
(-0.2073271 0.027627541 0)
(-0.21937772 -0.020394294 0)
(-0.22488779 -0.073462 0)
(-0.22130658 -0.12768888 0)
(-0.2058548 -0.17662068 0)
(-0.17647627 -0.21099211 0)
(-0.13334658 -0.21961323 0)
(-0.080899178 -0.192754 0)
(-0.030641902 -0.12885265 0)
(-0.0040700737 -0.041637057 0)
(-0.0020933491 0.046663313 0)
(-0.012189726 0.11041862 0)
(-0.030536214 0.14996588 0)
(-0.052017596 0.17124308 0)
(-0.074465009 0.17919259 0)
(-0.096919919 0.17712116 0)
(-0.11891406 0.16672983 0)
(-0.14026652 0.1485028 0)
(-0.16086208 0.12219248 0)
(-0.18044322 0.087272644 0)
(-0.19840292 0.043352583 0)
(-0.21353681 -0.0093896948 0)
(-0.2240146 -0.069676719 0)
(-0.22708288 -0.13413353 0)
(-0.21908959 -0.19645339 0)
(-0.19626649 -0.24625229 0)
(-0.15621928 -0.2688604 0)
(-0.10070625 -0.24798816 0)
(-0.041146019 -0.17433507 0)
(-0.0062706208 -0.059833952 0)
(-0.0019963289 0.05305749 0)
(-0.011565502 0.12508356 0)
(-0.028660955 0.16904525 0)
(-0.048056616 0.19210922 0)
(-0.067638439 0.20035674 0)
(-0.086643887 0.1979129 0)
(-0.1048959 0.1869673 0)
(-0.12256943 0.16821863 0)
(-0.13996399 0.14140913 0)
(-0.15729758 0.10579906 0)
(-0.17451557 0.060571795 0)
(-0.19108368 0.0052257241 0)
(-0.20560157 -0.059922473 0)
(-0.21550584 -0.13260797 0)
(-0.21690135 -0.20752797 0)
(-0.20457804 -0.27431824 0)
(-0.17317489 -0.31571791 0)
(-0.12017097 -0.3080799 0)
(-0.054147489 -0.22988382 0)
(-0.0096749051 -0.084653176 0)
(-0.0020996018 0.059184297 0)
(-0.011414858 0.13881593 0)
(-0.027115368 0.18617346 0)
(-0.043624837 0.2099472 0)
(-0.058981213 0.21760163 0)
(-0.072777802 0.21419784 0)
(-0.085249933 0.20247369 0)
(-0.097001128 0.1833942 0)
(-0.10878856 0.15675623 0)
(-0.12135026 0.12168631 0)
(-0.13525392 0.077015425 0)
(-0.15070272 0.0216182 0)
(-0.16712202 -0.045110787 0)
(-0.18274001 -0.12251612 0)
(-0.19405354 -0.20712624 0)
(-0.19523504 -0.29011482 0)
(-0.17829425 -0.35358518 0)
(-0.13540546 -0.36743818 0)
(-0.069089022 -0.29415301 0)
(-0.014795029 -0.1179845 0)
(-0.0027676954 0.065619978 0)
(-0.012740984 0.15199861 0)
(-0.027329954 0.20099735 0)
(-0.040244477 0.22368376 0)
(-0.049928509 0.22933096 0)
(-0.056643297 0.2240376 0)
(-0.061232415 0.21108066 0)
(-0.064815803 0.19168181 0)
(-0.068620476 0.16572046 0)
(-0.073874762 0.13227355 0)
(-0.081727958 0.089960257 0)
(-0.093119871 0.037200122 0)
(-0.10846907 -0.027479113 0)
(-0.12721364 -0.10497643 0)
(-0.1470541 -0.1942208 0)
(-0.16280338 -0.2894865 0)
(-0.1650907 -0.37509944 0)
(-0.14090146 -0.41772702 0)
(-0.084061563 -0.36281406 0)
(-0.022011634 -0.1615741 0)
(-0.0047195822 0.073834778 0)
(-0.017222404 0.16572644 0)
(-0.031284275 0.21337841 0)
(-0.039683074 0.2321743 0)
(-0.04188328 0.23380257 0)
(-0.039350831 0.22539472 0)
(-0.033812254 0.21061259 0)
(-0.027000051 0.19081086 0)
(-0.020591688 0.16589803 0)
(-0.016215101 0.13493927 0)
(-0.015476053 0.096470894 0)
(-0.019925276 0.048689996 0)
(-0.030918373 -0.010412746 0)
(-0.049234056 -0.082920529 0)
(-0.07439892 -0.17014319 0)
(-0.10327651 -0.2705026 0)
(-0.12725448 -0.37369539 0)
(-0.12973493 -0.44868783 0)
(-0.094914799 -0.427507 0)
(-0.030930663 -0.21612806 0)
(-0.0092999985 0.086952162 0)
(-0.027432068 0.18185345 0)
(-0.040981538 0.22303365 0)
(-0.042679254 0.23378974 0)
(-0.034405086 0.22880246 0)
(-0.019622191 0.21592316 0)
(-0.0012379102 0.19878019 0)
(0.018346104 0.17856486 0)
(0.037072102 0.15508364 0)
(0.053056309 0.12735939 0)
(0.064422178 0.093936251 0)
(0.0692315 0.053014509 0)
(0.065415563 0.0024625154 0)
(0.051047801 -0.060339439 0)
(0.024643252 -0.13837671 0)
(-0.013701763 -0.2341715 0)
(-0.058753698 -0.34517038 0)
(-0.093510876 -0.44954002 0)
(-0.094469899 -0.47558829 0)
(-0.039216114 -0.28048285 0)
(-0.018580314 0.11087148 0)
(-0.04603962 0.20177657 0)
(-0.055229927 0.22793173 0)
(-0.04398459 0.22501779 0)
(-0.019372078 0.21061311 0)
(0.012333918 0.1922802 0)
(0.046993716 0.1727851 0)
(0.081754852 0.15265408 0)
(0.11443859 0.13135289 0)
(0.1431539 0.10779554 0)
(0.16601742 0.080591567 0)
(0.18098167 0.048112075 0)
(0.18557647 0.0084491619 0)
(0.177166 -0.040817643 0)
(0.15275967 -0.10317635 0)
(0.10948894 -0.18390633 0)
(0.04724062 -0.28855476 0)
(-0.021439228 -0.41051047 0)
(-0.072252928 -0.49101707 0)
(-0.041147483 -0.35054298 0)
(-0.033352246 0.15561543 0)
(-0.068601625 0.22040443 0)
(-0.055187258 0.21729228 0)
(-0.016078497 0.19532449 0)
(0.034511398 0.17092359 0)
(0.088508123 0.14849476 0)
(0.14176897 0.12861271 0)
(0.19196948 0.11057767 0)
(0.23754116 0.093297644 0)
(0.27712062 0.075575088 0)
(0.30921858 0.056181444 0)
(0.33204368 0.033823251 0)
(0.34317597 0.0070271815 0)
(0.33982908 -0.025910569 0)
(0.31813266 -0.067741853 0)
(0.27327735 -0.12410803 0)
(0.20044732 -0.20584717 0)
(0.10213983 -0.32506916 0)
(-0.012387255 -0.45457171 0)
(-0.023756652 -0.40864072 0)
(-0.033081122 0.23907316 0)
(-0.042647161 0.2179201 0)
(0.042207225 0.16426629 0)
(0.12760463 0.12783581 0)
(0.20769805 0.10143553 0)
(0.28028172 0.081658204 0)
(0.34487327 0.066648172 0)
(0.40158322 0.054703078 0)
(0.45055085 0.044399496 0)
(0.49162062 0.034639937 0)
(0.52416205 0.024550587 0)
(0.54698623 0.013381691 0)
(0.55822249 0.00039972394 0)
(0.55570951 -0.015137352 0)
(0.53552628 -0.034969202 0)
(0.49244662 -0.062488208 0)
(0.41797273 -0.10694763 0)
(0.30410595 -0.19317544 0)
(0.12313783 -0.33691905 0)
(0.052374208 -0.39437913 0)
(0.24299926 0.15257479 0)
(0.30529618 0.11854287 0)
(0.45481215 0.076108141 0)
(0.56000885 0.050840197 0)
(0.63223324 0.035126092 0)
(0.6865492 0.024812315 0)
(0.72943834 0.017960106 0)
(0.76379642 0.013255931 0)
(0.7912794 0.0097622053 0)
(0.81275157 0.0068543621 0)
(0.82841147 0.004118518 0)
(0.83794404 0.0012768543 0)
(0.84057079 -0.0018442019 0)
(0.83497559 -0.0053262616 0)
(0.81886698 -0.0098289664 0)
(0.78942866 -0.01623275 0)
(0.73784287 -0.026935706 0)
(0.65316763 -0.05128655 0)
(0.45609767 -0.11374603 0)
(0.31788988 -0.17206002 0)
)
;

boundaryField
{
    movingWall
    {
        type            fixedValue;
        value           uniform (1 0 0);
    }
    fixedWalls
    {
        type            fixedValue;
        value           uniform (0 0 0);
    }
    frontAndBack
    {
        type            empty;
    }
}


// ************************************************************************* //
