/*--------------------------------*- C++ -*----------------------------------*\
| =========                 |                                                 |
| \\      /  F ield         | OpenFOAM: The Open Source CFD Toolbox           |
|  \\    /   O peration     | Version:  2112                                  |
|   \\  /    A nd           | Website:  www.openfoam.com                      |
|    \\/     M anipulation  |                                                 |
\*---------------------------------------------------------------------------*/
FoamFile
{
    version     2.0;
    format      ascii;
    arch        "LSB;label=32;scalar=64";
    class       volVectorField;
    location    "30";
    object      U_0;
}
// * * * * * * * * * * * * * * * * * * * * * * * * * * * * * * * * * * * * * //

dimensions      [0 1 -1 0 0 0 0];

internalField   nonuniform List<vector> 
400
(
(0.00028444389 -0.00028139648 0)
(0.00011069529 7.9966772e-05 0)
(-0.0013271952 0.00047803411 0)
(-0.0036219072 0.00073593397 0)
(-0.0064236753 0.0008675257 0)
(-0.009431521 0.00090727499 0)
(-0.012388064 0.00087487256 0)
(-0.015056526 0.00077153614 0)
(-0.017194646 0.00058849336 0)
(-0.018552957 0.00032008578 0)
(-0.018902721 -2.4812942e-05 0)
(-0.018086232 -0.00041826998 0)
(-0.016079959 -0.00079972634 0)
(-0.013048983 -0.0010930873 0)
(-0.0093664101 -0.001221216 0)
(-0.0055776637 -0.0011294835 0)
(-0.0023003391 -0.00081287267 0)
(-8.2951354e-05 -0.00033798335 0)
(0.00076015127 0.00015229436 0)
(0.00040944165 0.00038933876 0)
(-8.6061477e-05 -0.00012358497 0)
(-0.0018692636 0.0017872625 0)
(-0.0063065475 0.0036260778 0)
(-0.012452745 0.0048625261 0)
(-0.019600758 0.0054985642 0)
(-0.027107117 0.005620707 0)
(-0.034359111 0.0052860632 0)
(-0.040769138 0.0045044044 0)
(-0.045758461 0.0032662338 0)
(-0.048776205 0.0015896547 0)
(-0.049366957 -0.00043547864 0)
(-0.047254125 -0.0026182101 0)
(-0.042452249 -0.0046645721 0)
(-0.035361681 -0.0062189569 0)
(-0.026778736 -0.0069376281 0)
(-0.017827326 -0.0065923023 0)
(-0.0097755596 -0.0051798012 0)
(-0.0037462996 -0.0029994445 0)
(-0.00038875137 -0.00066553649 0)
(0.00028989551 0.00078354952 0)
(-0.00058808094 0.0014336335 0)
(-0.0042428221 0.0063775501 0)
(-0.011758631 0.010640657 0)
(-0.021468834 0.013483704 0)
(-0.03236642 0.014898407 0)
(-0.04358832 0.015017484 0)
(-0.054287794 0.013936243 0)
(-0.063642995 0.011684296 0)
(-0.070856324 0.0082813894 0)
(-0.075188866 0.0038286527 0)
(-0.076040043 -0.0014059351 0)
(-0.073058209 -0.0069357075 0)
(-0.066267036 -0.012071833 0)
(-0.056169629 -0.016000356 0)
(-0.043780999 -0.017942847 0)
(-0.030569297 -0.017380039 0)
(-0.018250706 -0.014290032 0)
(-0.0084179883 -0.0093123267 0)
(-0.0021511228 -0.003761839 0)
(-1.9697928e-06 0.00031696934 0)
(-0.0010530691 0.0043004002 0)
(-0.0065148928 0.013565815 0)
(-0.016999226 0.020864221 0)
(-0.030031091 0.025561401 0)
(-0.044300885 0.027761623 0)
(-0.058784696 0.027688111 0)
(-0.072488022 0.025487759 0)
(-0.084447465 0.021218502 0)
(-0.093729515 0.014945156 0)
(-0.099464795 0.0068783783 0)
(-0.1009307 -0.0025013219 0)
(-0.09766332 -0.012378522 0)
(-0.08959346 -0.021605532 0)
(-0.077182509 -0.028824937 0)
(-0.061505284 -0.03270622 0)
(-0.044253763 -0.032300055 0)
(-0.027562282 -0.027445993 0)
(-0.013581783 -0.019080752 0)
(-0.004026357 -0.0092707103 0)
(-0.0002677203 -0.0011081894 0)
(-0.00145587 0.0083650614 0)
(-0.0085490961 0.023181328 0)
(-0.021746309 0.034051794 0)
(-0.037792605 0.040763233 0)
(-0.055097117 0.043701903 0)
(-0.072519841 0.043259162 0)
(-0.088984736 0.039661579 0)
(-0.1034588 0.033001426 0)
(-0.11493259 0.023384271 0)
(-0.12243727 0.01111675 0)
(-0.12511566 -0.0031289746 0)
(-0.12232019 -0.01821945 0)
(-0.11376178 -0.032541719 0)
(-0.099698461 -0.044132754 0)
(-0.081100652 -0.050966421 0)
(-0.059776432 -0.051441355 0)
(-0.038291245 -0.045013734 0)
(-0.019520482 -0.032755606 0)
(-0.0060923482 -0.017491875 0)
(-0.00051102256 -0.0035220294 0)
(-0.0017889392 0.01347549 0)
(-0.010269746 0.034960961 0)
(-0.025805582 0.049908778 0)
(-0.04446689 0.058794962 0)
(-0.064427897 0.062458532 0)
(-0.084477783 0.061551047 0)
(-0.10351685 0.05641616 0)
(-0.12050383 0.047182288 0)
(-0.13440429 0.033970391 0)
(-0.14417426 0.017132369 0)
(-0.14880379 -0.0025359531 0)
(-0.1473936 -0.023636497 0)
(-0.1393114 -0.044142754 0)
(-0.1244358 -0.061442302 0)
(-0.10343182 -0.072642507 0)
(-0.078056034 -0.075174098 0)
(-0.051261004 -0.067706897 0)
(-0.026809492 -0.051124272 0)
(-0.0086123127 -0.028965699 0)
(-0.00078707385 -0.0070521593 0)
(-0.0020420394 0.019436569 0)
(-0.011605677 0.048529041 0)
(-0.028995858 0.067998504 0)
(-0.049757833 0.079226206 0)
(-0.071891772 0.083657581 0)
(-0.094162255 0.082297896 0)
(-0.11550024 0.075649819 0)
(-0.13491523 0.063876993 0)
(-0.1514035 0.047076029 0)
(-0.16388498 0.025567776 0)
(-0.1711926 0.00016300297 0)
(-0.17215477 -0.027610698 0)
(-0.16571587 -0.055396433 0)
(-0.15119216 -0.079945876 0)
(-0.12870075 -0.09735135 0)
(-0.09967013 -0.10369874 0)
(-0.067241919 -0.096286255 0)
(-0.036119168 -0.075220319 0)
(-0.011929747 -0.044539877 0)
(-0.0011708189 -0.012001498 0)
(-0.0022012912 0.02601342 0)
(-0.01248474 0.063419701 0)
(-0.031139967 0.087764619 0)
(-0.053354653 0.10149042 0)
(-0.077017839 0.10677728 0)
(-0.1009122 0.10507389 0)
(-0.12405023 0.097088293 0)
(-0.14555191 0.083021449 0)
(-0.16450978 0.06290223 0)
(-0.17987609 0.036930821 0)
(-0.19039937 0.0057954983 0)
(-0.19465581 -0.029033474 0)
(-0.19113643 -0.065018187 0)
(-0.17848989 -0.098391208 0)
(-0.15602503 -0.12417763 0)
(-0.12444501 -0.13676297 0)
(-0.086646698 -0.13132923 0)
(-0.048063798 -0.10623296 0)
(-0.016429381 -0.065393302 0)
(-0.0017537945 -0.018878435 0)
(-0.0022557104 0.032933302 0)
(-0.012853726 0.079088596 0)
(-0.032098957 0.10853515 0)
(-0.054981898 0.12486441 0)
(-0.079334941 0.13109301 0)
(-0.1039943 0.1291994 0)
(-0.12810042 0.12015143 0)
(-0.15094517 0.10420153 0)
(-0.1717974 0.081278372 0)
(-0.18974479 0.051375582 0)
(-0.2035763 0.014915387 0)
(-0.21172914 -0.026876157 0)
(-0.21232523 -0.07153242 0)
(-0.20333822 -0.11502617 0)
(-0.18306286 -0.15144721 0)
(-0.15101796 -0.17328521 0)
(-0.10916564 -0.17282201 0)
(-0.063026402 -0.14524395 0)
(-0.022524983 -0.092978133 0)
(-0.0026589639 -0.028422209 0)
(-0.0022086336 0.039904547 0)
(-0.012717085 0.094944305 0)
(-0.031841309 0.12954027 0)
(-0.054496839 0.14845863 0)
(-0.078500107 0.15563558 0)
(-0.10277103 0.15366651 0)
(-0.12662145 0.14384609 0)
(-0.14957661 0.1265134 0)
(-0.17117094 0.10149252 0)
(-0.19075577 0.068517123 0)
(-0.2073271 0.027627542 0)
(-0.21937772 -0.020394294 0)
(-0.22488779 -0.073461999 0)
(-0.22130658 -0.12768888 0)
(-0.2058548 -0.17662068 0)
(-0.17647627 -0.21099211 0)
(-0.13334658 -0.21961323 0)
(-0.080899178 -0.192754 0)
(-0.030641902 -0.12885265 0)
(-0.0040700737 -0.041637057 0)
(-0.002093349 0.046663313 0)
(-0.012189726 0.11041862 0)
(-0.030536214 0.14996588 0)
(-0.052017596 0.17124308 0)
(-0.074465009 0.17919259 0)
(-0.096919917 0.17712116 0)
(-0.11891406 0.16672983 0)
(-0.14026652 0.1485028 0)
(-0.16086208 0.12219248 0)
(-0.18044322 0.087272644 0)
(-0.19840292 0.043352583 0)
(-0.21353681 -0.0093896946 0)
(-0.2240146 -0.069676719 0)
(-0.22708288 -0.13413353 0)
(-0.21908959 -0.19645339 0)
(-0.19626649 -0.24625229 0)
(-0.15621928 -0.2688604 0)
(-0.10070625 -0.24798816 0)
(-0.041146019 -0.17433507 0)
(-0.0062706208 -0.059833952 0)
(-0.0019963291 0.05305749 0)
(-0.011565502 0.12508356 0)
(-0.028660954 0.16904525 0)
(-0.048056617 0.19210922 0)
(-0.06763844 0.20035674 0)
(-0.086643887 0.1979129 0)
(-0.10489589 0.18696729 0)
(-0.12256942 0.16821863 0)
(-0.13996399 0.14140913 0)
(-0.15729758 0.10579906 0)
(-0.17451557 0.060571795 0)
(-0.19108368 0.0052257237 0)
(-0.20560157 -0.059922473 0)
(-0.21550584 -0.13260797 0)
(-0.21690135 -0.20752797 0)
(-0.20457804 -0.27431824 0)
(-0.17317489 -0.31571791 0)
(-0.12017097 -0.3080799 0)
(-0.054147489 -0.22988382 0)
(-0.0096749051 -0.084653176 0)
(-0.0020996023 0.059184297 0)
(-0.011414858 0.13881593 0)
(-0.027115368 0.18617346 0)
(-0.043624837 0.2099472 0)
(-0.058981214 0.21760163 0)
(-0.072777804 0.21419784 0)
(-0.085249932 0.20247369 0)
(-0.097001126 0.1833942 0)
(-0.10878856 0.15675623 0)
(-0.12135026 0.12168631 0)
(-0.13525392 0.077015426 0)
(-0.15070272 0.0216182 0)
(-0.16712202 -0.045110787 0)
(-0.18274001 -0.12251612 0)
(-0.19405354 -0.20712624 0)
(-0.19523504 -0.29011482 0)
(-0.17829425 -0.35358518 0)
(-0.13540546 -0.36743818 0)
(-0.069089022 -0.29415301 0)
(-0.014795029 -0.1179845 0)
(-0.0027676955 0.065619977 0)
(-0.012740984 0.15199861 0)
(-0.027329954 0.20099735 0)
(-0.040244476 0.22368376 0)
(-0.049928509 0.22933096 0)
(-0.056643299 0.2240376 0)
(-0.061232416 0.21108066 0)
(-0.064815803 0.19168181 0)
(-0.068620475 0.16572046 0)
(-0.073874762 0.13227355 0)
(-0.081727958 0.089960258 0)
(-0.093119872 0.037200123 0)
(-0.10846907 -0.027479112 0)
(-0.12721364 -0.10497643 0)
(-0.1470541 -0.1942208 0)
(-0.16280338 -0.2894865 0)
(-0.1650907 -0.37509944 0)
(-0.14090146 -0.41772702 0)
(-0.084061563 -0.36281406 0)
(-0.022011634 -0.1615741 0)
(-0.0047195812 0.073834776 0)
(-0.017222403 0.16572644 0)
(-0.031284276 0.21337841 0)
(-0.039683075 0.2321743 0)
(-0.041883278 0.23380256 0)
(-0.03935083 0.22539472 0)
(-0.033812256 0.21061259 0)
(-0.027000052 0.19081086 0)
(-0.020591688 0.16589803 0)
(-0.016215101 0.13493927 0)
(-0.015476053 0.096470894 0)
(-0.019925276 0.048689996 0)
(-0.030918374 -0.010412746 0)
(-0.049234056 -0.082920529 0)
(-0.07439892 -0.17014319 0)
(-0.10327651 -0.2705026 0)
(-0.12725448 -0.37369539 0)
(-0.12973493 -0.44868783 0)
(-0.094914799 -0.427507 0)
(-0.030930663 -0.21612806 0)
(-0.0092999968 0.086952161 0)
(-0.027432064 0.18185344 0)
(-0.040981539 0.22303366 0)
(-0.042679257 0.23378974 0)
(-0.034405086 0.22880246 0)
(-0.019622189 0.21592315 0)
(-0.00123791 0.19878018 0)
(0.018346103 0.17856486 0)
(0.037072101 0.15508364 0)
(0.053056309 0.12735939 0)
(0.064422178 0.093936251 0)
(0.0692315 0.053014509 0)
(0.065415563 0.0024625154 0)
(0.051047801 -0.060339439 0)
(0.024643252 -0.13837671 0)
(-0.013701763 -0.2341715 0)
(-0.058753698 -0.34517038 0)
(-0.093510876 -0.44954002 0)
(-0.094469899 -0.47558829 0)
(-0.039216114 -0.28048285 0)
(-0.018580314 0.11087148 0)
(-0.046039615 0.20177657 0)
(-0.055229924 0.22793173 0)
(-0.043984593 0.22501779 0)
(-0.01937208 0.21061311 0)
(0.012333918 0.1922802 0)
(0.046993717 0.1727851 0)
(0.081754852 0.15265408 0)
(0.11443859 0.13135289 0)
(0.1431539 0.10779554 0)
(0.16601742 0.080591567 0)
(0.18098167 0.048112075 0)
(0.18557647 0.0084491619 0)
(0.177166 -0.040817643 0)
(0.15275967 -0.10317635 0)
(0.10948894 -0.18390633 0)
(0.04724062 -0.28855476 0)
(-0.021439228 -0.41051047 0)
(-0.072252928 -0.49101707 0)
(-0.041147483 -0.35054298 0)
(-0.03335225 0.15561543 0)
(-0.068601626 0.22040443 0)
(-0.055187252 0.21729227 0)
(-0.016078496 0.19532448 0)
(0.034511396 0.17092359 0)
(0.088508122 0.14849476 0)
(0.14176897 0.12861271 0)
(0.19196948 0.11057767 0)
(0.23754116 0.093297643 0)
(0.27712062 0.075575088 0)
(0.30921858 0.056181444 0)
(0.33204368 0.033823251 0)
(0.34317597 0.0070271816 0)
(0.33982908 -0.025910569 0)
(0.31813266 -0.067741853 0)
(0.27327735 -0.12410803 0)
(0.20044732 -0.20584717 0)
(0.10213983 -0.32506916 0)
(-0.012387255 -0.45457171 0)
(-0.023756652 -0.40864072 0)
(-0.033081129 0.23907317 0)
(-0.042647169 0.21792011 0)
(0.042207227 0.16426629 0)
(0.12760463 0.12783581 0)
(0.20769806 0.10143553 0)
(0.28028172 0.081658204 0)
(0.34487327 0.066648173 0)
(0.40158322 0.054703078 0)
(0.45055085 0.044399496 0)
(0.49162062 0.034639937 0)
(0.52416205 0.024550587 0)
(0.54698623 0.013381692 0)
(0.55822249 0.000399724 0)
(0.55570951 -0.015137352 0)
(0.53552628 -0.034969202 0)
(0.49244662 -0.062488208 0)
(0.41797273 -0.10694763 0)
(0.30410595 -0.19317544 0)
(0.12313783 -0.33691905 0)
(0.052374208 -0.39437913 0)
(0.24299926 0.1525748 0)
(0.30529617 0.11854287 0)
(0.45481214 0.076108145 0)
(0.56000885 0.050840198 0)
(0.63223324 0.035126092 0)
(0.6865492 0.024812315 0)
(0.72943834 0.017960106 0)
(0.76379642 0.013255932 0)
(0.7912794 0.0097622054 0)
(0.81275157 0.0068543621 0)
(0.82841147 0.004118518 0)
(0.83794404 0.0012768543 0)
(0.84057079 -0.0018442018 0)
(0.83497559 -0.0053262616 0)
(0.81886698 -0.0098289664 0)
(0.78942866 -0.01623275 0)
(0.73784287 -0.026935706 0)
(0.65316763 -0.05128655 0)
(0.45609767 -0.11374603 0)
(0.31788988 -0.17206002 0)
)
;

boundaryField
{
    movingWall
    {
        type            fixedValue;
        value           uniform (1 0 0);
    }
    fixedWalls
    {
        type            fixedValue;
        value           uniform (0 0 0);
    }
    frontAndBack
    {
        type            empty;
    }
}


// ************************************************************************* //
