0.0005 	0.00348 	2.4736089e-21 	1
0.0015 	0.00348 	3.557215e-11 	1
0.0025 	0.00348 	1.4491517e-11 	1
0.0035 	0.00348 	3.1926845e-12 	1
0.0045 	0.00348 	9.8094767e-12 	1
0.0055 	0.00348 	6.4086002e-12 	1
0.0065 	0.00348 	1.0635131e-11 	1
0.0075 	0.00348 	1.7253035e-11 	1
0.0085 	0.00348 	7.2617091e-13 	1
0.0095 	0.00348 	7.0434024e-12 	1
0.0105 	0.00348 	9.7921366e-12 	1
0.0115 	0.00348 	5.3706415e-12 	1
0.0125 	0.00348 	2.0734942e-11 	1
0.0135 	0.00348 	1.8722161e-11 	1
0.0145 	0.00348 	1.6536423e-12 	1
0.0155 	0.00348 	2.9744887e-12 	1
0.0165 	0.00348 	6.7616262e-12 	1
0.0175 	0.00348 	4.6114578e-12 	1
0.0185 	0.00348 	1.6889115e-11 	1
0.0195 	0.00348 	1.3241588e-11 	1
0.0205 	0.00348 	6.2568747e-12 	1
0.0215 	0.00348 	5.2398129e-12 	1
0.0225 	0.00348 	2.3631512e-11 	1
0.0235 	0.00348 	1.5845265e-11 	1
0.0245 	0.00348 	3.2267866e-11 	1
0.0255 	0.00348 	3.7653514e-12 	1
0.0265 	0.00348 	2.8384247e-11 	1
0.0275 	0.00348 	5.9523119e-12 	1
0.0285 	0.00348 	4.0711368e-12 	1
0.0295 	0.00348 	3.092868e-12 	1
0.0305 	0.00348 	1.645528e-12 	1
0.0315 	0.00348 	1.4564101e-11 	1
0.0325 	0.00348 	1.4103256e-11 	1
0.0335 	0.00348 	1.1685094e-11 	1
0.0345 	0.00348 	2.1664859e-11 	1
0.0355 	0.00348 	3.3110082e-11 	1
0.0365 	0.00348 	5.1585703e-11 	1
0.0375 	0.00348 	3.3429429e-11 	1
0.0385 	0.00348 	6.1477878e-11 	1
0.0395 	0.00348 	2.8549978e-11 	1
0.0405 	0.00348 	6.3940724e-11 	1
0.0415 	0.00348 	4.2923005e-11 	1
0.0425 	0.00348 	6.7488102e-11 	1
0.0435 	0.00348 	4.6114911e-11 	1
0.0445 	0.00348 	7.38638e-11 	1
0.0455 	0.00348 	6.2954229e-11 	1
0.0465 	0.00348 	5.8148252e-11 	1
0.0475 	0.00348 	5.1998196e-11 	1
0.0485 	0.00348 	6.2571525e-11 	1
0.0495 	0.00348 	6.3686069e-11 	1
0.0505 	0.00348 	6.6297973e-11 	1
0.0515 	0.00348 	5.5396516e-11 	1
0.0525 	0.00348 	3.8656236e-11 	1
0.0535 	0.00348 	3.7013154e-11 	1
0.0545 	0.00348 	2.5425876e-11 	1
0.0555 	0.00348 	5.928347e-11 	1
0.0565 	0.00348 	1.4655137e-11 	1
0.0575 	0.00348 	1.3775906e-11 	1
0.0585 	0.00348 	7.3402954e-12 	1
0.0595 	0.00348 	1.9464115e-11 	1
0.0605 	0.00348 	1.3586944e-11 	1
0.0615 	0.00348 	3.222585e-12 	1
0.0625 	0.00348 	3.1207677e-12 	1
0.0635 	0.00348 	7.4854629e-12 	1
0.0645 	0.00348 	1.5714993e-12 	1
0.0655 	0.00348 	1.0029451e-12 	1
0.0665 	0.00348 	1.8254646e-11 	1
0.0675 	0.00348 	1.6622901e-11 	1
0.0685 	0.00348 	2.7060288e-11 	1
0.0695 	0.00348 	2.7576044e-11 	1
0.0705 	0.00348 	2.2113367e-11 	1
0.0715 	0.00348 	3.7476556e-11 	1
0.0725 	0.00348 	2.8651462e-11 	1
0.0735 	0.00348 	1.0359023e-11 	1
0.0745 	0.00348 	1.8422378e-11 	1
0.0755 	0.00348 	2.0315446e-11 	1
0.0765 	0.00348 	1.144978e-11 	1
0.0775 	0.00348 	1.2722942e-11 	1
0.0785 	0.00348 	1.2541982e-11 	1
0.0795 	0.00348 	1.7565045e-11 	1
0.0805 	0.00348 	1.1307058e-11 	1
0.0815 	0.00348 	1.0880448e-11 	1
0.0825 	0.00348 	3.1376187e-11 	1
0.0835 	0.00348 	1.5549373e-11 	1
0.0845 	0.00348 	2.7908618e-11 	1
0.0855 	0.00348 	1.3636074e-11 	1
0.0865 	0.00348 	2.6978256e-11 	1
0.0875 	0.00348 	2.4016439e-11 	1
0.0885 	0.00348 	3.3378853e-11 	1
0.0895 	0.00348 	6.3285692e-12 	1
0.0905 	0.00348 	9.4646761e-12 	1
0.0915 	0.00348 	1.1684983e-11 	1
0.0925 	0.00348 	8.3919261e-12 	1
0.0935 	0.00348 	7.3647494e-12 	1
0.0945 	0.00348 	4.2612106e-12 	1
0.0955 	0.00348 	4.1272697e-12 	1
0.0965 	0.00348 	5.051073e-12 	1
0.0975 	0.00348 	6.0162256e-12 	1
0.0985 	0.00348 	5.2336994e-12 	1
0.0995 	0.00348 	9.1067593e-12 	1
0.1005 	0.00348 	8.3596914e-12 	1
0.1015 	0.00348 	2.3193786e-11 	1
0.1025 	0.00348 	2.4675139e-12 	1
0.1035 	0.00348 	1.96822e-11 	1
0.1045 	0.00348 	7.0787494e-12 	1
0.1055 	0.00348 	1.5689872e-11 	1
0.1065 	0.00348 	1.3103645e-11 	1
0.1075 	0.00348 	1.2901678e-11 	1
0.1085 	0.00348 	5.1338829e-12 	1
0.1095 	0.00348 	3.0584879e-11 	1
0.1105 	0.00348 	2.4636347e-11 	1
0.1115 	0.00348 	4.084931e-11 	1
0.1125 	0.00348 	1.8863771e-11 	1
0.1135 	0.00348 	1.7808806e-11 	1
0.1145 	0.00348 	1.0670256e-11 	1
0.1155 	0.00348 	2.2720714e-11 	1
0.1165 	0.00348 	6.5158642e-12 	1
0.1175 	0.00348 	1.4889783e-11 	1
0.1185 	0.00348 	1.3300166e-11 	1
0.1195 	0.00348 	2.1428323e-11 	1
0.1205 	0.00348 	5.7082171e-12 	1
0.1215 	0.00348 	1.5145549e-11 	1
0.1225 	0.00348 	2.9703648e-11 	1
0.1235 	0.00348 	3.2818747e-11 	1
0.1245 	0.00348 	5.7270022e-11 	1
0.1255 	0.00348 	3.4523965e-11 	1
0.1265 	0.00348 	3.5275701e-11 	1
0.1275 	0.00348 	3.0865322e-12 	1
0.1285 	0.00348 	1.1147552e-11 	1
0.1295 	0.00348 	1.3170782e-11 	1
0.1305 	0.00348 	2.0258313e-11 	1
0.1315 	0.00348 	8.1201539e-12 	1
0.1325 	0.00348 	1.8948693e-11 	1
0.1335 	0.00348 	4.3070062e-12 	1
0.1345 	0.00348 	2.0004436e-12 	1
0.1355 	0.00348 	2.087144e-12 	1
0.1365 	0.00348 	1.278541e-11 	1
0.1375 	0.00348 	1.4894674e-12 	1
0.1385 	0.00348 	7.7514551e-12 	1
0.1395 	0.00348 	7.6359658e-12 	1
0.1405 	0.00348 	4.8564418e-12 	1
0.1415 	0.00348 	1.2659361e-12 	1
0.1425 	0.00348 	2.5807135e-11 	1
0.1435 	0.00348 	1.9168779e-11 	1
0.1445 	0.00348 	2.2039671e-12 	1
0.1455 	0.00348 	9.3736407e-13 	1
0.1465 	0.00348 	3.4295543e-12 	1
0.1475 	0.00348 	8.5977838e-13 	1
0.1485 	0.00348 	2.1398089e-11 	1
0.1495 	0.00348 	4.11093e-12 	1
0.1505 	0.00348 	2.9779344e-12 	1
0.1515 	0.00348 	9.9719843e-12 	1
0.1525 	0.00348 	1.2265875e-12 	1
0.1535 	0.00348 	2.3258256e-11 	1
0.1545 	0.00348 	2.7452885e-12 	1
0.1555 	0.00348 	3.5525243e-11 	1
0.1565 	0.00348 	4.9341387e-13 	1
0.1575 	0.00348 	2.516055e-11 	1
0.1585 	0.00348 	3.9548695e-13 	1
0.1595 	0.00348 	2.2922348e-11 	1
0.1605 	0.00348 	1.2079136e-12 	1
0.1615 	0.00348 	1.486344e-11 	1
0.1625 	0.00348 	2.8566095e-11 	1
0.1635 	0.00348 	1.1704213e-11 	1
0.1645 	0.00348 	1.3646523e-11 	1
0.1655 	0.00348 	3.290667e-11 	1
0.1665 	0.00348 	1.1824593e-11 	1
0.1675 	0.00348 	1.9435993e-11 	1
0.1685 	0.00348 	1.4976484e-11 	1
0.1695 	0.00348 	6.4421688e-12 	1
0.1705 	0.00348 	3.1013157e-12 	1
0.1715 	0.00348 	1.4837763e-11 	1
0.1725 	0.00348 	2.4438825e-11 	1
0.1735 	0.00348 	1.8236083e-11 	1
0.1745 	0.00348 	1.5704544e-11 	1
0.1755 	0.00348 	1.0533647e-11 	1
0.1765 	0.00348 	7.9248558e-12 	1
0.1775 	0.00348 	8.2939992e-12 	1
0.1785 	0.00348 	1.8438273e-11 	1
0.1795 	0.00348 	2.6298214e-11 	1
0.1805 	0.00348 	3.3018713e-11 	1
0.1815 	0.00348 	4.3504675e-12 	1
0.1825 	0.00348 	1.2537536e-11 	1
0.1835 	0.00348 	1.660645e-12 	1
0.1845 	0.00348 	1.8246976e-11 	1
0.1855 	0.00348 	9.6453018e-12 	1
0.1865 	0.00348 	2.9774898e-12 	1
0.1875 	0.00348 	4.012225e-12 	1
0.1885 	0.00348 	1.3658638e-11 	1
0.1895 	0.00348 	4.5602156e-12 	1
0.1905 	0.00348 	8.7537333e-12 	1
0.1915 	0.00348 	1.76214e-11 	1
0.1925 	0.00348 	1.7859048e-11 	1
0.1935 	0.00348 	1.0328901e-11 	1
0.1945 	0.00348 	1.946067e-11 	1
0.1955 	0.00348 	1.7977872e-11 	1
0.1965 	0.00348 	1.3260373e-11 	1
0.1975 	0.00348 	8.0306747e-12 	1
0.1985 	0.00348 	3.7705756e-12 	1
0.1995 	0.00348 	1.5674755e-11 	1
0.2005 	0.00348 	2.0868439e-11 	1
0.2015 	0.00348 	1.0141161e-11 	1
0.2025 	0.00348 	9.1175413e-12 	1
0.2035 	0.00348 	2.7824474e-11 	1
0.2045 	0.00348 	1.8477955e-11 	1
0.2055 	0.00348 	3.1111084e-11 	1
0.2065 	0.00348 	1.8002659e-11 	1
0.2075 	0.00348 	4.4133253e-11 	1
0.2085 	0.00348 	2.1554261e-11 	1
0.2095 	0.00348 	3.4529856e-11 	1
0.2105 	0.00348 	1.7164445e-12 	1
0.2115 	0.00348 	4.1950516e-11 	1
0.2125 	0.00348 	1.9599501e-11 	1
0.2135 	0.00348 	5.5902602e-11 	1
0.2145 	0.00348 	2.3968198e-11 	1
0.2155 	0.00348 	5.3617381e-11 	1
0.2165 	0.00348 	3.4065898e-11 	1
0.2175 	0.00348 	5.772631e-11 	1
0.2185 	0.00348 	4.3247909e-11 	1
0.2195 	0.00348 	2.910964e-11 	1
0.2205 	0.00348 	3.540753e-11 	1
0.2215 	0.00348 	2.7571931e-11 	1
0.2225 	0.00348 	1.1315284e-11 	1
0.2235 	0.00348 	1.8592999e-11 	1
0.2245 	0.00348 	2.5544255e-11 	1
0.2255 	0.00348 	1.6387143e-11 	1
0.2265 	0.00348 	1.5040508e-11 	1
0.2275 	0.00348 	2.2639905e-11 	1
0.2285 	0.00348 	5.4360002e-12 	1
0.2295 	0.00348 	8.6666995e-12 	1
0.2305 	0.00348 	5.6874312e-12 	1
0.2315 	0.00348 	1.5383751e-13 	1
0.2325 	0.00348 	8.4142681e-12 	1
0.2335 	0.00348 	2.35447e-12 	1
0.2345 	0.00348 	1.4626348e-11 	1
0.2355 	0.00348 	3.7153319e-12 	1
0.2365 	0.00348 	1.3556488e-11 	1
0.2375 	0.00348 	3.5347063e-14 	1
0.2385 	0.00348 	1.3290495e-11 	1
0.2395 	0.00348 	1.0186957e-11 	1
0.2405 	0.00348 	6.1501665e-12 	1
0.2415 	0.00348 	8.5577683e-13 	1
0.2425 	0.00348 	1.3072633e-11 	1
0.2435 	0.00348 	1.0210744e-11 	1
0.2445 	0.00348 	2.2636236e-11 	1
0.2455 	0.00348 	2.474839e-11 	1
0.2465 	0.00348 	2.8420038e-11 	1
0.2475 	0.00348 	4.5050942e-11 	1
0.2485 	0.00348 	2.2227633e-11 	1
0.2495 	0.00348 	3.1792015e-11 	1
0.2505 	0.00348 	3.6332556e-11 	1
0.2515 	0.00348 	3.8697586e-11 	1
0.2525 	0.00348 	4.2348893e-11 	1
0.2535 	0.00348 	3.2118253e-11 	1
0.2545 	0.00348 	2.8153046e-11 	1
0.2555 	0.00348 	2.4457277e-11 	1
0.2565 	0.00348 	1.9662081e-11 	1
0.2575 	0.00348 	2.1734997e-11 	1
0.2585 	0.00348 	6.8804476e-14 	1
0.2595 	0.00348 	1.1115651e-11 	1
0.2605 	0.00348 	4.9918277e-12 	1
0.2615 	0.00348 	1.8982929e-12 	1
0.2625 	0.00348 	1.1247702e-11 	1
0.2635 	0.00348 	2.0770401e-11 	1
0.2645 	0.00348 	3.5807463e-11 	1
0.2655 	0.00348 	8.5853346e-12 	1
0.2665 	0.00348 	2.4645239e-11 	1
0.2675 	0.00348 	2.9784902e-12 	1
0.2685 	0.00348 	3.769364e-11 	1
0.2695 	0.00348 	1.2267098e-11 	1
0.2705 	0.00348 	3.746344e-11 	1
0.2715 	0.00348 	1.1964203e-11 	1
0.2725 	0.00348 	3.5184555e-11 	1
0.2735 	0.00348 	1.8121038e-11 	1
0.2745 	0.00348 	3.9607495e-11 	1
0.2755 	0.00348 	3.9379517e-11 	1
0.2765 	0.00348 	3.7426425e-11 	1
0.2775 	0.00348 	3.3673968e-11 	1
0.2785 	0.00348 	4.049684e-12 	1
0.2795 	0.00348 	2.1577381e-11 	1
0.2805 	0.00348 	1.3780908e-11 	1
0.2815 	0.00348 	2.3483121e-11 	1
0.2825 	0.00348 	2.7510908e-11 	1
0.2835 	0.00348 	1.4425381e-11 	1
0.2845 	0.00348 	3.1311828e-11 	1
0.2855 	0.00348 	3.6918784e-11 	1
0.2865 	0.00348 	1.8378583e-11 	1
0.2875 	0.00348 	2.2417929e-11 	1
0.2885 	0.00348 	9.0246163e-12 	1
0.2895 	0.00348 	6.4247186e-14 	1
0.2905 	0.00348 	9.9341918e-12 	1
0.2915 	0.00348 	7.702325e-12 	1
0.2925 	0.00348 	4.1842474e-11 	1
0.2935 	0.00348 	6.886208e-11 	1
0.2945 	0.00348 	9.5465635e-11 	1
0.2955 	0.00348 	1.6657403e-10 	1
0.2965 	0.00348 	2.5517066e-10 	1
0.2975 	0.00348 	3.8494351e-10 	1
0.2985 	0.00348 	5.6399439e-10 	1
0.2995 	0.00348 	8.0096699e-10 	1
0.3005 	0.00348 	1.1594728e-09 	1
0.3015 	0.00348 	1.6400004e-09 	1
0.3025 	0.00348 	2.3573629e-09 	1
0.3035 	0.00348 	3.2925991e-09 	1
0.3045 	0.00348 	4.651614e-09 	0.99999999
0.3055 	0.00348 	6.4904372e-09 	0.99999999
0.3065 	0.00348 	9.0606513e-09 	0.99999999
0.3075 	0.00348 	1.2616985e-08 	0.99999999
0.3085 	0.00348 	1.750877e-08 	0.99999998
0.3095 	0.00348 	2.4246208e-08 	0.99999997
0.3105 	0.00348 	3.3509402e-08 	0.99999996
0.3115 	0.0034799999 	4.6136119e-08 	0.99999995
0.3125 	0.0034799999 	6.3343107e-08 	0.99999993
0.3135 	0.0034799999 	8.6727815e-08 	0.9999999
0.3145 	0.0034799999 	1.1841186e-07 	0.99999986
0.3155 	0.0034799998 	1.6118977e-07 	0.99999981
0.3165 	0.0034799997 	2.1885078e-07 	0.99999974
0.3175 	0.0034799997 	2.9625965e-07 	0.99999965
0.3185 	0.0034799995 	3.9988425e-07 	0.99999953
0.3195 	0.0034799994 	5.3816045e-07 	0.99999937
0.3205 	0.0034799992 	7.2207441e-07 	0.99999916
0.3215 	0.0034799989 	9.6595904e-07 	0.99999887
0.3225 	0.0034799985 	1.2882465e-06 	0.99999849
0.3235 	0.003479998 	1.7128436e-06 	0.999998
0.3245 	0.0034799974 	2.2702853e-06 	0.99999734
0.3255 	0.0034799965 	2.9998008e-06 	0.99999649
0.3265 	0.0034799954 	3.9511764e-06 	0.99999537
0.3275 	0.003479994 	5.1876766e-06 	0.99999392
0.3285 	0.0034799921 	6.7891422e-06 	0.99999204
0.3295 	0.0034799897 	8.8560828e-06 	0.99998962
0.3305 	0.0034799866 	1.1514183e-05 	0.9999865
0.3315 	0.0034799827 	1.4920328e-05 	0.9999825
0.3325 	0.0034799776 	1.9269039e-05 	0.99997739
0.3335 	0.0034799711 	2.4800646e-05 	0.9999709
0.3345 	0.003479963 	3.1810529e-05 	0.99996266
0.3355 	0.0034799526 	4.0660049e-05 	0.99995226
0.3365 	0.0034799396 	5.1789098e-05 	0.99993918
0.3375 	0.0034799234 	6.5730358e-05 	0.99992279
0.3385 	0.003479903 	8.3125583e-05 	0.99990233
0.3395 	0.0034798778 	0.00010474378 	0.9998769
0.3405 	0.0034798465 	0.00013150143 	0.99984542
0.3415 	0.0034798079 	0.00016448458 	0.99980661
0.3425 	0.0034797605 	0.00020497294 	0.99975895
0.3435 	0.0034797025 	0.00025446541 	0.99970068
0.3445 	0.003479632 	0.00031470709 	0.99962974
0.3455 	0.0034795464 	0.00038771704 	0.99954376
0.3465 	0.0034794431 	0.00047581629 	0.99943999
0.3475 	0.003479319 	0.00058165571 	0.9993153
0.3485 	0.0034791705 	0.00070824225 	0.99916615
0.3495 	0.0034789936 	0.00085896345 	0.99898856
0.3505 	0.0034787839 	0.0010376082 	0.99877805
0.3515 	0.0034785364 	0.0012483837 	0.99852967
0.3525 	0.0034782457 	0.0014959262 	0.99823797
0.3535 	0.0034779057 	0.0017853056 	0.997897
0.3545 	0.0034775101 	0.0021220223 	0.9975003
0.3555 	0.0034770518 	0.0025119947 	0.99704093
0.3565 	0.0034765234 	0.0029615384 	0.99651151
0.3575 	0.003475917 	0.0034773344 	0.99590426
0.3585 	0.0034752245 	0.0040663876 	0.99521102
0.3595 	0.0034744372 	0.0047359764 	0.99442338
0.3605 	0.0034735464 	0.0054935914 	0.99353269
0.3615 	0.0034725432 	0.0063468671 	0.9925302
0.3625 	0.0034714185 	0.007303506 	0.99140714
0.3635 	0.0034701633 	0.0083711979 	0.99015481
0.3645 	0.0034687689 	0.0095575358 	0.98876473
0.3655 	0.0034672265 	0.01086993 	0.9872287
0.3665 	0.003465528 	0.012315523 	0.98553893
0.3675 	0.0034636654 	0.013901112 	0.98368817
0.3685 	0.0034616315 	0.015633065 	0.98166976
0.3695 	0.0034594196 	0.017517262 	0.97947773
0.3705 	0.0034570237 	0.019559027 	0.97710692
0.3715 	0.0034544384 	0.021763082 	0.97455296
0.3725 	0.0034516592 	0.024133505 	0.97181238
0.3735 	0.0034486825 	0.026673708 	0.96888263
0.3745 	0.0034455054 	0.029386413 	0.96576206
0.3755 	0.0034421258 	0.032273654 	0.96244996
0.3765 	0.0034385426 	0.035336779 	0.95894654
0.3775 	0.0034347553 	0.038576467 	0.95525286
0.3785 	0.0034307643 	0.04199275 	0.95137085
0.3795 	0.0034265707 	0.045585049 	0.94730322
0.3805 	0.0034221763 	0.049352209 	0.94305342
0.3815 	0.0034175836 	0.053292541 	0.93862558
0.3825 	0.0034127954 	0.05740387 	0.93402441
0.3835 	0.0034078153 	0.061683583 	0.92925516
0.3845 	0.0034026473 	0.066128679 	0.92432357
0.3855 	0.0033972957 	0.070735817 	0.91923573
0.3865 	0.0033917651 	0.075501368 	0.91399807
0.3875 	0.0033860606 	0.08042146 	0.90861727
0.3885 	0.0033801874 	0.085492024 	0.9031002
0.3895 	0.0033741507 	0.090708839 	0.89745386
0.3905 	0.003367956 	0.096067568 	0.89168532
0.3915 	0.0033616089 	0.1015638 	0.8858017
0.3925 	0.003355115 	0.10719306 	0.87981006
0.3935 	0.0033484799 	0.11295089 	0.87371745
0.3945 	0.003341709 	0.11883282 	0.8675308
0.3955 	0.0033348081 	0.12483441 	0.86125692
0.3965 	0.0033277824 	0.13095128 	0.85490249
0.3975 	0.0033206373 	0.13717913 	0.84847401
0.3985 	0.0033133781 	0.14351373 	0.84197779
0.3995 	0.0033060098 	0.14995096 	0.83541996
0.4005 	0.0032985375 	0.15648679 	0.82880644
0.4015 	0.0032909658 	0.16311732 	0.82214292
0.4025 	0.0032832995 	0.16983875 	0.81543488
0.4035 	0.0032755432 	0.17664742 	0.80868758
0.4045 	0.003267701 	0.1835398 	0.80190605
0.4055 	0.0032597773 	0.19051247 	0.7950951
0.4065 	0.0032517761 	0.19756214 	0.78825933
0.4075 	0.0032437012 	0.20468567 	0.7814031
0.4085 	0.0032355563 	0.21188001 	0.77453057
0.4095 	0.003227345 	0.21914228 	0.7676457
0.4105 	0.0032190708 	0.22646967 	0.76075224
0.4115 	0.0032107368 	0.23385953 	0.75385375
0.4125 	0.0032023462 	0.24130932 	0.74695358
0.4135 	0.003193902 	0.2488166 	0.74005492
0.4145 	0.003185407 	0.25637904 	0.73316077
0.4155 	0.0031768639 	0.26399444 	0.72627397
0.4165 	0.0031682752 	0.27166068 	0.7193972
0.4175 	0.0031596436 	0.27937575 	0.71253295
0.4185 	0.0031509712 	0.28713777 	0.70568359
0.4195 	0.0031422603 	0.29494488 	0.69885134
0.4205 	0.003133513 	0.30279546 	0.69203827
0.4215 	0.0031247314 	0.31068767 	0.68524629
0.4225 	0.0031159165 	0.31862067 	0.67847726
0.4235 	0.0031070734 	0.32659107 	0.67173268
0.4245 	0.0030981939 	0.33460296 	0.66501445
0.4255 	0.0030893054 	0.34264136 	0.65832314
0.4265 	0.003080345 	0.3507378 	0.6516617
0.4275 	0.0030714619 	0.35882029 	0.64502819
0.4285 	0.0030623438 	0.36702912 	0.63842796
0.4295 	0.0030535942 	0.37510944 	0.63185732
0.4305 	0.0030441672 	0.38346982 	0.62532111
0.4315 	0.0030357109 	0.39151817 	0.61881906
0.4325 	0.0030258436 	0.40002843 	0.61234755
0.4335 	0.0030178211 	0.40807226 	0.60591079
0.4345 	0.0030073184 	0.41671242 	0.59950428
0.4355 	0.0029999901 	0.42477037 	0.59312715
0.4365 	0.0029884433 	0.43354705 	0.58677625
0.4375 	0.0029823747 	0.44164824 	0.58045374
0.4385 	0.0029687195 	0.4504208 	0.57414476
0.4395 	0.0029659464 	0.45880128 	0.5679354
0.4405 	0.0029478864 	0.46731437 	0.56173038
0.4415 	0.0029492726 	0.47564069 	0.55567586
0.4425 	0.0029295176 	0.48422064 	0.54975382
0.4435 	0.0029300841 	0.49218235 	0.54389315
0.4445 	0.0029110801 	0.50114621 	0.53784192
0.4455 	0.0029126025 	0.50900396 	0.53204238
0.4465 	0.0028936032 	0.518143 	0.52624439
0.4475 	0.0028932674 	0.52591298 	0.52039538
0.4485 	0.0028755279 	0.5352627 	0.5147152
0.4495 	0.0028746712 	0.54287413 	0.50885952
0.4505 	0.0028578219 	0.55237234 	0.50341227
0.4515 	0.0028573435 	0.55994548 	0.49765597
0.4525 	0.0028389431 	0.56971587 	0.49220798
0.4535 	0.0028389428 	0.57701518 	0.48659245
0.4545 	0.0028205027 	0.58720775 	0.48109
0.4555 	0.0028205001 	0.59417315 	0.47564943
0.4565 	0.0028022564 	0.60464393 	0.470168
0.4575 	0.0028026413 	0.61157174 	0.46478838
0.4585 	0.002783367 	0.62223854 	0.45943804
0.4595 	0.0027844657 	0.62896741 	0.45411963
0.4605 	0.0027647765 	0.63994151 	0.44885067
0.4615 	0.0027662346 	0.6463752 	0.44364361
0.4625 	0.0027461915 	0.65756992 	0.4384931
0.4635 	0.0027481654 	0.66373256 	0.43339905
0.4645 	0.0027278929 	0.67507394 	0.42839753
0.4655 	0.0027303081 	0.68084696 	0.42348832
0.4665 	0.00270992 	0.69222455 	0.41868472
0.4675 	0.0027131121 	0.69760447 	0.41397933
0.4685 	0.0026923294 	0.70898071 	0.40938049
0.4695 	0.0026963506 	0.71394469 	0.40487799
0.4705 	0.0026753337 	0.7252862 	0.4004934
0.4715 	0.0026801267 	0.72979015 	0.39622195
0.4725 	0.0026591543 	0.74095639 	0.39208631
0.4735 	0.0026644618 	0.74500105 	0.38809196
0.4745 	0.0026440169 	0.75577082 	0.3842387
0.4755 	0.0026494936 	0.75958339 	0.38049938
0.4765 	0.0026295342 	0.77002512 	0.37686102
0.4775 	0.0026349113 	0.77383606 	0.37330652
0.4785 	0.0026160067 	0.78382725 	0.36984774
0.4795 	0.0026204986 	0.78789691 	0.36647357
0.4805 	0.0026030235 	0.79706106 	0.36321807
0.4815 	0.0026069368 	0.80153898 	0.36007251
0.4825 	0.0025920659 	0.80944065 	0.35701313
0.4835 	0.0025923338 	0.81447886 	0.35406584
0.4845 	0.0025815851 	0.82092838 	0.35110903
0.4855 	0.0025751964 	0.82676051 	0.34842267
0.4865 	0.0025748981 	0.83227023 	0.34546699
0.4875 	0.0025581402 	0.84016694 	0.3426138
0.4885 	0.0025683448 	0.84345249 	0.34005408
0.4895 	0.0025426879 	0.85416931 	0.33651942
0.4905 	0.0025519357 	0.85538181 	0.33361654
0.4915 	0.0025292023 	0.86689314 	0.33050022
0.4925 	0.0025427065 	0.87031671 	0.32750755
0.4935 	0.0025209477 	0.88113769 	0.32393689
0.4945 	0.0025204465 	0.88503948 	0.32105864
0.4955 	0.0025122814 	0.89266435 	0.31835067
0.4965 	0.002507419 	0.89726632 	0.31592692
0.4975 	0.0025029241 	0.90207678 	0.31387365
0.4985 	0.0024987825 	0.90609692 	0.31209556
0.4995 	0.002495326 	0.90963674 	0.31058205
0.5005 	0.002492334 	0.91258655 	0.30931024
0.5015 	0.0024899119 	0.91502049 	0.30826248
0.5025 	0.0024879014 	0.91694533 	0.30741273
0.5035 	0.0024863641 	0.9185455 	0.30671595
0.5045 	0.0024849487 	0.91993565 	0.30611754
0.5055 	0.002483829 	0.92127913 	0.30557818
0.5065 	0.0024827234 	0.92250348 	0.30508521
0.5075 	0.0024818389 	0.9236348 	0.30465116
0.5085 	0.0024811209 	0.92449581 	0.30428336
0.5095 	0.002480414 	0.92534573 	0.30397457
0.5105 	0.0024800068 	0.92593932 	0.30372756
0.5115 	0.0024795561 	0.926508 	0.30353902
0.5125 	0.002479394 	0.92681627 	0.30342825
0.5135 	0.0024794476 	0.92684728 	0.30339951
0.5145 	0.002479509 	0.92684988 	0.30340441
0.5155 	0.0024796664 	0.92681491 	0.30342531
0.5165 	0.0024798163 	0.92675624 	0.30344832
0.5175 	0.0024800229 	0.92662322 	0.30351444
0.5185 	0.0024803285 	0.92641057 	0.30358869
0.5195 	0.0024802775 	0.92621132 	0.30369119
0.5205 	0.0024807842 	0.92590999 	0.30379115
0.5215 	0.002481122 	0.92573187 	0.30387748
0.5225 	0.0024813925 	0.92555097 	0.30394902
0.5235 	0.0024817631 	0.92539485 	0.30401139
0.5245 	0.0024817971 	0.92529249 	0.30405708
0.5255 	0.002482119 	0.9251848 	0.30409545
0.5265 	0.0024821429 	0.92514504 	0.30413244
0.5275 	0.0024825056 	0.92503605 	0.30416154
0.5285 	0.0024824061 	0.9249758 	0.30419958
0.5295 	0.0024829717 	0.92487104 	0.30424607
0.5305 	0.0024829047 	0.92480741 	0.30427114
0.5315 	0.0024833367 	0.92477195 	0.30429122
0.5325 	0.002483376 	0.92475021 	0.30430072
0.5335 	0.0024836627 	0.92474446 	0.30429608
0.5345 	0.0024835863 	0.92473058 	0.30430162
0.5355 	0.0024841234 	0.92466689 	0.30432803
0.5365 	0.0024841219 	0.92464599 	0.30434327
0.5375 	0.0024845132 	0.92459863 	0.30436008
0.5385 	0.0024845017 	0.92455818 	0.30436907
0.5395 	0.0024848659 	0.92454052 	0.30437982
0.5405 	0.0024849566 	0.9245201 	0.30438457
0.5415 	0.0024852744 	0.92451419 	0.30438823
0.5425 	0.0024855264 	0.92451885 	0.30438486
0.5435 	0.0024855418 	0.92448997 	0.30438895
0.5445 	0.0024860541 	0.92448865 	0.30439096
0.5455 	0.0024860001 	0.92451428 	0.30437668
0.5465 	0.0024865677 	0.92451891 	0.30436549
0.5475 	0.0024864326 	0.9246874 	0.30432513
0.5485 	0.0024869526 	0.92476524 	0.30425013
0.5495 	0.0024865762 	0.92500648 	0.30417681
0.5505 	0.002486895 	0.92509177 	0.30411219
0.5515 	0.0024868674 	0.92524675 	0.30405827
0.5525 	0.0024872475 	0.92532686 	0.30401946
0.5535 	0.0024872848 	0.92542361 	0.30398565
0.5545 	0.0024875985 	0.92548585 	0.30395579
0.5555 	0.0024878346 	0.9255706 	0.30392995
0.5565 	0.0024880258 	0.92561766 	0.30390687
0.5575 	0.0024883711 	0.92567513 	0.30388976
0.5585 	0.0024886564 	0.92568916 	0.30388023
0.5595 	0.0024890684 	0.92568702 	0.30387768
0.5605 	0.0024895085 	0.92568594 	0.30387587
0.5615 	0.0024900143 	0.92568644 	0.30387333
0.5625 	0.0024906147 	0.92568731 	0.30387035
0.5635 	0.0024913517 	0.92568733 	0.30386756
0.5645 	0.0024921533 	0.92568538 	0.30386608
0.5655 	0.002493236 	0.92568545 	0.30386426
0.5665 	0.0024943589 	0.92568528 	0.3038615
0.5675 	0.0024960225 	0.92568663 	0.30385936
0.5685 	0.0024977794 	0.9256866 	0.30385634
0.5695 	0.0025003587 	0.92568528 	0.30385332
0.5705 	0.0025032951 	0.92568502 	0.3038518
0.5715 	0.0025073013 	0.92567256 	0.30385298
0.5725 	0.0025121597 	0.92566365 	0.30385365
0.5735 	0.0025183909 	0.92565065 	0.30385598
0.5745 	0.0025260031 	0.92563364 	0.30385866
0.5755 	0.0025354733 	0.92563023 	0.30386256
0.5765 	0.0025469422 	0.92560237 	0.3038656
0.5775 	0.0025608249 	0.92558626 	0.30386517
0.5785 	0.0025773151 	0.92558102 	0.3038623
0.5795 	0.0025967993 	0.92556718 	0.30385918
0.5805 	0.0026196138 	0.92556095 	0.30385735
0.5815 	0.0026458649 	0.92553352 	0.30385642
0.5825 	0.0026760222 	0.92552234 	0.30385205
0.5835 	0.0027098957 	0.92551443 	0.30384539
0.5845 	0.0027480581 	0.92551346 	0.30383844
0.5855 	0.0027899822 	0.92553188 	0.30382393
0.5865 	0.0028361326 	0.92554215 	0.30381314
0.5875 	0.0028858227 	0.92553593 	0.30380921
0.5885 	0.0029392298 	0.92551216 	0.30381155
0.5895 	0.002995565 	0.9254981 	0.30381522
0.5905 	0.0030546872 	0.92548397 	0.30382342
0.5915 	0.0031155554 	0.92545191 	0.30383003
0.5925 	0.0031781032 	0.9254438 	0.30383296
0.5935 	0.0032408121 	0.92546047 	0.30383737
0.5945 	0.0033039966 	0.92545948 	0.3038456
0.5955 	0.003365417 	0.92545321 	0.30385182
0.5965 	0.0034262906 	0.92546942 	0.30385706
0.5975 	0.0034835064 	0.92546893 	0.30386124
0.5985 	0.0035394186 	0.92548178 	0.30386401
0.5995 	0.0035900791 	0.9254962 	0.30386568
0.6005 	0.0036390136 	0.92550577 	0.30386739
0.6015 	0.0036817737 	0.92551064 	0.30386626
0.6025 	0.0037224874 	0.92551861 	0.30386615
0.6035 	0.0037571705 	0.92551255 	0.30386623
0.6045 	0.0037892634 	0.92551154 	0.30386685
0.6055 	0.0038164099 	0.92550125 	0.30386829
0.6065 	0.0038404198 	0.9254909 	0.3038684
0.6075 	0.0038609767 	0.92547777 	0.30387021
0.6085 	0.0038781774 	0.92546059 	0.30387089
0.6095 	0.0038929502 	0.9254376 	0.30387062
0.6105 	0.0039050263 	0.92542317 	0.30386926
0.6115 	0.0039151404 	0.92541357 	0.30386678
0.6125 	0.0039232246 	0.92540004 	0.30386326
0.6135 	0.0039298945 	0.92539003 	0.30385745
0.6145 	0.0039351695 	0.92539268 	0.30385155
0.6155 	0.0039393584 	0.92539484 	0.30384298
0.6165 	0.0039426928 	0.92539319 	0.3038366
0.6175 	0.0039452177 	0.92538687 	0.30383186
0.6185 	0.0039472609 	0.92537376 	0.30382742
0.6195 	0.0039486418 	0.92536217 	0.30382537
0.6205 	0.0039498613 	0.92533494 	0.30382395
0.6215 	0.0039506022 	0.92532182 	0.3038227
0.6225 	0.003951206 	0.92530103 	0.30382017
0.6235 	0.0039515884 	0.92529295 	0.3038141
0.6245 	0.0039518125 	0.92528055 	0.30380569
0.6255 	0.0039519538 	0.9252808 	0.30379507
0.6265 	0.0039519856 	0.92528141 	0.30378348
0.6275 	0.0039520258 	0.92527479 	0.30377253
0.6285 	0.0039519514 	0.92526564 	0.30376607
0.6295 	0.0039519452 	0.92523915 	0.3037604
0.6305 	0.0039518624 	0.92522498 	0.30375596
0.6315 	0.0039517501 	0.92519033 	0.30375099
0.6325 	0.0039516215 	0.92516932 	0.30374801
0.6335 	0.0039515741 	0.92514302 	0.30374077
0.6345 	0.003951302 	0.92513574 	0.30373549
0.6355 	0.003951314 	0.92510167 	0.30372852
0.6365 	0.0039510629 	0.92508319 	0.30372331
0.6375 	0.0039510955 	0.92504168 	0.30371913
0.6385 	0.0039509083 	0.92502395 	0.30371378
0.6395 	0.0039509231 	0.92498993 	0.30370875
0.6405 	0.0039507974 	0.92496413 	0.30370367
0.6415 	0.0039507161 	0.92494274 	0.30369773
0.6425 	0.0039505532 	0.92494213 	0.30368975
0.6435 	0.0039504454 	0.92495041 	0.30368306
0.6445 	0.0039504522 	0.9249836 	0.30366907
0.6455 	0.0039502757 	0.92499667 	0.30365778
0.6465 	0.003950171 	0.92499782 	0.30365128
0.6475 	0.0039501823 	0.92498454 	0.30365532
0.6485 	0.0039501727 	0.92497894 	0.3036688
0.6495 	0.003950151 	0.92492624 	0.30367771
0.6505 	0.0039499592 	0.92489385 	0.30367446
0.6515 	0.0039498647 	0.92487897 	0.30367557
0.6525 	0.0039496289 	0.92509758 	0.3036281
0.6535 	0.0039496883 	0.92504302 	0.30355116
0.6545 	0.0039491713 	0.92491965 	0.30345996
0.6555 	0.0039492656 	0.92467987 	0.30336618
0.6565 	0.0039472561 	0.92444044 	0.30319046
0.6575 	0.0039479668 	0.92344321 	0.30295883
0.6585 	0.0039450345 	0.92290962 	0.30265312
0.6595 	0.0039457497 	0.92093694 	0.3021144
0.6605 	0.003939036 	0.92008582 	0.30135821
0.6615 	0.0039426794 	0.9162359 	0.30047803
0.6625 	0.0039315512 	0.91463478 	0.299137
0.6635 	0.0039361826 	0.90802769 	0.29770161
0.6645 	0.0039168033 	0.90425492 	0.29563964
0.6655 	0.0039196975 	0.89399229 	0.29261905
0.6665 	0.0038868973 	0.88607405 	0.28962092
0.6675 	0.0038957819 	0.86898745 	0.28459681
0.6685 	0.0038361982 	0.85620349 	0.27889119
0.6695 	0.0038324523 	0.82452756 	0.27107724
0.6705 	0.0037676261 	0.80408067 	0.26181959
0.6715 	0.0037330051 	0.75438196 	0.25041321
0.6725 	0.0036536544 	0.71474921 	0.23634537
0.6735 	0.0035728674 	0.64709112 	0.22016044
0.6745 	0.0034662013 	0.57709269 	0.20167506
0.6755 	0.0033474752 	0.48776217 	0.18204798
0.6765 	0.0032178748 	0.39181642 	0.16221483
0.6775 	0.0030921889 	0.29379284 	0.14404024
0.6785 	0.0029856657 	0.20417154 	0.12904256
0.6795 	0.0029066981 	0.13180417 	0.11794755
0.6805 	0.0028543246 	0.079941381 	0.11052695
0.6815 	0.0028222072 	0.046261304 	0.10595096
0.6825 	0.0028034724 	0.025928858 	0.10328656
0.6835 	0.0027928802 	0.014247258 	0.10179059
0.6845 	0.002787008 	0.0077397344 	0.1009683
0.6855 	0.0027837926 	0.0041786383 	0.10052156
0.6865 	0.0027820456 	0.0022487831 	0.10028037
0.6875 	0.0027811011 	0.0012082535 	0.10015056
0.6885 	0.0027805919 	0.00064867088 	0.10008081
0.6895 	0.0027803179 	0.00034811725 	0.10004336
0.6905 	0.0027801707 	0.00018678768 	0.10002327
0.6915 	0.0027800916 	0.00010021515 	0.10001248
0.6925 	0.0027800492 	5.3764932e-05 	0.1000067
0.6935 	0.0027800264 	2.884384e-05 	0.10000359
0.6945 	0.0027800142 	1.5473854e-05 	0.10000193
0.6955 	0.0027800076 	8.3011042e-06 	0.10000103
0.6965 	0.0027800041 	4.4531444e-06 	0.10000055
0.6975 	0.0027800022 	2.3888279e-06 	0.1000003
0.6985 	0.0027800012 	1.2814482e-06 	0.10000016
0.6995 	0.0027800006 	6.8740462e-07 	0.10000009
0.7005 	0.0027800003 	3.6877249e-07 	0.10000005
0.7015 	0.0027800002 	1.9781662e-07 	0.10000002
0.7025 	0.0027800001 	1.0612857e-07 	0.10000001
0.7035 	0.0027800001 	5.6907018e-08 	0.10000001
0.7045 	0.00278 	3.0530822e-08 	0.1
0.7055 	0.00278 	1.6362161e-08 	0.1
0.7065 	0.00278 	8.775146e-09 	0.1
0.7075 	0.00278 	4.6521183e-09 	0.1
0.7085 	0.00278 	2.5235309e-09 	0.1
0.7095 	0.00278 	1.3190337e-09 	0.1
0.7105 	0.00278 	7.1714996e-10 	0.1
0.7115 	0.00278 	3.3889165e-10 	0.1
0.7125 	0.00278 	1.8756574e-10 	0.1
0.7135 	0.00278 	7.8574173e-11 	0.1
0.7145 	0.00278 	2.5481803e-11 	0.1
0.7155 	0.00278 	6.9994292e-12 	0.1
0.7165 	0.00278 	1.247901e-11 	0.1
0.7175 	0.00278 	4.1408415e-11 	0.1
0.7185 	0.00278 	4.7442414e-12 	0.1
0.7195 	0.00278 	4.0464184e-11 	0.1
0.7205 	0.00278 	1.6622659e-11 	0.1
0.7215 	0.00278 	2.5161139e-11 	0.1
0.7225 	0.00278 	2.3042919e-11 	0.1
0.7235 	0.00278 	2.7545969e-11 	0.1
0.7245 	0.00278 	2.1857719e-11 	0.1
0.7255 	0.00278 	1.0317612e-11 	0.1
0.7265 	0.00278 	3.6101653e-11 	0.1
0.7275 	0.00278 	8.1525515e-13 	0.1
0.7285 	0.00278 	1.4730091e-12 	0.1
0.7295 	0.00278 	4.1200966e-11 	0.1
0.7305 	0.00278 	2.1666919e-11 	0.1
0.7315 	0.00278 	2.549046e-11 	0.1
0.7325 	0.00278 	1.2807665e-11 	0.1
0.7335 	0.00278 	1.5924281e-11 	0.1
0.7345 	0.00278 	1.1008553e-11 	0.1
0.7355 	0.00278 	3.9694991e-11 	0.1
0.7365 	0.00278 	2.012476e-11 	0.1
0.7375 	0.00278 	2.4571647e-11 	0.1
0.7385 	0.00278 	6.2012669e-13 	0.1
0.7395 	0.00278 	3.3875435e-11 	0.1
0.7405 	0.00278 	1.7536811e-11 	0.1
0.7415 	0.00278 	3.5456885e-11 	0.1
0.7425 	0.00278 	9.438868e-12 	0.1
0.7435 	0.00278 	1.5482856e-11 	0.1
0.7445 	0.00278 	1.2117833e-11 	0.1
0.7455 	0.00278 	1.2255133e-11 	0.1
0.7465 	0.00278 	3.2043691e-11 	0.1
0.7475 	0.00278 	4.9047395e-12 	0.1