/*--------------------------------*- C++ -*----------------------------------*\
| =========                 |                                                 |
| \\      /  F ield         | OpenFOAM: The Open Source CFD Toolbox           |
|  \\    /   O peration     | Version:  2112                                  |
|   \\  /    A nd           | Website:  www.openfoam.com                      |
|    \\/     M anipulation  |                                                 |
\*---------------------------------------------------------------------------*/
FoamFile
{
    version     2.0;
    format      ascii;
    arch        "LSB;label=32;scalar=64";
    class       surfaceScalarField;
    location    "2.5";
    object      phi;
}
// * * * * * * * * * * * * * * * * * * * * * * * * * * * * * * * * * * * * * //

dimensions      [0 3 -1 0 0 0 0];

oriented        oriented;

internalField   nonuniform List<scalar> 
17370
(
-0.0911621
0.0963398
0.283833
-0.0777543
0.0588847
0.365645
-0.0418407
0.0302677
0.427741
-0.0210781
0.0151619
0.505168
-0.0106188
0.00776489
0.602256
-0.00556469
0.00416684
0.720455
-0.00304604
0.00230874
0.863644
-0.00168679
0.00125747
1.03588
-0.00086745
0.000568634
1.2428
-0.000267803
-3.08047e-07
1.49146
0.000279453
-0.000581892
1.49149
0.000879698
-0.00126496
1.24308
0.00169177
-0.00231187
1.03626
0.00305136
-0.00417321
0.864028
0.00557405
-0.00777825
0.721262
0.0106348
-0.0151781
0.603758
0.0210928
-0.0302806
0.508627
0.0418533
-0.0589001
0.433215
0.0777717
-0.09635
0.365354
0.091167
0.197844
-0.133587
0.104361
0.0292258
-0.363815
0.357083
-0.0497399
0.0564717
-0.444198
0.446225
-0.0564082
0.0543811
-0.519428
0.523142
-0.0515978
0.047884
-0.611739
0.61696
-0.043627
0.0384052
-0.726437
0.731819
-0.0333447
0.0279626
-0.867394
0.871856
-0.023367
0.0189044
-1.03868
1.04207
-0.0153116
0.0119269
-1.24508
1.24773
-0.00917565
0.00652369
-1.49338
1.49571
-0.00428804
0.00196397
-1.49327
1.49544
0.000211083
-0.00238036
-1.24454
1.24674
0.00469603
-0.00689741
-1.03785
1.04056
0.00950741
-0.0122263
-0.866216
0.869778
0.015579
-0.0191418
-0.724264
0.728826
0.0235687
-0.0281306
-0.608217
0.61326
0.0334864
-0.0385294
-0.513887
0.518134
0.0437455
-0.0479926
-0.438222
0.440994
0.0517018
-0.0544737
-0.372449
0.372493
0.0564837
-0.0565274
-0.261173
0.240637
0.0497783
-0.0292423
-0.0931047
0.0902844
0.00282032
-0.0169544
0.0226459
-0.369445
0.363753
-0.0272115
0.0297966
-0.441026
0.438441
-0.0308324
0.0307538
-0.519424
0.519502
-0.0297849
0.028355
-0.61561
0.617039
-0.0261833
0.0238354
-0.731763
0.734111
-0.0209267
0.0181709
-0.87289
0.875646
-0.0150849
0.0122581
-1.0436
1.04642
-0.00906761
0.00606953
-1.24961
1.2526
-0.00264426
-0.000608475
-1.49844
1.50169
0.00386717
-0.00722798
-1.49879
1.50215
0.0102009
-0.0133838
-1.25073
1.25392
0.0161563
-0.019151
-1.04529
1.04828
0.0218116
-0.0246265
-0.875026
0.87784
0.0269165
-0.0289994
-0.734617
0.7367
0.0303484
-0.0312329
-0.618933
0.619817
0.0312421
-0.0301479
-0.523852
0.522758
0.0275077
-0.0228774
-0.44478
0.44015
0.0171206
-0.0097105
-0.349441
0.34203
0.00285433
-0.0930504
0.090196
-0.090576
0.0906994
-0.000123432
-0.00309876
0.00599606
-0.358911
0.356013
-0.00931488
0.0120326
-0.434847
0.432129
-0.0145104
0.0162074
-0.518172
0.516475
-0.0174419
0.0180109
-0.617557
0.616988
-0.0180358
0.0174769
-0.735748
0.736307
-0.0163003
0.0147568
-0.877863
0.879407
-0.0126723
0.0104978
-1.04896
1.05114
-0.00789753
0.00533625
-1.25536
1.25792
-0.0022288
-0.000846306
-1.50483
1.5079
0.00387122
-0.00691778
-1.50529
1.50834
0.00949166
-0.0120762
-1.25676
1.25935
0.0141319
-0.0160898
-1.05081
1.05277
0.0175295
-0.0185969
-0.879909
0.880977
0.0190575
-0.0189279
-0.737938
0.737808
0.0182598
-0.0168817
-0.619361
0.617983
0.0150608
-0.012461
-0.519947
0.517347
0.0096477
-0.00623212
-0.435134
0.431718
0.00325622
-0.000807373
-0.337356
0.334907
-9.92304e-05
-0.0904709
0.0905701
-0.0904462
0.090234
0.000212279
-0.00174401
0.00293424
-0.354263
0.353073
-0.0043759
0.00570498
-0.430261
0.428932
-0.00707681
0.00821187
-0.51502
0.513885
-0.00924507
0.0099344
-0.616236
0.615547
-0.0103486
0.010408
-0.73641
0.736351
-0.01009
0.00946214
-0.880372
0.880999
-0.00838758
0.00708355
-1.05282
1.05412
-0.0053264
0.00346314
-1.26015
1.26201
-0.00119783
-0.00108332
-1.51065
1.51293
0.00334696
-0.00554246
-1.51101
1.5132
0.00727545
-0.0088871
-1.26148
1.26309
0.010088
-0.0110025
-1.05407
1.05499
0.0114751
-0.0116239
-0.881422
0.881571
0.0114123
-0.0108359
-0.737308
0.736732
0.0100108
-0.00886166
-0.616631
0.615482
0.00763026
-0.00616087
-0.515395
0.513926
0.00475143
-0.00322726
-0.429545
0.42802
0.00195706
-0.000866665
-0.333379
0.332289
0.000251441
-0.0902748
0.0900233
-0.0901037
0.0900006
0.000103149
-0.000884413
0.0014401
-0.352257
0.351701
-0.00211378
0.00275479
-0.428
0.427359
-0.00346108
0.00408201
-0.51303
0.512409
-0.00470067
0.00515824
-0.614971
0.614514
-0.00551271
0.00567271
-0.736214
0.736054
-0.00563437
0.00537876
-0.881402
0.881657
-0.00483304
0.00408665
-1.05511
1.05585
-0.00299275
0.00175851
-1.26354
1.26478
-0.000225469
-0.0013194
-1.5148
1.51635
0.00284021
-0.00427827
-1.51499
1.51643
0.00534134
-0.00620524
-1.26428
1.26514
0.00678068
-0.00714139
-1.05558
1.05594
0.00722025
-0.00706281
-0.881527
0.88137
0.00672501
-0.00618196
-0.73615
0.735607
0.00556275
-0.004793
-0.61453
0.61376
0.00404472
-0.00320694
-0.512812
0.511974
0.00245298
-0.00166501
-0.426927
0.426139
0.00101914
-0.000449947
-0.331507
0.330938
0.000121609
-0.0898726
0.089751
-0.0899213
0.0898708
5.05073e-05
-0.000434671
0.000706866
-0.351313
0.351041
-0.00103442
0.0013478
-0.426913
0.4266
-0.00169691
0.00201018
-0.511966
0.511653
-0.00233097
0.00258265
-0.614166
0.613915
-0.00279115
0.00289822
-0.735911
0.735804
-0.0028963
0.00276222
-0.881831
0.881965
-0.00244601
0.00198946
-1.05643
1.05689
-0.00129755
0.000497538
-1.26577
1.26657
0.000523593
-0.00157103
-1.51763
1.51867
0.00258226
-0.00349016
-1.51758
1.51848
0.00411376
-0.00456618
-1.26577
1.26622
0.00480665
-0.00489029
-1.05614
1.05622
0.00481126
-0.00458233
-0.881161
0.880932
0.00427134
-0.00384888
-0.735125
0.734702
0.00341331
-0.00290688
-0.613141
0.612635
0.0024367
-0.00192834
-0.511332
0.510824
0.00148109
-0.00102028
-0.425549
0.425088
0.000641294
-0.000298727
-0.330504
0.330162
8.83283e-05
-0.0896434
0.0895551
-0.0898415
0.0898277
1.38478e-05
-0.000162184
0.000278889
-0.350857
0.35074
-0.000422586
0.000560677
-0.426385
0.426247
-0.000713908
0.000849612
-0.511438
0.511303
-0.000985948
0.00108905
-0.613743
0.61364
-0.00116573
0.00118868
-0.735739
0.735716
-0.00114505
0.00102658
-0.882083
0.882202
-0.000794105
0.000476389
-1.05726
1.05758
-5.9165e-06
-0.000532552
-1.26722
1.26776
0.00122265
-0.00191259
-1.51952
1.52021
0.00255421
-0.00309829
-1.51919
1.51974
0.00343951
-0.00364812
-1.26654
1.26675
0.00371146
-0.00365785
-1.05623
1.05617
0.00351349
-0.00327507
-0.880696
0.880457
0.0030038
-0.00266852
-0.734329
0.733994
0.00234355
-0.00198115
-0.612212
0.611849
0.0016543
-0.00130786
-0.51041
0.510063
0.00100726
-0.000700177
-0.424718
0.424411
0.000447262
-0.000214345
-0.329883
0.32965
6.56231e-05
-0.0894805
0.0894149
-0.0898262
0.0898351
-8.91032e-06
4.21629e-06
1.72904e-05
-0.350676
0.350655
-4.7548e-05
7.50506e-05
-0.426169
0.426141
-0.000101932
0.000120681
-0.511231
0.511212
-0.000130366
0.000123991
-0.613596
0.613602
-9.34477e-05
3.62553e-05
-0.735734
0.735791
6.79571e-05
-0.000210554
-0.882329
0.882472
0.000428994
-0.000691537
-1.05786
1.05812
0.00105104
-0.0014401
-1.26821
1.2686
0.00191696
-0.00236956
-1.52077
1.52123
0.00276241
-0.00306209
-1.52015
1.52045
0.00321853
-0.00326114
-1.26686
1.26691
0.00321054
-0.00307371
-1.05608
1.05594
0.00289137
-0.00264685
-0.880217
0.879972
0.00239671
-0.0021072
-0.733687
0.733397
0.00183802
-0.00154673
-0.611529
0.611238
0.00128899
-0.00101984
-0.509763
0.509494
0.000788926
-0.000554363
-0.424147
0.423913
0.000360081
-0.000177341
-0.329448
0.329265
5.61483e-05
-0.0893555
0.0892993
-0.0898542
0.0898821
-2.78482e-05
0.000118335
-0.000161423
-0.350668
0.350711
0.000214104
-0.000267392
-0.426158
0.426212
0.000333235
-0.000402089
-0.51124
0.511309
0.000489431
-0.000582917
-0.613654
0.613748
0.000704163
-0.000836136
-0.735887
0.736019
0.00100871
-0.0011959
-0.882635
0.882822
0.00143735
-0.00169218
-1.05838
1.05863
0.00200713
-0.00231903
-1.26894
1.26925
0.00267013
-0.00297084
-1.52159
1.52189
0.00319611
-0.00332187
-1.52065
1.52078
0.0033328
-0.00327249
-1.2669
1.26684
0.00313965
-0.00293778
-1.05577
1.05557
0.00271781
-0.00245208
-0.879719
0.879454
0.00219819
-0.00191674
-0.733116
0.732834
0.00166354
-0.00139526
-0.610963
0.610695
0.00116204
-0.000921416
-0.509244
0.509004
0.000716506
-0.000508757
-0.423696
0.423488
0.000335411
-0.000169011
-0.329094
0.328927
5.49999e-05
-0.0892447
0.0891897
-0.089918
0.089963
-4.50039e-05
0.000230833
-0.000330721
-0.350784
0.350884
0.000447953
-0.000564875
-0.426296
0.426413
0.000705371
-0.000846215
-0.511414
0.511555
0.00101593
-0.00118662
-0.61388
0.614051
0.00139217
-0.00159818
-0.736187
0.736393
0.00184517
-0.00209041
-0.883037
0.883282
0.00237977
-0.0026591
-1.0589
1.05917
0.00297462
-0.00325871
-1.26955
1.26983
0.00354464
-0.00375262
-1.52214
1.52235
0.00386669
-0.00387344
-1.52084
1.52084
0.00378995
-0.00361526
-1.26672
1.26654
0.00340614
-0.00313759
-1.05533
1.05506
0.00286954
-0.00256389
-0.879171
0.878865
0.00228254
-0.00197955
-0.732545
0.732242
0.00171212
-0.00143309
-0.610425
0.610146
0.00119303
-0.000947252
-0.508764
0.508518
0.000739028
-0.000528346
-0.423282
0.423071
0.000352091
-0.000180503
-0.328761
0.328589
5.99403e-05
-0.089133
0.089073
-0.0900168
0.09008
-6.31843e-05
0.00033571
-0.000488659
-0.35101
0.351163
0.000669984
-0.000850271
-0.426562
0.426742
0.0010653
-0.00127852
-0.511732
0.511945
0.00153171
-0.00178119
-0.61426
0.61451
0.00207496
-0.00236153
-0.736638
0.736925
0.00269416
-0.00301217
-0.883562
0.88388
0.00337099
-0.00370039
-1.05948
1.05981
0.00405023
-0.00434219
-1.27011
1.27041
0.00460514
-0.00476017
-1.52253
1.52268
0.00479614
-0.00470556
-1.5208
1.52071
0.00453068
-0.00426307
-1.26632
1.26605
0.00397261
-0.00362332
-1.05476
1.05441
0.00329046
-0.00292218
-0.878531
0.878163
0.00259087
-0.0022396
-0.731918
0.731567
0.00193347
-0.00161702
-0.609851
0.609535
0.00134671
-0.00107125
-0.50826
0.507985
0.000838343
-0.000602857
-0.422851
0.422615
0.000404976
-0.000210101
-0.328408
0.328213
7.06477e-05
-0.0890083
0.0889376
-0.0901532
0.0902373
-8.40949e-05
0.00045465
-0.000665926
-0.351344
0.351555
0.000916865
-0.00116585
-0.426956
0.427205
0.00146187
-0.00175428
-0.512196
0.512489
0.00209958
-0.00243797
-0.614802
0.61514
0.00283273
-0.00321357
-0.737256
0.737637
0.00364942
-0.00405892
-0.884241
0.88465
0.00451113
-0.00491487
-1.06017
1.06057
0.00532873
-0.00565675
-1.27071
1.27104
0.0059279
-0.00605484
-1.52282
1.52295
0.00603089
-0.00585234
-1.52058
1.5204
0.00558648
-0.00521679
-1.26574
1.26537
0.00483323
-0.00438552
-1.05401
1.05356
0.00396719
-0.00351139
-0.877754
0.877298
0.00310607
-0.00267993
-0.731182
0.730756
0.00231098
-0.00193136
-0.60919
0.60881
0.00160804
-0.00127924
-0.507685
0.507357
0.00100193
-0.000721974
-0.42236
0.42208
0.000486589
-0.000253668
-0.328001
0.327768
8.57112e-05
-0.0888602
0.0887745
-0.0903339
0.0904443
-0.000110377
0.000599159
-0.000878808
-0.351799
0.352079
0.00121115
-0.00154096
-0.427492
0.427822
0.00193265
-0.0023189
-0.512826
0.513212
0.00277402
-0.00321844
-0.615529
0.615973
0.00373497
-0.00423058
-0.738072
0.738568
0.00479405
-0.0053189
-0.885114
0.885639
0.00589204
-0.00639653
-1.06102
1.06153
0.0069031
-0.0072928
-1.2714
1.27179
0.00759628
-0.00771203
-1.52307
1.52318
0.00763538
-0.00736698
-1.52017
1.51991
0.00700065
-0.00651009
-1.26494
1.26445
0.00601276
-0.0054402
-1.05306
1.05248
0.00491122
-0.00433928
-0.876788
0.876216
0.00383361
-0.00330451
-0.730282
0.729753
0.00284808
-0.00237947
-0.60839
0.607921
0.00198127
-0.00157691
-0.506993
0.506589
0.0012363
-0.000892417
-0.42177
0.421426
0.000602811
-0.000315348
-0.32751
0.327222
0.000107021
-0.0886788
0.0885718
-0.09057
0.0907133
-0.000143281
0.0007789
-0.00114345
-0.352398
0.352763
0.00157662
-0.002006
-0.428199
0.428628
0.00251554
-0.00301761
-0.513653
0.514155
0.00360848
-0.00418459
-0.61648
0.617056
0.00485275
-0.00549209
-0.739131
0.739771
0.00621637
-0.0068877
-0.886233
0.886904
0.0076164
-0.00825216
-1.06209
1.06273
0.00888311
-0.00935938
-1.27222
1.27269
0.0097166
-0.00983145
-1.5233
1.52341
0.00970166
-0.00933068
-1.51959
1.51922
0.00884448
-0.00820588
-1.26389
1.26325
0.00756541
-0.0068345
-1.05184
1.05111
0.00616256
-0.00543958
-0.875574
0.874851
0.00480211
-0.00413713
-0.72916
0.728495
0.00356408
-0.00297707
-0.607397
0.60681
0.00247849
-0.0019731
-0.506137
0.505632
0.00154748
-0.0011178
-0.421043
0.420613
0.000755545
-0.000395385
-0.326901
0.326541
0.000134091
-0.088452
0.0883179
-0.0908764
0.0910621
-0.000185666
0.00100807
-0.00147965
-0.353178
0.353649
0.00204006
-0.00259563
-0.429117
0.429672
0.00325456
-0.0039032
-0.514726
0.515374
0.00466595
-0.00540873
-0.61771
0.618453
0.00626874
-0.00709016
-0.740495
0.741317
0.00801813
-0.00887585
-0.887663
0.88852
0.00980272
-0.0106072
-1.06344
1.06425
0.0113991
-0.0119892
-1.27322
1.27381
0.0124196
-0.012539
-1.52353
1.52365
0.0123471
-0.0118506
-1.51879
1.51829
0.0112156
-0.0103906
-1.26252
1.2617
0.00956962
-0.00863648
-1.05028
1.04935
0.00778226
-0.00686497
-0.874037
0.873119
0.00605837
-0.00521763
-0.727748
0.726907
0.00449443
-0.00375375
-0.606151
0.605411
0.00312541
-0.00248818
-0.505065
0.504428
0.00195141
-0.00140946
-0.420131
0.419589
0.000952773
-0.000498784
-0.326137
0.325683
0.000169254
-0.0881673
0.087998
-0.0912736
0.0915146
-0.000240999
0.00130434
-0.00191344
-0.354185
0.354794
0.00263699
-0.00335409
-0.430303
0.43102
0.00420423
-0.00504074
-0.516111
0.516947
0.00602342
-0.0069793
-0.619296
0.620252
0.00808465
-0.00913839
-0.742247
0.743301
0.0103266
-0.0114216
-0.88949
0.890585
0.0126007
-0.013619
-1.06515
1.06617
0.0146145
-0.0153482
-1.27447
1.2752
0.0158706
-0.0159949
-1.52377
1.5239
0.0157236
-0.0150683
-1.51772
1.51707
0.014244
-0.0131825
-1.26076
1.2597
0.012131
-0.0109404
-1.04829
1.0471
0.00985285
-0.00868731
-0.872086
0.87092
0.0076636
-0.00659782
-0.725961
0.724895
0.00568173
-0.00474445
-0.604577
0.60364
0.00394961
-0.00314385
-0.503711
0.502905
0.00246546
-0.0017807
-0.41898
0.418295
0.00120372
-0.000629929
-0.325173
0.324599
0.000213524
-0.0878079
0.0875944
-0.0917894
0.0921034
-0.000313974
0.00169148
-0.00247888
-0.355487
0.356274
0.00341384
-0.00434007
-0.431835
0.432762
0.00543744
-0.0065164
-0.517897
0.518976
0.00778286
-0.00901336
-0.621336
0.622566
0.010434
-0.0117859
-0.744494
0.745846
0.0133062
-0.014703
-0.891821
0.893218
0.0162011
-0.0174882
-1.06732
1.0686
0.0187373
-0.0196473
-1.27602
1.27693
0.0202785
-0.0204015
-1.52402
1.52414
0.020023
-0.0191603
-1.51631
1.51545
0.0180926
-0.0167282
-1.2585
1.25713
0.0153833
-0.0138655
-1.04576
1.04424
0.0124819
-0.0110016
-0.869606
0.868126
0.00970265
-0.00835162
-0.723695
0.722344
0.00719081
-0.00600353
-0.602585
0.601398
0.00499681
-0.00397666
-0.501999
0.500979
0.00311814
-0.00225188
-0.417525
0.416659
0.00152194
-0.000796196
-0.323954
0.323228
0.000269743
-0.0873546
0.0870848
-0.0924624
0.0928738
-0.00041135
0.00220203
-0.00322285
-0.35717
0.358191
0.00443444
-0.00563391
-0.433815
0.435015
0.00705389
-0.00844854
-0.520203
0.521597
0.0100833
-0.0116691
-0.623963
0.625549
0.0134963
-0.0152307
-0.747377
0.749112
0.0171752
-0.0189548
-0.894795
0.896575
0.0208541
-0.0224755
-1.07005
1.07167
0.0240349
-0.0251546
-1.27794
1.27906
0.0259065
-0.0260115
-1.52426
1.52437
0.0254833
-0.024348
-1.51446
1.51333
0.0229661
-0.0212147
-1.25559
1.25383
0.0194965
-0.017563
-1.04253
1.04059
0.0158044
-0.0139254
-0.866458
0.864579
0.0122782
-0.0105662
-0.720823
0.719111
0.00909582
-0.00759232
-0.600062
0.598558
0.00631795
-0.00502693
-0.499831
0.49854
0.00394055
-0.00284434
-0.415684
0.414588
0.00192086
-0.00100345
-0.322412
0.321494
0.000339162
-0.0867821
0.086443
-0.0933464
0.0938902
-0.00054385
0.00288597
-0.00421567
-0.359355
0.360685
0.00579237
-0.00735161
-0.436381
0.43794
0.00919554
-0.0110042
-0.523185
0.524993
0.0131207
-0.0151693
-0.627351
0.629399
0.0175233
-0.0197499
-0.751077
0.753303
0.0222356
-0.0244981
-0.898582
0.900844
0.0268969
-0.028927
-1.07349
1.07552
0.0308563
-0.0322157
-1.2803
1.28166
0.0330885
-0.0331419
-1.52445
1.5245
0.0324013
-0.0309042
-1.51202
1.51052
0.0291169
-0.0268721
-1.25185
1.24961
0.0246815
-0.0222238
-1.03841
1.03596
0.0199925
-0.017611
-0.862463
0.860082
0.0155254
-0.0133586
-0.717185
0.715018
0.0114986
-0.00959718
-0.596867
0.594966
0.00798584
-0.00635333
-0.497088
0.495456
0.00497948
-0.00359315
-0.413355
0.411969
0.00242553
-0.0012661
-0.320463
0.319304
0.00042743
-0.086062
0.0856346
-0.0945185
0.0952468
-0.000728369
0.00381831
-0.0055627
-0.362206
0.363951
0.00762882
-0.00966908
-0.439722
0.441763
0.0120778
-0.0144354
-0.527057
0.529415
0.0171868
-0.0198409
-0.63173
0.634384
0.0228781
-0.0257365
-0.755826
0.758685
0.0289079
-0.0317734
-0.903392
0.906258
0.0347824
-0.0372992
-1.07778
1.0803
0.0396517
-0.0412663
-1.28314
1.28476
0.0422361
-0.042177
-1.52451
1.52445
0.041132
-0.0391557
-1.50881
1.50683
0.0368469
-0.033977
-1.24707
1.2442
0.0311924
-0.0280784
-1.03319
1.03007
0.0252566
-0.022248
-0.857404
0.854395
0.0196138
-0.016877
-0.712582
0.709845
0.0145275
-0.0121252
-0.592828
0.590426
0.0100891
-0.00802602
-0.49362
0.491557
0.00628961
-0.00453736
-0.41041
0.408658
0.00306142
-0.00159641
-0.318
0.316535
0.000537977
-0.0851551
0.0846171
-0.0960963
0.0970901
-0.000993878
0.00512665
-0.00744093
-0.365954
0.368269
0.0101757
-0.0128691
-0.444103
0.446797
0.0160393
-0.019132
-0.532113
0.535206
0.0227265
-0.0261772
-0.63741
0.64086
0.0301018
-0.0337679
-0.761923
0.765589
0.0377983
-0.0413992
-0.909474
0.913075
0.0451303
-0.0481985
-1.08308
1.08615
0.0510002
-0.0528507
-1.2865
1.28835
0.0538485
-0.0535711
-1.5243
1.52402
0.0520898
-0.0494817
-1.50456
1.50195
0.0465095
-0.0428597
-1.24096
1.23731
0.0393393
-0.0354152
-1.02658
1.02265
0.0318633
-0.0280773
-0.851018
0.847232
0.0247615
-0.0213148
-0.706772
0.703326
0.0183536
-0.0153237
-0.587728
0.584698
0.0127535
-0.010147
-0.489238
0.486632
0.00795198
-0.00573561
-0.406688
0.404472
0.00386826
-0.00201524
-0.314889
0.313036
0.000678104
-0.0840135
0.0833354
-0.098268
0.0996667
-0.00139862
0.00705601
-0.0101848
-0.370938
0.374067
0.0138606
-0.01746
-0.449904
0.453504
0.0216736
-0.0257621
-0.538765
0.542854
0.0304836
-0.0349814
-0.644805
0.649303
0.0400482
-0.0447272
-0.769736
0.774415
0.0497999
-0.0542593
-0.917092
0.921552
0.0587889
-0.0624244
-1.08951
1.09314
0.0656327
-0.0676302
-1.29029
1.29229
0.0685093
-0.0678425
-1.52358
1.52291
0.0657407
-0.0623084
-1.49896
1.49552
0.0585071
-0.0539022
-1.2332
1.2286
0.0494922
-0.0445906
-1.01826
1.01336
0.0401571
-0.0354268
-0.842995
0.838264
0.0312768
-0.0269538
-0.699462
0.695139
0.0232317
-0.0194154
-0.581295
0.577478
0.0161722
-0.0128781
-0.483702
0.480408
0.0100991
-0.0072885
-0.40198
0.399169
0.00491667
-0.00256123
-0.310952
0.308596
0.000861665
-0.0825718
0.0817101
-0.101358
0.10346
-0.00210225
0.010218
-0.0145803
-0.377674
0.382036
0.019617
-0.0244848
-0.457709
0.462577
0.0301271
-0.0355563
-0.547615
0.553045
0.0417646
-0.0476097
-0.654464
0.660309
0.0540979
-0.0599836
-0.779683
0.785569
0.0662316
-0.0715943
-0.926464
0.931826
0.0768875
-0.0809897
-1.09703
1.10113
0.0844275
-0.086364
-1.29429
1.29622
0.0868575
-0.0855382
-1.52196
1.52064
0.0825662
-0.0780774
-1.4916
1.48711
0.073265
-0.0675293
-1.22345
1.21771
0.0620808
-0.0560448
-1.00791
1.00187
0.0505859
-0.0447499
-0.832995
0.827159
0.039613
-0.0342399
-0.690303
0.684929
0.0295935
-0.0248082
-0.573188
0.568403
0.0207235
-0.0165557
-0.476695
0.472527
0.0130221
-0.00942885
-0.396007
0.392414
0.00637724
-0.00332959
-0.30595
0.302903
0.0011233
-0.0807339
0.0796106
-0.105971
0.10964
-0.00366927
0.0163869
-0.0226568
-0.387058
0.393328
0.0296039
-0.0361647
-0.468496
0.475057
0.0436666
-0.0508159
-0.559544
0.566693
0.0588777
-0.0663294
-0.667038
0.67449
0.0744187
-0.0815649
-0.792096
0.799242
0.0889199
-0.0950221
-0.937577
0.94368
0.100806
-0.105059
-1.10535
1.10961
0.108332
-0.109824
-1.29799
1.29948
0.10951
-0.107168
-1.51885
1.51651
0.103008
-0.0972009
-1.48199
1.47618
0.0911955
-0.084177
-1.21135
1.20433
0.0775813
-0.0703086
-0.995218
0.987945
0.0637389
-0.0567024
-0.820709
0.813672
0.050485
-0.0439448
-0.678933
0.672393
0.038252
-0.0323484
-0.562991
0.557088
0.0272697
-0.022037
-0.467775
0.462543
0.0175434
-0.012901
-0.388356
0.383713
0.00886042
-0.00469161
-0.29954
0.295371
0.00160652
-0.0783475
0.076741
-0.113444
0.121359
-0.00791461
0.0309045
-0.0396085
-0.401
0.409704
0.0485634
-0.0569998
-0.483849
0.492285
0.0666258
-0.0757072
-0.575531
0.584613
0.0857466
-0.0947504
-0.682896
0.691899
0.104187
-0.112213
-0.8068
0.814827
0.120134
-0.126397
-0.949849
0.956112
0.132006
-0.135778
-1.11363
1.1174
0.138222
-0.138672
-1.30048
1.30093
0.136972
-0.133127
-1.51344
1.5096
0.127409
-0.120019
-1.46959
1.4622
0.112656
-0.104269
-1.19661
1.18823
0.0964945
-0.0879986
-0.980029
0.971533
0.0803576
-0.0721909
-0.805979
0.797813
0.0649715
-0.057356
-0.665113
0.657498
0.0506983
-0.0437613
-0.550306
0.543368
0.0377449
-0.0314638
-0.456363
0.450082
0.0259553
-0.0200388
-0.378308
0.372392
0.014386
-0.00777856
-0.29106
0.284452
0.00263769
-0.0751372
0.0724995
-0.129901
0.132078
-0.00217716
0.0178321
-0.0262307
-0.422806
0.431205
0.0356386
-0.0450726
-0.504778
0.514212
0.0560509
-0.0669124
-0.595299
0.60616
0.0785699
-0.0889066
-0.701045
0.711382
0.100313
-0.110361
-0.822422
0.83247
0.120735
-0.129592
-0.961706
0.970563
0.138339
-0.145306
-1.12032
1.12728
0.151434
-0.155406
-1.30038
1.30435
0.157413
-0.156657
-1.50465
1.50389
0.153018
-0.1469
-1.45381
1.44769
0.139778
-0.130735
-1.17907
1.17003
0.121895
-0.111275
-0.9624
0.95178
0.101448
-0.0905185
-0.789013
0.778084
0.0806161
-0.0699527
-0.649078
0.638415
0.0602494
-0.0502409
-0.535267
0.525259
0.0417907
-0.0327504
-0.442283
0.433242
0.0249866
-0.0168354
-0.365126
0.356974
0.00950659
-0.00313363
-0.2784
0.272027
-3.3328e-05
-0.069872
0.0699053
-0.139966
0.134547
0.00541865
-0.00261194
-0.00369595
-0.444169
0.450477
0.0121135
-0.0203362
-0.525997
0.53422
0.0303237
-0.0395583
-0.616824
0.626058
0.049893
-0.0592814
-0.721719
0.731108
0.0692841
-0.078322
-0.842141
0.851179
0.087697
-0.0954492
-0.979269
0.987021
0.103324
-0.109284
-1.13427
1.14023
0.114506
-0.117609
-1.30828
1.31139
0.11862
-0.117167
-1.50265
1.5012
0.113046
-0.106722
-1.44116
1.43484
0.099455
-0.090607
-1.16092
1.15207
0.0821885
-0.0726634
-0.941363
0.931838
0.0638301
-0.0540813
-0.767184
0.757435
0.0454197
-0.0365392
-0.62716
0.61828
0.0290293
-0.0213847
-0.514023
0.506379
0.0150932
-0.00914017
-0.421779
0.415826
0.00453177
-0.000257499
-0.345898
0.341624
-0.00253814
0.00370583
-0.262603
0.261435
-0.00253587
-0.066512
0.0690479
-0.137876
0.134203
0.00367319
-0.0042574
0.000414848
-0.460294
0.464137
0.00526302
-0.0115728
-0.543587
0.549897
0.0192418
-0.0267118
-0.635148
0.642618
0.0351723
-0.0429865
-0.739951
0.747766
0.0516002
-0.0592881
-0.859538
0.867226
0.0671081
-0.0739343
-0.994608
1.00143
0.080719
-0.0859622
-1.14587
1.15112
0.0901901
-0.0925004
-1.31403
1.31634
0.0931165
-0.0913486
-1.49938
1.49761
0.0872001
-0.0811904
-1.42835
1.42234
0.0745767
-0.0669044
-1.14365
1.13598
0.0594653
-0.0514478
-0.922683
0.914666
0.044196
-0.0363791
-0.748729
0.740912
0.0297669
-0.0230128
-0.609923
0.603169
0.0174932
-0.011847
-0.498347
0.492701
0.00753833
-0.00368152
-0.408068
0.404211
0.000900742
0.00139685
-0.334178
0.33188
-0.00283769
0.00312841
-0.254637
0.254346
-0.00189097
-0.0662895
0.0681804
-0.137842
0.134992
0.00284955
-0.0038165
0.00114737
-0.471906
0.474575
0.0031497
-0.00833984
-0.55689
0.56208
0.0147927
-0.0208596
-0.649646
0.655713
0.0279168
-0.0344851
-0.755219
0.761787
0.0417145
-0.0482322
-0.874425
0.880943
0.0552682
-0.061073
-1.00786
1.01366
0.0670618
-0.0712986
-1.15605
1.16029
0.0749881
-0.076934
-1.31858
1.32053
0.0771746
-0.0751026
-1.49567
1.4936
0.0712596
-0.0658425
-1.41619
1.41077
0.0599625
-0.0529715
-1.12856
1.12157
0.0465976
-0.0398577
-0.906923
0.900183
0.0337211
-0.0274972
-0.733721
0.727497
0.0219379
-0.0164828
-0.596524
0.591069
0.011982
-0.00765346
-0.486794
0.482466
0.00436719
-0.00135034
-0.398345
0.395328
-0.000812187
0.00224294
-0.326083
0.324653
-0.00326981
0.00316542
-0.248817
0.248921
-0.00173794
-0.0656053
0.0673432
-0.138932
0.136623
0.00230976
-0.00318181
0.00112979
-0.481263
0.483315
0.00297997
-0.00741077
-0.56805
0.572481
0.0127807
-0.0182871
-0.661769
0.667276
0.024308
-0.0301753
-0.768019
0.773886
0.0365534
-0.0423347
-0.887129
0.89291
0.0485136
-0.0538099
-1.01939
1.02469
0.0590335
-0.0630488
-1.16446
1.16847
0.0663103
-0.0679575
-1.32223
1.32387
0.0679855
-0.0658689
-1.49148
1.48936
0.0621633
-0.0568986
-1.40494
1.39967
0.0514754
-0.0452676
-1.11483
1.10862
0.0395895
-0.0335214
-0.893516
0.887448
0.0282306
-0.0227762
-0.721365
0.71591
0.0181178
-0.0134367
-0.585697
0.581016
0.0096463
-0.00600366
-0.477615
0.473973
0.00307297
-0.000494004
-0.390702
0.388123
-0.00110561
0.00241083
-0.31991
0.318605
-0.00327676
0.00289177
-0.244195
0.24458
-0.00161166
-0.0650895
0.0667011
-0.140348
0.13836
0.00198792
-0.00250953
0.000336823
-0.489418
0.491591
0.00314872
-0.0073502
-0.577354
0.581555
0.0126372
-0.0175599
-0.672413
0.677336
0.023028
-0.0283821
-0.779325
0.784679
0.0343063
-0.039693
-0.898481
0.903868
0.0455695
-0.0504286
-1.0298
1.03466
0.0553397
-0.0591117
-1.17227
1.17604
0.0620873
-0.0635212
-1.3253
1.32673
0.0633338
-0.061418
-1.48714
1.48523
0.0576323
-0.0525784
-1.39404
1.38898
0.0473217
-0.0413738
-1.10232
1.09638
0.0362221
-0.0304663
-0.881411
0.875655
0.0255451
-0.0206557
-0.710518
0.705629
0.0164555
-0.0122457
-0.57646
0.57225
0.00880606
-0.00534884
-0.46988
0.466423
0.00287175
-0.000556022
-0.384226
0.381911
-0.00115363
0.0022985
-0.314475
0.31333
-0.00293735
0.00271304
-0.240375
0.2406
-0.00147623
-0.0646635
0.0661397
-0.141987
0.140473
0.00151469
-0.00150379
-0.000651444
-0.49698
0.499135
0.00428997
-0.00809236
-0.586292
0.590095
0.0131876
-0.0179143
-0.682233
0.68696
0.0234235
-0.0283891
-0.789966
0.794931
0.0339643
-0.0390681
-0.909384
0.914488
0.0449386
-0.0496263
-1.03966
1.04434
0.0542678
-0.0580129
-1.17968
1.18342
0.0612351
-0.0625409
-1.32814
1.32945
0.0623122
-0.0601566
-1.4828
1.48064
0.0564698
-0.0510386
-1.38356
1.37812
0.0458528
-0.0400554
-1.0902
1.0844
0.034856
-0.0294248
-0.869916
0.864485
0.024664
-0.0198362
-0.700525
0.695697
0.0160612
-0.012021
-0.567953
0.563913
0.00867566
-0.00555521
-0.462721
0.4596
0.00307204
-0.000703517
-0.378534
0.376166
-0.000863726
0.00197694
-0.30981
0.308697
-0.0025686
0.00247521
-0.236974
0.237067
-0.0014185
-0.064319
0.0657375
-0.144033
0.142813
0.00122031
-0.000675878
-0.00158036
-0.504084
0.50634
0.00547009
-0.0093955
-0.594812
0.598737
0.0143608
-0.0189292
-0.691714
0.696282
0.0240988
-0.0292057
-0.800131
0.805238
0.0347384
-0.040241
-0.919587
0.92509
0.0457333
-0.0505179
-1.04923
1.05402
0.0555122
-0.0591979
-1.18709
1.19078
0.0620946
-0.0637863
-1.3306
1.33229
0.0635581
-0.0613074
-1.47827
1.47602
0.0572545
-0.0517119
-1.3725
1.36696
0.0462464
-0.0401687
-1.07805
1.07197
0.0348728
-0.0293323
-0.858792
0.853252
0.0245851
-0.019953
-0.690848
0.686216
0.0159795
-0.0121224
-0.559753
0.555896
0.00898895
-0.00582531
-0.456157
0.452994
0.00332093
-0.00121273
-0.372999
0.37089
-0.000400734
0.00163911
-0.305428
0.30419
-0.00232497
0.00229888
-0.233879
0.233905
-0.00139886
-0.0641966
0.0655955
-0.146479
0.145407
0.00107243
0.000407935
-0.00296824
-0.511134
0.513695
0.00683157
-0.0108976
-0.603268
0.607334
0.0157406
-0.0204356
-0.701179
0.705874
0.025734
-0.0307512
-0.810424
0.815441
0.0367156
-0.0417868
-0.930248
0.93532
0.0475733
-0.0524526
-1.05907
1.06395
0.0576211
-0.0617065
-1.19451
1.1986
0.0650144
-0.0665154
-1.33367
1.33517
0.0664048
-0.0640634
-1.47333
1.47099
0.0598984
-0.0537402
-1.36078
1.35462
0.0478122
-0.0412241
-1.06553
1.05895
0.0355764
-0.0296967
-0.847262
0.841382
0.0248635
-0.0200199
-0.681267
0.676423
0.0160379
-0.0121615
-0.551859
0.547983
0.00897749
-0.00607357
-0.449649
0.446745
0.00357213
-0.00145991
-0.367748
0.365635
-0.000245898
0.00146429
-0.301202
0.299984
-0.00212101
0.00227045
-0.230898
0.230748
-0.00134103
-0.0642688
0.0656099
-0.148968
0.148288
0.000679806
0.00135556
-0.00443255
-0.518394
0.521471
0.00820906
-0.0123991
-0.61144
0.61563
0.0171086
-0.0219161
-0.710665
0.715472
0.0273394
-0.0327533
-0.820598
0.826012
0.0384658
-0.0439785
-0.940769
0.946282
0.0500521
-0.0550545
-1.06937
1.07438
0.0606295
-0.0649238
-1.20258
1.20687
0.0684979
-0.070555
-1.33696
1.33901
0.0707314
-0.068187
-1.46828
1.46573
0.0634352
-0.0568058
-1.34792
1.34129
0.0502757
-0.0428545
-1.05163
1.04421
0.0365062
-0.0302625
-0.83505
0.828806
0.0247846
-0.0198725
-0.671207
0.666295
0.0158121
-0.0118409
-0.544117
0.540146
0.00883292
-0.00590329
-0.443349
0.440419
0.00356413
-0.00134576
-0.362904
0.360686
-0.000201303
0.00142952
-0.297256
0.296027
-0.00223156
0.00235292
-0.228151
0.228029
-0.00142023
-0.0644996
0.0659198
-0.151757
0.15129
0.000467255
0.00212874
-0.00515769
-0.525835
0.528864
0.00957977
-0.0135923
-0.620043
0.624056
0.018614
-0.0235107
-0.720165
0.725062
0.029061
-0.0343632
-0.831359
0.836661
0.0405009
-0.0460161
-0.952002
0.957517
0.0523863
-0.0581027
-1.07997
1.08568
0.0637093
-0.0686419
-1.21133
1.21626
0.0728898
-0.0751893
-1.34093
1.34323
0.0756488
-0.0734198
-1.46295
1.46073
0.0682273
-0.0608657
-1.33368
1.32632
0.0531923
-0.0447189
-1.036
1.02752
0.0375433
-0.0303654
-0.82169
0.814512
0.0244891
-0.0191329
-0.660741
0.655385
0.0149078
-0.0108631
-0.536076
0.532031
0.0078069
-0.00507788
-0.437307
0.434578
0.002762
-0.000759017
-0.358165
0.356162
-0.000706201
0.00187255
-0.293552
0.292386
-0.00250971
0.00251975
-0.225807
0.225797
-0.00151665
-0.0651477
0.0666643
-0.154732
0.154558
0.00017378
0.00309469
-0.00628924
-0.533369
0.536563
0.0105422
-0.0148253
-0.628536
0.632819
0.0199096
-0.0248417
-0.729862
0.734794
0.0307096
-0.0361102
-0.842174
0.847575
0.0423867
-0.0483014