/*--------------------------------*- C++ -*----------------------------------*\
| =========                 |                                                 |
| \\      /  F ield         | OpenFOAM: The Open Source CFD Toolbox           |
|  \\    /   O peration     | Version:  2112                                  |
|   \\  /    A nd           | Website:  www.openfoam.com                      |
|    \\/     M anipulation  |                                                 |
\*---------------------------------------------------------------------------*/
FoamFile
{
    version     2.0;
    format      ascii;
    arch        "LSB;label=32;scalar=64";
    class       volVectorField;
    location    "2.5";
    object      U;
}
// * * * * * * * * * * * * * * * * * * * * * * * * * * * * * * * * * * * * * //

dimensions      [0 1 -1 0 0 0 0];

internalField   nonuniform List<vector> 
8800
(
(0.973781 -0.0902647 0)
(1.00995 -0.0596275 0)
(1.00207 -0.0307763 0)
(1.00023 -0.0155168 0)
(0.999601 -0.00791968 0)
(0.999204 -0.00422187 0)
(0.998887 -0.00233523 0)
(0.998662 -0.00129065 0)
(0.998548 -0.000631929 0)
(0.998577 -0.000119373 0)
(0.998556 0.000383806 0)
(0.9986 0.000944615 0)
(0.99878 0.001749 0)
(0.999056 0.00314341 0)
(0.999404 0.00576847 0)
(0.999866 0.0110774 0)
(1.00087 0.0219349 0)
(1.00423 0.0422911 0)
(1.01485 0.0791778 0)
(0.770604 0.0487447 0)
(0.401217 -0.0109246 0)
(1.04902 -0.0512982 0)
(1.0775 -0.0479781 0)
(1.0471 -0.0429425 0)
(1.02553 -0.0352044 0)
(1.01295 -0.026224 0)
(1.00644 -0.0180691 0)
(1.00323 -0.0116581 0)
(1.00167 -0.00672318 0)
(1.00105 -0.00266574 0)
(1.00097 0.00111435 0)
(1.00127 0.00496612 0)
(1.00229 0.00931325 0)
(1.00457 0.0148583 0)
(1.00917 0.0221122 0)
(1.01835 0.0308631 0)
(1.0352 0.0394995 0)
(1.06176 0.0459335 0)
(1.08322 0.0478834 0)
(0.874824 0.0399161 0)
(0.313864 0.000153367 0)
(1.05928 -0.0175587 0)
(1.06018 -0.0249991 0)
(1.04343 -0.026793 0)
(1.0305 -0.025218 0)
(1.02093 -0.0216443 0)
(1.01449 -0.0168588 0)
(1.0105 -0.011773 0)
(1.00845 -0.00652785 0)
(1.00754 -0.000864346 0)
(1.0078 0.00476685 0)
(1.00919 0.0101685 0)
(1.01205 0.0152148 0)
(1.01712 0.0200534 0)
(1.02498 0.024231 0)
(1.03624 0.0267561 0)
(1.05122 0.0268696 0)
(1.0664 0.0223132 0)
(0.996746 0.0125486 0)
(0.313608 -0.000142 0)
(0.31348 0.000189832 0)
(1.0291 -0.00397199 0)
(1.04039 -0.00941299 0)
(1.03523 -0.0134745 0)
(1.02881 -0.0154416 0)
(1.0223 -0.0154611 0)
(1.01659 -0.01348 0)
(1.01234 -0.0100216 0)
(1.00948 -0.00572039 0)
(1.00825 -0.000572993 0)
(1.00856 0.00465682 0)
(1.0105 0.0093426 0)
(1.01391 0.013081 0)
(1.01885 0.0156947 0)
(1.02503 0.016573 0)
(1.03149 0.0153394 0)
(1.03736 0.0121237 0)
(1.03994 0.0070385 0)
(0.967653 0.00156857 0)
(0.313086 -0.00017976 0)
(0.312587 -4.9636e-05 0)
(1.01971 -0.00201946 0)
(1.03223 -0.00439961 0)
(1.03067 -0.00667644 0)
(1.02796 -0.00837213 0)
(1.02474 -0.0090447 0)
(1.02136 -0.00850596 0)
(1.01823 -0.00671735 0)
(1.0158 -0.00380059 0)
(1.01469 -4.66647e-05 0)
(1.01489 0.00385418 0)
(1.01663 0.00699502 0)
(1.01904 0.00916872 0)
(1.02226 0.0100577 0)
(1.02554 0.00970393 0)
(1.02846 0.00824064 0)
(1.03059 0.00602311 0)
(1.03021 0.00348032 0)
(0.959676 0.00116746 0)
(0.311906 5.95005e-05 0)
(0.311562 -1.79868e-05 0)
(1.01486 -0.00100815 0)
(1.0275 -0.00211929 0)
(1.02684 -0.0032869 0)
(1.02548 -0.00430131 0)
(1.02365 -0.00487797 0)
(1.02149 -0.00480198 0)
(1.01925 -0.00388708 0)
(1.01732 -0.00206427 0)
(1.0162 0.000465395 0)
(1.01631 0.00309373 0)
(1.01761 0.00501756 0)
(1.01934 0.0060625 0)
(1.02139 0.00622318 0)
(1.02329 0.00562641 0)
(1.02479 0.00451313 0)
(1.02579 0.00315941 0)
(1.02474 0.00179045 0)
(0.95502 0.000614073 0)
(0.310733 2.42141e-05 0)
(0.311032 -8.10579e-06 0)
(1.01264 -0.000495531 0)
(1.0254 -0.0010363 0)
(1.02512 -0.00161358 0)
(1.02442 -0.00214268 0)
(1.02338 -0.00248301 0)
(1.02204 -0.00247361 0)
(1.02052 -0.00194258 0)
(1.01908 -0.000790953 0)
(1.01811 0.000905155 0)
(1.01803 0.00264236 0)
(1.01879 0.00378019 0)
(1.01987 0.0042233 0)
(1.02104 0.00409127 0)
(1.02205 0.00353489 0)
(1.0228 0.00275045 0)
(1.02327 0.00189701 0)
(1.02194 0.00108654 0)
(0.95254 0.000395647 0)
(0.310011 2.15789e-05 0)
(0.310824 -1.0513e-07 0)
(1.01157 -0.000191023 0)
(1.02435 -0.000427684 0)
(1.02425 -0.000681515 0)
(1.02383 -0.000905899 0)
(1.02318 -0.00103069 0)
(1.0223 -0.000955343 0)
(1.02123 -0.000566288 0)
(1.02012 0.000218192 0)
(1.01924 0.00135716 0)
(1.01897 0.00245983 0)
(1.01929 0.00308695 0)
(1.01986 0.0032074 0)
(1.02048 0.00295378 0)
(1.021 0.00246716 0)
(1.02137 0.00187817 0)
(1.0216 0.0012874 0)
(1.02015 0.000739723 0)
(0.950929 0.000279853 0)
(0.309491 1.7289e-05 0)
(0.310816 4.70598e-06 0)
(1.0112 -5.28362e-06 0)
(1.02398 -5.40741e-05 0)
(1.02396 -9.81781e-05 0)
(1.02368 -0.000114076 0)
(1.02323 -6.18262e-05 0)
(1.02259 0.00011298 0)
(1.02178 0.000476879 0)
(1.02085 0.00107224 0)
(1.02 0.00185754 0)
(1.01953 0.00253295 0)
(1.01948 0.0028332 0)
(1.01967 0.002733 0)
(1.01992 0.00240706 0)
(1.02014 0.00195625 0)
(1.0203 0.00146997 0)
(1.02039 0.00100212 0)
(1.01888 0.000582568 0)
(0.949758 0.000227447 0)
(0.309078 1.60058e-05 0)
(0.310946 1.0735e-05 0)
(1.01127 0.000120055 0)
(1.02406 0.000208453 0)
(1.02407 0.000317831 0)
(1.02385 0.000462812 0)
(1.02349 0.000664162 0)
(1.02297 0.00095047 0)
(1.02227 0.00134998 0)
(1.02141 0.00186965 0)
(1.0205 0.00244532 0)
(1.0198 0.00283189 0)
(1.01946 0.00286525 0)
(1.01934 0.00263928 0)
(1.01933 0.00224434 0)
(1.01935 0.00178548 0)
(1.01938 0.00132703 0)
(1.01938 0.000902848 0)
(1.01783 0.000531788 0)
(0.948767 0.000214047 0)
(0.308699 1.65454e-05 0)
(0.311196 1.57048e-05 0)
(1.01169 0.000243443 0)
(1.02447 0.000438785 0)
(1.0245 0.000671398 0)
(1.02429 0.000953453 0)
(1.02396 0.00129377 0)
(1.02347 0.001702 0)
(1.02278 0.00217959 0)
(1.02188 0.00269822 0)
(1.02083 0.00316404 0)
(1.01989 0.00335911 0)
(1.01926 0.00321098 0)
(1.01889 0.00283872 0)
(1.01867 0.00235687 0)
(1.01854 0.00184822 0)
(1.01847 0.00136385 0)
(1.01842 0.000927806 0)
(1.01684 0.000549539 0)
(0.947805 0.000226525 0)
(0.308306 1.87007e-05 0)
(0.311569 2.13835e-05 0)
(1.01242 0.000356799 0)
(1.02518 0.000658549 0)
(1.0252 0.00101577 0)
(1.02499 0.00143474 0)
(1.02465 0.00192121 0)
(1.02412 0.00247084 0)
(1.02337 0.00306217 0)
(1.02234 0.00363593 0)
(1.02107 0.0040619 0)
(1.01983 0.00412334 0)
(1.01891 0.00381498 0)
(1.01829 0.00329408 0)
(1.01789 0.00269363 0)
(1.01764 0.00209447 0)
(1.01749 0.0015391 0)
(1.01739 0.00104844 0)
(1.01578 0.000624653 0)
(0.946759 0.000262141 0)
(0.307857 2.2504e-05 0)
(0.312076 2.82053e-05 0)
(1.01347 0.000485179 0)
(1.02621 0.000902561 0)
(1.02622 0.00139303 0)
(1.02597 0.00196571 0)
(1.02557 0.00261876 0)
(1.02496 0.00333868 0)
(1.02407 0.00408257 0)
(1.02284 0.00476036 0)
(1.02126 0.00519674 0)
(1.01965 0.00515468 0)
(1.0184 0.00468393 0)
(1.01752 0.00399616 0)
(1.01694 0.00324152 0)
(1.01656 0.00250777 0)
(1.01633 0.00183836 0)
(1.01618 0.00125158 0)
(1.01455 0.000747154 0)
(0.945533 0.000315375 0)
(0.30732 2.75702e-05 0)
(0.312745 3.68122e-05 0)
(1.01487 0.000639695 0)
(1.0276 0.00119213 0)
(1.02757 0.00184236 0)
(1.02727 0.00259595 0)
(1.02679 0.00345073 0)
(1.02604 0.00438046 0)
(1.02494 0.0053236 0)
(1.02341 0.00615234 0)
(1.02142 0.00663935 0)
(1.01935 0.00650689 0)
(1.0177 0.0058569 0)
(1.01654 0.00496377 0)
(1.01575 0.00400884 0)
(1.01524 0.0030933 0)
(1.01492 0.00226575 0)
(1.01473 0.001542 0)
(1.01306 0.000922791 0)
(0.944043 0.000391069 0)
(0.306657 3.46958e-05 0)
(0.313617 4.78105e-05 0)
(1.01672 0.000832141 0)
(1.02941 0.00155239 0)
(1.02934 0.00239715 0)
(1.02897 0.00337651 0)
(1.02836 0.00448132 0)
(1.02742 0.00567676 0)
(1.02604 0.00687523 0)
(1.02411 0.00790641 0)
(1.02157 0.00847827 0)
(1.01892 0.00825418 0)
(1.0168 0.00739071 0)
(1.01529 0.00624027 0)
(1.01426 0.00502754 0)
(1.01359 0.00387341 0)
(1.01317 0.00283481 0)
(1.01291 0.00192871 0)
(1.01121 0.00115547 0)
(0.942188 0.000490646 0)
(0.305828 4.33864e-05 0)
(0.314748 6.20354e-05 0)
(1.01912 0.00107702 0)
(1.03177 0.00200854 0)
(1.03164 0.00310129 0)
(1.03116 0.00436461 0)
(1.03039 0.00578743 0)
(1.02919 0.00731868 0)
(1.02743 0.00884297 0)
(1.02496 0.0101374 0)
(1.02173 0.0108251 0)
(1.01834 0.0104941 0)
(1.01562 0.00936518 0)
(1.01368 0.00788956 0)
(1.01236 0.00634698 0)
(1.0115 0.00488642 0)
(1.01096 0.00357393 0)
(1.01063 0.00243254 0)
(1.00889 0.00145658 0)
(0.939853 0.000618964 0)
(0.304784 5.47877e-05 0)
(0.316214 8.07451e-05 0)
(1.02222 0.00139309 0)
(1.03481 0.00259599 0)
(1.0346 0.00400575 0)
(1.03398 0.00563344 0)
(1.03299 0.00746126 0)
(1.03145 0.00942152 0)
(1.02918 0.0113601 0)
(1.02603 0.0129872 0)
(1.02189 0.0138208 0)
(1.01757 0.0133535 0)
(1.01411 0.0118876 0)
(1.01164 0.009998 0)
(1.00996 0.00803382 0)
(1.00886 0.00617986 0)
(1.00817 0.00451759 0)
(1.00776 0.00307443 0)
(1.00595 0.00184008 0)
(0.936905 0.000781637 0)
(0.303466 6.9048e-05 0)
(0.31812 0.00010566 0)
(1.02622 0.0018057 0)
(1.03874 0.00336015 0)
(1.03842 0.00517923 0)
(1.03762 0.00727671 0)
(1.03632 0.00962589 0)
(1.03433 0.0121338 0)
(1.03141 0.0145964 0)
(1.02735 0.0166376 0)
(1.02206 0.0176441 0)
(1.01655 0.0169929 0)
(1.01216 0.0150922 0)
(1.00904 0.0126743 0)
(1.00691 0.0101757 0)
(1.00551 0.00782299 0)
(1.00464 0.00571769 0)
(1.00412 0.00388849 0)
(1.00225 0.00232784 0)
(0.93318 0.00098796 0)
(0.301805 8.72199e-05 0)
(0.32061 0.000139288 0)
(1.0314 0.00234932 0)
(1.04382 0.00436375 0)
(1.04335 0.00671673 0)
(1.0423 0.00942417 0)
(1.0406 0.0124447 0)
(1.038 0.0156518 0)
(1.03421 0.0187738 0)
(1.02898 0.021322 0)
(1.02221 0.0225193 0)
(1.01522 0.0216113 0)
(1.00967 0.0191504 0)
(1.00571 0.0160597 0)
(1.00302 0.0128824 0)
(1.00127 0.00989902 0)
(1.00017 0.007232 0)
(0.999515 0.00491599 0)
(0.997555 0.0029413 0)
(0.928467 0.00124641 0)
(0.299709 0.00010919 0)
(0.323888 0.000185611 0)
(1.03813 0.00307576 0)
(1.05041 0.00569699 0)
(1.04973 0.00875193 0)
(1.04834 0.0122556 0)
(1.04609 0.0161464 0)
(1.04267 0.0202448 0)
(1.03773 0.0241871 0)
(1.03097 0.0273398 0)
(1.02232 0.0287279 0)
(1.01346 0.0274556 0)
(1.00646 0.0242685 0)
(1.00149 0.0203269 0)
(0.998107 0.0162945 0)
(0.995896 0.012516 0)
(0.994514 0.00914126 0)
(0.993689 0.00621399 0)
(0.991622 0.0037157 0)
(0.922513 0.00157335 0)
(0.297071 0.000137351 0)
(0.328248 0.000251439 0)
(1.04693 0.00406287 0)
(1.05901 0.00749787 0)
(1.05804 0.0114866 0)
(1.05615 0.0160398 0)
(1.05314 0.0210572 0)
(1.04859 0.0262853 0)
(1.04211 0.0312303 0)
(1.03336 0.0350759 0)
(1.02232 0.0366154 0)
(1.01114 0.0348212 0)
(1.00236 0.030699 0)
(0.99613 0.0256847 0)
(0.991884 0.0205839 0)
(0.989104 0.015812 0)
(0.987363 0.0115488 0)
(0.986324 0.00784988 0)
(0.984119 0.00469268 0)
(0.914986 0.0019849 0)
(0.293748 0.000172446 0)
(0.334143 0.000348386 0)
(1.05853 0.00544317 0)
(1.0703 0.00998905 0)
(1.0689 0.0152362 0)
(1.06629 0.0211821 0)
(1.06217 0.0276629 0)
(1.05606 0.0343037 0)
(1.04748 0.040436 0)
(1.03614 0.0450189 0)
(1.02209 0.0465972 0)
(1.00808 0.0440531 0)
(0.997133 0.0387385 0)
(0.989357 0.0323947 0)
(0.984038 0.0259723 0)
(0.980536 0.019964 0)
(0.978333 0.0145926 0)
(0.977017 0.00992361 0)
(0.974634 0.00593269 0)
(0.905475 0.00250675 0)
(0.289565 0.000217046 0)
(0.342311 0.000500631 0)
(1.07394 0.00746736 0)
(1.08525 0.0135769 0)
(1.08317 0.0205452 0)
(1.07946 0.0283501 0)
(1.07369 0.0367121 0)
(1.06532 0.045071 0)
(1.05389 0.0525207 0)
(1.0392 0.0577733 0)
(1.02144 0.0591511 0)
(1.00402 0.0555399 0)
(0.990494 0.048728 0)
(0.980848 0.040771 0)
(0.974192 0.0327491 0)
(0.969764 0.0252287 0)
(0.966952 0.0184776 0)
(0.965265 0.012587 0)
(0.962643 0.00753647 0)
(0.893443 0.00318622 0)
(0.284276 0.000276113 0)
(0.35414 0.000772108 0)
(1.09471 0.0107451 0)
(1.10528 0.0191132 0)
(1.10205 0.0284342 0)
(1.09648 0.0386902 0)
(1.08812 0.0493986 0)
(1.07645 0.0597004 0)
(1.06116 0.0684159 0)
(1.04219 0.0740536 0)
(1.01998 0.0747928 0)
(0.998614 0.0696813 0)
(0.982105 0.0610367 0)
(0.970246 0.0511933 0)
(0.961928 0.0413067 0)
(0.956283 0.0319933 0)
(0.952627 0.0235651 0)
(0.950411 0.0161505 0)
(0.94746 0.0097321 0)
(0.878165 0.00414081 0)
(0.277499 0.000361993 0)
(0.37262 0.0013857 0)
(1.1235 0.0168877 0)
(1.13284 0.0284648 0)
(1.12722 0.0408626 0)
(1.11824 0.0541872 0)
(1.10563 0.0675543 0)
(1.08914 0.0796977 0)
(1.06868 0.089237 0)
(1.04448 0.0946088 0)
(1.01713 0.0940135 0)
(0.991389 0.0868485 0)
(0.971586 0.0760336 0)
(0.957199 0.0641001 0)
(0.946861 0.0521894 0)
(0.939595 0.040907 0)
(0.934697 0.030571 0)
(0.931625 0.0213491 0)
(0.928137 0.0131961 0)
(0.858668 0.00582517 0)
(0.268569 0.000529663 0)
(0.402241 0.00316173 0)
(1.16576 0.0304471 0)
(1.17183 0.0456175 0)
(1.16066 0.0615487 0)
(1.14531 0.0781812 0)
(1.12601 0.0937968 0)
(1.10279 0.106878 0)
(1.07582 0.116128 0)
(1.04547 0.120113 0)
(1.01248 0.117203 0)
(0.982125 0.107338 0)
(0.958867 0.0940586 0)
(0.941727 0.0799811 0)
(0.929003 0.0661199 0)
(0.919592 0.0530105 0)
(0.912746 0.0409017 0)
(0.907979 0.0299739 0)
(0.903119 0.019881 0)
(0.833402 0.00963992 0)
(0.256986 0.000913864 0)
(0.446987 0.0149118 6.33445e-20)
(1.22555 0.0613163 5.7054e-20)
(1.22144 0.0787835 -1.99391e-20)
(1.20033 0.0977262 0)
(1.1758 0.115873 -4.7978e-34)
(1.14791 0.131457 6.92445e-21)
(1.11663 0.143394 -1.19366e-20)
(1.08218 0.150672 0)
(1.045 0.15201 2.3311e-34)
(1.00577 0.145918 -1.35788e-20)
(0.97032 0.132942 0)
(0.94314 0.117184 -1.55554e-20)
(0.922685 0.10122 -4.55039e-20)
(0.906867 0.085909 -2.13943e-20)
(0.894342 0.0717326 -6.38008e-21)
(0.884198 0.0590049 -3.78518e-21)
(0.875805 0.047955 0)
(0.867249 0.038391 2.67196e-21)
(0.798366 0.0276272 3.15323e-21)
(0.244055 0.00765277 5.71894e-20)
(0.467068 0.0426558 4.94416e-20)
(1.28064 0.119887 5.04235e-22)
(1.26654 0.134661 5.56904e-21)
(1.23606 0.150895 0)
(1.20275 0.166387 -2.51584e-20)
(1.16665 0.179548 -2.79891e-20)
(1.1277 0.189118 -1.22484e-20)
(1.08598 0.193902 -4.18713e-20)
(1.04175 0.192513 0)
(0.99553 0.183466 5.76789e-20)
(0.953765 0.167849 5.61014e-20)
(0.921385 0.150293 1.63845e-20)
(0.896497 0.133337 5.87694e-20)
(0.876642 0.117752 8.19369e-20)
(0.860227 0.103904 0)
(0.846199 0.0922092 1.15531e-19)
(0.83387 0.082853 1.66896e-19)
(0.821857 0.0759885 1.86007e-19)
(0.756321 0.0658095 -2.13594e-19)
(0.235706 0.0217676 -3.90488e-21)
(0.459679 0.0697323 0)
(1.31636 0.194833 1.07832e-20)
(1.2986 0.204591 0)
(1.26199 0.215241 -3.6974e-20)
(1.22223 0.225833 0)
(1.17961 0.234649 -5.68184e-20)
(1.13418 0.240305 2.54334e-20)
(1.08606 0.241367 -8.59501e-20)
(1.0356 0.236371 -1.17379e-21)
(0.983347 0.2238 3.00052e-20)
(0.936405 0.205334 1.21202e-19)
(0.900067 0.186111 3.61593e-23)
(0.872121 0.168606 -4.21487e-20)
(0.84988 0.153295 -7.55065e-20)
(0.831704 0.14032 8.96255e-20)
(0.816552 0.129786 -1.58554e-19)
(0.803647 0.121799 -2.10278e-20)
(0.791403 0.116276 0)
(0.729936 0.104377 1.15399e-21)
(0.232243 0.0343288 0)
(0.457362 0.0951971 1.61146e-19)
(1.33501 0.269969 -8.09218e-20)
(1.31637 0.276876 -5.70385e-20)
(1.27709 0.28307 1.8608e-20)
(1.23372 0.288982 -3.09445e-20)
(1.18672 0.293226 1.20662e-19)
(1.13632 0.294546 5.36355e-20)
(1.08291 0.291433 0)
(1.02707 0.28236 -1.54939e-19)
(0.969535 0.265796 0)
(0.918256 0.244097 -6.33857e-20)
(0.878952 0.222918 -7.59821e-20)
(0.849096 0.204486 -4.4969e-20)
(0.825677 0.188931 -5.39183e-20)
(0.806881 0.176116 0)
(0.791489 0.165883 0)
(0.778653 0.158136 -1.3504e-19)
(0.76663 0.152778 2.66044e-20)
(0.70744 0.138716 -1.58321e-20)
(0.227353 0.0457082 -1.84542e-20)
(0.456798 0.119349 -9.00698e-20)
(1.34542 0.34271 0)
(1.32582 0.347677 1.35082e-19)
(1.28455 0.350326 5.70651e-20)
(1.23856 0.352396 6.98652e-20)
(1.18825 0.352675 0)
(1.13394 0.349922 5.46978e-20)
(1.07616 0.342648 9.63247e-20)
(1.0157 0.329285 8.05903e-20)
(0.953697 0.308346 1.37733e-19)
(0.898961 0.282951 0)
(0.857578 0.25934 -1.60708e-19)
(0.826607 0.239481 -9.46689e-20)
(0.802681 0.223185 -5.5117e-20)
(0.783752 0.20999 3.34609e-19)
(0.768482 0.199516 3.9654e-20)
(0.755882 0.191582 1.89028e-19)
(0.744202 0.18589 -9.02752e-19)
(0.687106 0.169619 5.36687e-19)
(0.222794 0.0560679 -6.48206e-19)
(0.456227 0.142353 -7.45531e-20)
(1.3503 0.412345 1.99704e-20)
(1.32959 0.416224 -1.89087e-20)
(1.28681 0.41616 -7.11516e-20)
(1.23871 0.415079 -6.72402e-20)
(1.18569 0.411901 1.67204e-21)
(1.12806 0.405392 -5.92343e-20)
(1.06646 0.39411 1.01499e-19)
(1.00191 0.376368 -1.72956e-19)
(0.935983 0.35075 0)
(0.878419 0.321151 -7.37741e-20)
(0.835608 0.294582 -3.84602e-22)
(0.804115 0.272847 -1.00956e-19)
(0.780128 0.255372 0)
(0.761396 0.241445 -7.07868e-20)
(0.746458 0.230412 -1.66948e-19)
(0.734256 0.222024 4.49139e-19)
(0.722977 0.215816 -4.46085e-19)
(0.667853 0.197442 6.34231e-19)
(0.21836 0.0655326 -6.60304e-19)
(0.456001 0.164454 -1.27415e-21)
(1.35155 0.479032 -1.86278e-20)
(1.32954 0.482234 -7.31839e-20)
(1.28534 0.48002 3.48729e-20)
(1.23541 0.476335 -3.57851e-20)
(1.17999 0.47018 0)
(1.11937 0.460326 -5.91628e-20)
(1.05427 0.445232 -1.07903e-19)
(0.985937 0.423129 -9.12164e-20)
(0.916402 0.392528 0)
(0.856462 0.358197 -7.6133e-20)
(0.812766 0.32814 -8.95964e-20)
(0.781231 0.304107 1.06379e-19)
(0.757586 0.28512 -6.39107e-20)
(0.739337 0.270176 -2.9533e-19)
(0.724911 0.258496 1.75716e-19)
(0.713201 0.249474 5.27748e-20)
(0.702411 0.242666 0)
(0.649212 0.222338 -5.89186e-19)
(0.214172 0.0742314 -2.13607e-20)
(0.456225 0.185901 -8.66649e-21)
(1.35028 0.542866 1.82648e-20)
(1.32685 0.545693 3.92392e-20)
(1.28134 0.54174 1.19831e-19)
(1.22965 0.535936 -1.46182e-19)
(1.17196 0.527227 1.38773e-19)
(1.10853 0.514389 1.2901e-19)
(1.04006 0.495693 -1.73945e-19)
(0.968083 0.469267 5.25828e-20)
(0.895048 0.433413 -3.3364e-19)
(0.832979 0.393776 -8.26789e-20)
(0.788843 0.359688 0)
(0.757732 0.332926 1.1157e-19)
(0.734833 0.312205 1.29943e-19)
(0.717342 0.296157 1.54526e-19)
(0.70361 0.283632 -1.82696e-19)
(0.692534 0.274018 -5.3633e-20)
(0.682287 0.266591 6.47936e-20)
(0.631012 0.244476 0)
(0.2105 0.0823526 -4.46246e-20)
(0.456787 0.206756 7.77768e-20)
(1.34743 0.604079 -6.81655e-20)
(1.32242 0.606684 -4.28124e-20)
(1.27557 0.601326 8.3284e-20)
(1.22218 0.59371 -7.45652e-20)
(1.16231 0.582848 -2.90801e-21)
(1.09613 0.56736 -1.41501e-19)
(1.02434 0.545362 -6.29619e-20)
(0.948608 0.514709 -1.58872e-19)
(0.871963 0.473313 4.22509e-22)
(0.807839 0.427741 -2.59074e-19)
(0.763641 0.388935 2.01367e-19)
(0.7335 0.359035 -1.16198e-19)
(0.711828 0.336364 1.35735e-19)
(0.695442 0.319138 0)
(0.682627 0.305893 -9.32141e-20)
(0.67226 0.295777 -2.05831e-21)
(0.662637 0.287789 -2.63612e-19)
(0.61341 0.264169 -3.97102e-20)
(0.207409 0.0900045 0)
(0.457599 0.226878 0)
(1.34354 0.662678 -7.69632e-20)
(1.31688 0.665266 -8.34654e-20)
(1.26866 0.65875 -8.67812e-20)
(1.2136 0.649682 -8.61221e-20)
(1.15153 0.636958 0)
(1.0826 0.619146 -7.05001e-20)
(1.00748 0.594163 1.26212e-22)
(0.927821 0.559424 3.42728e-19)
(0.847226 0.512294 -4.70861e-20)
(0.78092 0.460036 -1.84459e-19)
(0.736971 0.415685 1.06138e-19)
(0.708417 0.382159 9.67904e-22)
(0.688586 0.357352 1.39978e-19)
(0.673807 0.339017 8.31373e-20)
(0.662185 0.325176 -1.95757e-19)
(0.652721 0.314679 2.29274e-19)
(0.643757 0.306397 6.7066e-20)
(0.596606 0.28156 2.82203e-19)
(0.20509 0.0973538 -7.56384e-19)
(0.458878 0.246786 1.27713e-20)
(1.33904 0.718991 -3.47411e-20)
(1.31062 0.721541 3.54606e-20)
(1.26105 0.71408 8.8871e-20)
(1.20428 0.703781 0)
(1.14008 0.689526 -7.93074e-20)
(1.06843 0.6697 2.36181e-19)
(0.989862 0.642105 1.45291e-19)
(0.905998 0.603535 0)
(0.820972 0.550545 -6.66555e-19)
(0.751956 0.490783 4.89765e-19)
(0.708511 0.439775 0)
(0.682362 0.401845 1.24817e-19)
(0.665275 0.374787 1.9312e-21)
(0.652725 0.355496 -2.49902e-19)
(0.642696 0.341452 9.94962e-20)
(0.634271 0.330914 0)
(0.626055 0.322595 3.43148e-19)
(0.581087 0.297113 0)
(0.20414 0.104819 -3.37432e-19)
(0.460497 0.266522 -1.21375e-20)
(1.33416 0.773079 -3.00977e-20)
(1.304 0.775564 4.02587e-20)
(1.25308 0.767306 0)
(1.19462 0.756 -9.35352e-20)
(1.12832 0.740444 0)
(1.05395 0.718987 -2.46132e-19)
(0.97188 0.689122 -7.33934e-20)
(0.883529 0.647134 6.48143e-20)
(0.793291 0.588318 -3.31134e-19)
(0.720819 0.520182 5.24026e-20)
(0.677883 0.460996 0)
(0.655141 0.417604 -2.56315e-19)
(0.642034 0.388029 -2.36147e-21)
(0.632728 0.368186 0)
(0.624842 0.354458 7.19967e-23)
(0.617735 0.344488 2.90358e-19)
(0.610258 0.336661 -2.77173e-19)
(0.56761 0.311179 8.19659e-20)
(0.204708 0.112678 0)
(0.461998 0.285664 0)
(1.32903 0.824995 -2.80341e-20)
(1.29723 0.827351 -3.60017e-20)
(1.24495 0.818446 -2.47822e-21)
(1.18484 0.806296 -4.44585e-20)
(1.11648 0.789716 -1.89003e-19)
(1.03947 0.766941 9.18523e-20)
(0.953824 0.735255 -8.37385e-20)
(0.860722 0.690345 2.85944e-19)
(0.764462 0.625972 -5.39439e-19)
(0.687225 0.548611 -1.98854e-22)
(0.644455 0.479347 -1.21991e-19)
(0.626274 0.428883 3.94697e-19)
(0.619012 0.396302 3.80412e-21)
(0.614464 0.376396 -1.65561e-19)
(0.60961 0.363957 -2.96534e-19)
(0.604062 0.355508 0)
(0.597337 0.348976 0)
(0.557092 0.324485 8.24727e-20)
(0.207327 0.121434 -4.68254e-20)
(0.464073 0.304713 -7.96476e-21)
(1.32383 0.874774 5.89101e-20)
(1.29048 0.876975 3.98078e-20)
(1.23686 0.867456 0)
(1.17516 0.854633 -8.247e-22)
(1.10483 0.837227 -1.94697e-19)
(1.02527 0.813452 2.38058e-19)
(0.936094 0.780455 3.49518e-19)
(0.837975 0.733291 3.84525e-19)
(0.734687 0.663933 -4.5539e-19)
(0.650912 0.576643 -4.23908e-19)
(0.607389 0.494879 3.23983e-19)
(0.595076 0.434732 0)
(0.596399 0.398218 -6.96688e-20)
(0.599035 0.379108 -1.64893e-19)
(0.598351 0.369518 -1.91455e-19)
(0.594707 0.364054 -2.25945e-19)
(0.588615 0.359991 6.52382e-20)
(0.550835 0.337819 -4.0711e-20)
(0.212614 0.131674 -2.17951e-21)
(0.465853 0.323235 0)
(1.31865 0.922461 0)
(1.28382 0.924477 1.74245e-21)
(1.22895 0.914421 0)
(1.16573 0.900973 1.47886e-19)
(1.09358 0.882922 1.50892e-19)
(1.01157 0.858428 0)
(0.918977 0.824619 4.51907e-20)
(0.815677 0.776007 6.66238e-19)
(0.704438 0.702581 -1.05788e-18)
(0.611818 0.605155 0)
(0.565585 0.507926 -2.0632e-19)
(0.560313 0.434113 4.3677e-21)
(0.574299 0.391814 3.41067e-21)
(0.58787 0.374946 1.54404e-19)
(0.592975 0.370273 -2.54076e-21)
(0.591599 0.370103 -4.34691e-19)
(0.585527 0.370425 1.29596e-19)
(0.550231 0.352331 3.7355e-20)
(0.22105 0.143969 0)
(0.467376 0.341199 3.69732e-21)
(1.31345 0.968101 2.44039e-20)
(1.27723 0.969896 7.39871e-20)
(1.22125 0.959292 -1.86754e-19)
(1.15668 0.945266 2.55964e-19)
(1.08285 0.926723 0)
(0.998636 0.901757 1.6227e-19)
(0.902746 0.867618 -1.00404e-19)
(0.79422 0.818406 2.36695e-21)
(0.67416 0.742228 7.70273e-20)
(0.570036 0.63517 5.73698e-19)
(0.517587 0.519355 -7.51209e-20)
(0.519801 0.425642 -2.17499e-19)
(0.552842 0.374249 -5.59861e-20)
(0.582983 0.361584 7.18897e-20)
(0.596507 0.367104 -4.36333e-21)
(0.596895 0.37574 1.01146e-19)
(0.590856 0.382211 -2.47331e-19)
(0.55701 0.369845 2.89474e-19)
(0.23274 0.1589 4.46459e-20)
(0.468414 0.358362 2.26053e-21)
(1.30818 1.01171 1.20959e-20)
(1.27067 1.01322 5.98403e-21)
(1.21367 1.0021 -9.18218e-20)
(1.14803 0.987562 -4.95303e-20)
(1.07273 0.968574 -2.87664e-19)
(0.986597 0.943486 5.37339e-20)
(0.887693 0.909317 -4.30895e-19)
(0.774041 0.860317 -7.80029e-19)
(0.644519 0.783051 -6.66187e-19)
(0.525858 0.667834 0)
(0.461906 0.530683 -3.13401e-19)
(0.470264 0.408089 2.85562e-19)
(0.53018 0.339959 0)
(0.589254 0.334827 -1.29546e-19)
(0.616359 0.358846 6.54151e-20)
(0.616889 0.383499 -8.82445e-20)
(0.604451 0.399514 -1.15531e-19)
(0.568314 0.393904 -2.12272e-19)
(0.244583 0.175481 -1.67869e-19)
(0.469909 0.375262 -5.55438e-21)
(1.30285 1.0533 -1.29579e-20)
(1.26421 1.05441 -4.56439e-20)
(1.20625 1.04277 -1.15539e-19)
(1.13962 1.02781 1.11116e-19)
(1.0632 1.00851 -1.80185e-19)
(0.975548 0.98345 1.77277e-19)
(0.874018 0.949753 -4.60438e-19)
(0.75557 0.901662 -4.7717e-19)
(0.616282 0.825092 7.33504e-19)
(0.480132 0.704427 1.33391e-18)
(0.397232 0.544522 0)
(0.406214 0.380671 0)
(0.503725 0.28086 -4.95922e-20)
(0.614502 0.286666 0)
(0.663113 0.347636 1.10361e-19)
(0.654984 0.402645 1.52293e-19)
(0.620803 0.429745 0)
(0.576853 0.42591 0)
(0.249668 0.192681 1.69774e-19)
(0.470723 0.391095 1.15786e-20)
(1.29753 1.09293 1.02591e-21)
(1.2579 1.09351 -3.15196e-20)
(1.19913 1.08133 9.06326e-20)
(1.1316 1.0659 1.13983e-19)
(1.05417 1.0464 2.16721e-19)
(0.965321 1.0215 -2.53458e-19)
(0.861737 0.988668 -4.39671e-21)
(0.739129 0.942364 -3.77086e-21)
(0.590341 0.868279 7.12532e-21)
(0.434234 0.745972 7.06748e-19)
(0.322865 0.564646 0)
(0.319482 0.34476 2.43804e-19)
(0.465533 0.181949 6.65476e-20)
(0.673871 0.199196 -3.88917e-20)
(0.761821 0.333295 5.92152e-21)
(0.719699 0.43768 -6.83964e-20)
(0.655038 0.482752 -6.20101e-20)
(0.586832 0.463002 0)
(0.243228 0.200203 1.89178e-19)
(0.472012 0.407002 -3.54757e-20)
(1.29219 1.13055 0)
(1.25162 1.13052 -2.56746e-20)
(1.19227 1.11777 6.93241e-20)
(1.12409 1.10191 -1.13848e-19)
(1.04579 1.0822 -2.85136e-19)
(0.955889 1.05759 5.31998e-19)
(0.850695 1.02585 -3.25414e-20)
(0.724757 0.982144 0)
(0.567535 0.912393 -8.67832e-19)
(0.390255 0.793114 -1.63329e-18)
(0.239875 0.596049 5.51035e-20)
(0.199569 0.305398 3.04741e-19)
(0.397396 0.0172049 0)
(0.798545 0.0236028 -2.85435e-19)
(0.986654 0.327615 0)
(0.827947 0.540627 0)
(0.641911 0.591834 -6.94581e-20)
(0.533242 0.505798 0)
(0.213991 0.178122 5.72924e-20)
(0.47265 0.421838 -4.69303e-20)
(1.28673 1.16639 0)
(1.24537 1.16554 -3.19689e-20)
(1.18559 1.1522 0)
(1.11699 1.13602 5.57008e-20)
(1.0381 1.11625 0)
(0.947434 1.09198 3.14673e-20)
(0.840796 1.0616 6.86332e-20)
(0.712294 1.02103 6.35399e-20)
(0.547967 0.957859 -9.84264e-19)
(0.350293 0.846866 5.33557e-20)
(0.15029 0.645233 4.30477e-19)
(0.030169 0.274739 2.89096e-19)
(0.230752 -0.25202 -1.50811e-20)
(0.891784 -0.253818 -6.50441e-19)
(1.28676 0.378978 0)
(1.00648 0.754136 5.70018e-20)
(0.668262 0.829541 -1.2444e-19)
(0.301442 0.597353 2.32142e-19)
(-0.0574043 0.788496 -3.4482e-19)
(0.47343 0.436449 4.47232e-20)
(1.28094 1.20068 2.68829e-20)
(1.23906 1.19886 0)
(1.17912 1.18511 4.25972e-21)
(1.11013 1.16883 -1.37329e-19)
(1.03074 1.14925 4.86788e-19)
(0.939702 1.12573 2.06571e-19)
(0.831942 1.0971 0)
(0.70113 1.06046 4.44644e-19)
(0.531043 1.00612 -5.45578e-20)
(0.314893 0.911392 0)
(0.0579198 0.723895 0)
(-0.221414 0.315042 2.84125e-19)
(-0.278403 -0.154116 3.11111e-19)
(0.45226 0.219634 1.21787e-18)
(1.21904 1.05224 0)
(1.02305 1.46834 -3.94857e-20)
(0.423974 1.39622 -1.37855e-19)
(0.215729 2.39766 -1.18436e-19)
(0.165915 3.03133 -1.03713e-19)
(0.474282 0.450019 -4.00198e-20)
(1.27454 1.23335 -4.44393e-20)
(1.2327 1.2302 -1.35433e-20)
(1.17286 1.21627 -3.91047e-20)
(1.10359 1.20009 0)
(1.02378 1.18081 3.30994e-19)
(0.932712 1.15825 3.11858e-19)
(0.824418 1.13181 -3.60216e-20)
(0.692046 1.09952 6.7186e-20)
(0.51736 1.05538 9.87464e-19)
(0.287023 0.984448 9.38604e-19)
(-0.0178522 0.840728 5.90791e-19)
(-0.464752 0.548931 3.33421e-19)
(-0.875647 0.512746 6.66714e-19)
(-0.442396 1.46069 1.94602e-18)
(0.509415 2.27356 0)
(0.531964 2.58193 0)
(0.312267 3.09796 -6.3279e-20)
(0.240284 3.3326 0)
(0.179637 3.32868 -3.54819e-21)
(0.477488 0.465334 0)
(1.26719 1.26408 0)
(1.22623 1.25923 0)
(1.16656 1.24542 -7.21844e-21)
(1.09706 1.2295 -1.19145e-19)
(1.01701 1.21076 2.32292e-19)
(0.926365 1.18949 2.11851e-19)
(0.817891 1.16527 -3.65245e-20)
(0.685291 1.138 5.93062e-19)
(0.508259 1.10535 4.0374e-22)
(0.269419 1.06274 1.94585e-18)
(-0.0628742 0.994013 -6.5663e-20)
(-0.574876 0.901225 6.31605e-20)
(-1.17358 1.2372 -1.0111e-19)
(-0.99951 2.45402 -6.89189e-20)
(-0.222542 3.20407 -1.03214e-19)
(-0.0136082 3.49036 9.82085e-19)
(0.0732721 3.53205 2.69945e-19)
(0.0884566 3.45088 -6.29638e-20)
(0.0896497 3.38823 6.37552e-20)
(0.339447 0.39239 2.86219e-20)
(1.25875 1.29225 0)
(1.22037 1.28636 7.29925e-21)
(1.16088 1.27323 8.07209e-20)
(1.09124 1.25778 -2.04903e-19)
(1.01121 1.23967 -2.37611e-19)
(0.921176 1.21863 -2.33628e-19)
(0.813069 1.1965 4.58344e-19)
(0.681276 1.17386 -5.02765e-19)
(0.506399 1.15324 0)
(0.270852 1.14063 9.96373e-19)
(-0.0469691 1.14801 -5.31114e-19)
(-0.492009 1.23115 0)
(-1.07928 1.72231 2.51243e-20)
(-1.02235 2.81627 -2.20431e-19)
(-0.482878 3.35988 2.21934e-19)
(-0.200203 3.47988 -2.52884e-19)
(-0.0651096 3.44975 -1.07813e-19)
(-0.00891621 3.4083 -1.10936e-19)
(0.0296711 3.37294 -1.73812e-19)
(0.575417 0.568791 -2.47393e-20)
(1.24357 1.31327 0)
(1.21105 1.3262 7.75004e-21)
(1.15042 1.31448 -5.79704e-20)
(1.08014 1.29983 1.82495e-19)
(0.999656 1.28278 2.16583e-19)
(0.908368 1.26398 3.00311e-19)
(0.800426 1.24503 3.60662e-20)
(0.669365 1.22979 5.20588e-19)
(0.49672 1.22767 9.54613e-19)
(0.267878 1.25813 6.03697e-20)
(-0.0263173 1.35808 5.14133e-19)
(-0.380155 1.62067 7.78131e-20)
(-0.650812 2.14411 -5.95736e-20)
(-0.562627 2.78239 2.65925e-20)
(-0.322956 3.0772 -9.58311e-20)
(-0.154692 3.1954 1.38988e-19)
(-0.0555805 3.26316 8.93871e-20)
(-0.00549098 3.30633 1.16023e-19)
(0.00506155 3.34136 1.46209e-20)
(0.570813 0.569801 0)
(1.24384 1.3413 1.58113e-20)
(1.20606 1.35428 -5.47992e-21)
(1.14452 1.34326 2.84295e-21)
(1.07399 1.32891 1.05942e-19)
(0.993691 1.31225 -2.03008e-19)
(0.902423 1.29395 -1.87275e-19)
(0.795774 1.27713 3.42535e-20)
(0.667318 1.26689 -5.6252e-19)
(0.500852 1.27517 -9.64722e-21)
(0.289837 1.32898 -1.93436e-18)
(0.0413657 1.46992 7.09716e-20)
(-0.214952 1.75501 -7.7562e-20)
(-0.372056 2.19515 -4.92967e-20)
(-0.298072 2.65832 -2.11658e-20)
(-0.142676 2.93062 -2.5287e-20)
(-0.0308283 3.10317 -2.6567e-19)
(0.0319872 3.19078 -1.89348e-19)
(0.0500801 3.26225 1.55052e-19)
(0.0278576 3.31224 1.07048e-19)
(0.543789 0.560551 5.98185e-20)
(1.24348 1.37428 1.18339e-19)
(1.2011 1.38542 -1.64565e-20)
(1.1384 1.37423 1.17332e-20)
(1.06755 1.35968 0)
(0.987434 1.34294 -2.48479e-19)
(0.896693 1.32517 -2.57851e-19)
(0.792003 1.31064 3.22626e-20)
(0.667675 1.30475 -6.22871e-20)
(0.509394 1.32067 -9.35791e-19)
(0.315689 1.39041 -9.26866e-19)
(0.111904 1.54974 -6.24735e-19)
(-0.0598138 1.83006 -5.79302e-19)
(-0.136175 2.20482 4.26727e-19)
(-0.0706003 2.571 1.61781e-19)
(0.0360336 2.83489 0)
(0.111559 3.02754 0)
(0.15269 3.1661 1.3566e-19)
(0.14038 3.26181 0)
(0.0694932 3.31408 2.52625e-19)
(0.519343 0.555982 -1.07127e-19)
(1.24022 1.41053 -1.18706e-19)
(1.19475 1.41907 0)
(1.1311 1.40668 6.46106e-21)
(1.05997 1.39133 7.20791e-20)
(0.980313 1.37448 -3.33893e-19)
(0.890994 1.35756 -1.58346e-19)
(0.788192 1.34364 2.6608e-20)
(0.666709 1.33888 -4.47818e-19)