/*--------------------------------*- C++ -*----------------------------------*\
| =========                 |                                                 |
| \\      /  F ield         | OpenFOAM: The Open Source CFD Toolbox           |
|  \\    /   O peration     | Version:  2112                                  |
|   \\  /    A nd           | Website:  www.openfoam.com                      |
|    \\/     M anipulation  |                                                 |
\*---------------------------------------------------------------------------*/
FoamFile
{
    version     2.0;
    format      ascii;
    arch        "LSB;label=32;scalar=64";
    class       volScalarField;
    location    "60.5";
    object      p;
}
// * * * * * * * * * * * * * * * * * * * * * * * * * * * * * * * * * * * * * //

dimensions      [0 2 -2 0 0 0 0];

internalField   nonuniform List<scalar> 
8800
(
0.817006
0.76922
0.730532
0.701538
0.680677
0.665851
0.655261
0.647791
0.642986
0.64095
0.642241
0.64645
0.65311
0.662435
0.675222
0.692961
0.717741
0.751684
0.794236
0.852938
0.648253
0.655932
0.663409
0.666719
0.665217
0.660143
0.653662
0.647593
0.642883
0.640058
0.639801
0.642329
0.646835
0.652793
0.659571
0.665856
0.669501
0.668767
0.66335
0.654661
0.626654
0.632814
0.636942
0.639888
0.64194
0.642549
0.641449
0.639355
0.637356
0.636471
0.637459
0.639861
0.642676
0.644867
0.645482
0.644288
0.64195
0.63856
0.634003
0.630242
0.62084
0.623491
0.626243
0.628648
0.630286
0.631452
0.632201
0.63233
0.632052
0.632028
0.632808
0.634001
0.634857
0.634934
0.634333
0.633247
0.631436
0.628868
0.626467
0.624963
0.615454
0.616879
0.618659
0.620692
0.622479
0.623825
0.624822
0.625633
0.626267
0.62686
0.627542
0.628063
0.628181
0.627907
0.627219
0.625977
0.624287
0.622442
0.621137
0.620305
0.610371
0.611291
0.612533
0.614101
0.615737
0.617267
0.61856
0.619642
0.620629
0.621554
0.622279
0.622636
0.622615
0.62219
0.621321
0.620128
0.618807
0.617551
0.61673
0.616179
0.605456
0.606126
0.607088
0.608392
0.609804
0.611267
0.612716
0.614054
0.615278
0.616422
0.617284
0.617685
0.617625
0.617134
0.61634
0.615402
0.614396
0.613478
0.612894
0.612488
0.600662
0.601179
0.601963
0.603094
0.604375
0.605754
0.60721
0.608699
0.610154
0.611532
0.612585
0.613094
0.613097
0.612732
0.612144
0.61143
0.610665
0.609986
0.609554
0.609237
0.595919
0.596329
0.596985
0.597993
0.599201
0.600534
0.601989
0.603564
0.605215
0.606858
0.608157
0.608859
0.609055
0.60891
0.608544
0.608041
0.60748
0.606994
0.606673
0.606415
0.591138
0.591473
0.59204
0.592968
0.594128
0.595446
0.596937
0.59861
0.600449
0.602382
0.603999
0.604996
0.605469
0.605576
0.60544
0.60516
0.604793
0.604467
0.60423
0.604013
0.586233
0.586511
0.587017
0.587898
0.58904
0.590383
0.591947
0.59376
0.595828
0.598097
0.600116
0.601491
0.602296
0.602691
0.602807
0.602751
0.602577
0.602391
0.602223
0.602035
0.581115
0.581348
0.581815
0.582681
0.583844
0.585254
0.586935
0.588941
0.591304
0.593988
0.596499
0.598331
0.599523
0.60025
0.600646
0.600822
0.600842
0.600785
0.600672
0.600505
0.575692
0.575889
0.576337
0.577216
0.578443
0.579965
0.581817
0.584084
0.58682
0.590027
0.593134
0.595508
0.597155
0.598259
0.598969
0.599392
0.599622
0.599686
0.59962
0.599467
0.569862
0.570032
0.570476
0.571399
0.57273
0.574415
0.576504
0.579112
0.582323
0.586177
0.590007
0.593028
0.59521
0.596747
0.597815
0.598536
0.598973
0.599153
0.599127
0.598982
0.563509
0.563655
0.564112
0.565107
0.566588
0.568496
0.5709
0.573943
0.577753
0.582401
0.587107
0.590901
0.593716
0.595764
0.597239
0.598281
0.598956
0.599258
0.599269
0.599129
0.556495
0.556615
0.5571
0.558199
0.559882
0.562082
0.56489
0.568486
0.573041
0.578661
0.584424
0.589142
0.592706
0.595357
0.597312
0.598727
0.599665
0.600093
0.600137
0.599997
0.548638
0.548737
0.549265
0.550504
0.552448
0.555019
0.558341
0.562633
0.568111
0.574918
0.581957
0.587777
0.592225
0.595585
0.598115
0.599963
0.601197
0.601756
0.601833
0.601689
0.539713
0.539814
0.540396
0.541792
0.544067
0.547122
0.551099
0.556264
0.562886
0.571144
0.579714
0.586843
0.592334
0.596525
0.599736
0.602093
0.603658
0.604357
0.604463
0.604312
0.52941
0.529491
0.530164
0.531785
0.534494
0.538167
0.542972
0.549236
0.55728
0.56731
0.577713
0.586382
0.593101
0.59827
0.602262
0.605216
0.607157
0.608004
0.608136
0.607974
0.517358
0.517425
0.518197
0.52013
0.523396
0.527865
0.53373
0.541386
0.5512
0.563386
0.575973
0.586449
0.594593
0.600902
0.6058
0.609449
0.611801
0.612796
0.612948
0.612772
0.503005
0.503061
0.503976
0.506324
0.510327
0.515843
0.523089
0.532531
0.544562
0.55937
0.574537
0.58711
0.596882
0.604504
0.610451
0.614879
0.617668
0.618806
0.618969
0.618776
0.485591
0.485635
0.486762
0.489693
0.494707
0.501639
0.510727
0.522492
0.537313
0.555296
0.573478
0.588443
0.60006
0.609153
0.616269
0.621564
0.6248
0.626061
0.626224
0.62601
0.463958
0.464
0.465474
0.469286
0.475755
0.484681
0.496292
0.511127
0.529467
0.551263
0.57291
0.590542
0.604197
0.61492
0.623292
0.629519
0.633173
0.634517
0.634661
0.634426
0.436373
0.436435
0.438496
0.443728
0.452453
0.464308
0.479477
0.498387
0.521119
0.547418
0.572972
0.593512
0.609356
0.621819
0.631545
0.63868
0.642671
0.644032
0.644136
0.64388
0.399809
0.39997
0.403238
0.411085
0.423618
0.439943
0.460182
0.484446
0.512557
0.544047
0.573879
0.597487
0.615598
0.629852
0.640959
0.64889
0.653062
0.654347
0.654387
0.654114
0.348469
0.349445
0.35594
0.369159
0.388308
0.411549
0.438776
0.469804
0.504254
0.541509
0.575856
0.602586
0.622969
0.638951
0.651363
0.659867
0.663995
0.665101
0.665065
0.664782
0.273447
0.280705
0.295726
0.319
0.348016
0.38052
0.416291
0.455114
0.496602
0.540114
0.579303
0.60939
0.63222
0.650105
0.663779
0.672676
0.676624
0.677533
0.677453
0.677206
0.1928
0.209979
0.234322
0.268305
0.307567
0.349466
0.39385
0.440656
0.489581
0.540046
0.584997
0.619269
0.645122
0.665297
0.680471
0.689523
0.692966
0.6936
0.693541
0.693384
0.125589
0.145824
0.177873
0.220952
0.269266
0.320017
0.372757
0.427406
0.483636
0.540857
0.591302
0.629489
0.658163
0.680296
0.696349
0.705196
0.70828
0.708844
0.708841
0.708732
0.070548
0.0924375
0.129994
0.179505
0.234977
0.293195
0.353333
0.415177
0.478263
0.541926
0.59761
0.63948
0.670715
0.694547
0.71149
0.720449
0.72344
0.724059
0.724095
0.724012
0.0247371
0.0478039
0.0891444
0.143762
0.204986
0.269368
0.335858
0.404106
0.473492
0.543197
0.603852
0.649221
0.682905
0.708418
0.726336
0.73569
0.738916
0.739425
0.739481
0.739425
-0.0141124
0.0096181
0.0538213
0.112481
0.178544
0.248175
0.320193
0.394143
0.469267
0.544599
0.609963
0.658691
0.694756
0.721934
0.740868
0.750862
0.75426
0.754809
0.754873
0.754846
-0.0480254
-0.0238616
0.0226056
0.0846006
0.154752
0.228949
0.305864
0.384954
0.465361
0.545972
0.615818
0.667771
0.706125
0.734945
0.754857
0.765474
0.769176
0.769802
0.769885
0.769879
-0.0784978
-0.0539535
-0.00564247
0.0592022
0.132878
0.211076
0.292387
0.376176
0.461495
0.547095
0.621225
0.67627
0.716803
0.747132
0.768031
0.779213
0.783234
0.784002
0.784085
0.784084
-0.106495
-0.0816084
-0.0317208
0.0355806
0.112358
0.194105
0.279372
0.367466
0.457377
0.547734
0.626006
0.684034
0.72664
0.758372
0.780161
0.791859
0.796151
0.797054
0.79713
0.797126
-0.132818
-0.107543
-0.0562043
0.0132153
0.0927608
0.177672
0.266512
0.358569
0.452795
0.547721
0.630047
0.690986
0.735581
0.768627
0.791147
0.803231
0.807723
0.808699
0.808763
0.808742
-0.157844
-0.13217
-0.079596
-0.00823262
0.0737718
0.161522
0.253602
0.349311
0.447596
0.546937
0.63327
0.69712
0.743653
0.777898
0.800987
0.813366
0.817953
0.818967
0.81901
0.818965
-0.181998
-0.155816
-0.102212
-0.0290098
0.0551817
0.145478
0.240502
0.339571
0.441668
0.54528
0.635627
0.702448
0.750927
0.786311
0.809909
0.822364
0.826979
0.827986
0.827996
0.827929
-0.205414
-0.178804
-0.124103
-0.0492861
0.0368597
0.129439
0.227122
0.329276
0.434942
0.542689
0.637088
0.706999
0.757517
0.794015
0.817975
0.830412
0.834964
0.835934
0.835929
0.83584
-0.228227
-0.201127
-0.145402
-0.0691557
0.0187417
0.113358
0.213428
0.31839
0.42738
0.539109
0.637607
0.7108
0.763528
0.801193
0.825422
0.8377
0.842083
0.842969
0.842926
0.842815
-0.250573
-0.222924
-0.166209
-0.088654
0.000793313
0.0972251
0.199428
0.306925
0.418973
0.5345
0.637132
0.713853
0.769076
0.808014
0.832408
0.844354
0.848437
0.849186
0.849094
0.848964
-0.272482
-0.24419
-0.186562
-0.107788
-0.0169602
0.0810627
0.185158
0.294914
0.409741
0.528834
0.635603
0.716122
0.774222
0.81466
0.839153
0.850524
0.85411
0.854649
0.85451
0.854371
-0.2938
-0.264901
-0.206397
-0.126539
-0.0344941
0.0649291
0.17067
0.282422
0.399733
0.522125
0.632946
0.717539
0.778969
0.821316
0.845962
0.85646
0.859235
0.859438
0.859248
0.859113
-0.314511
-0.285034
-0.225708
-0.144865
-0.0517569
0.0488771
0.15605
0.269522
0.389021
0.514393
0.629108
0.717984
0.783245
0.828101
0.853254
0.862689
0.864135
0.863655
0.863372
0.863294
-0.334685
-0.304557
-0.244471
-0.162742
-0.06869
0.0329853
0.141379
0.256313
0.37769
0.505694
0.624037
0.717304
0.786878
0.834963
0.861418
0.870104
0.869698
0.867708
0.867045
0.867259
-0.354154
-0.323451
-0.262635
-0.180112
-0.0852389
0.0173333
0.126748
0.2429
0.365851
0.496118
0.617717
0.715318
0.789595
0.841575
0.870477
0.87973
0.877897
0.873498
0.870993
0.870667
-0.373013
-0.341706
-0.280219
-0.197006
-0.101436
0.00187874
0.112104
0.229229
0.353441
0.485592
0.610014
0.711752
0.791096
0.847435
0.879816
0.891888
0.891165
0.884486
0.876611
0.862682
-0.391191
-0.35931
-0.297339
-0.213626
-0.117562
-0.0137023
0.0970411
0.214832
0.33994
0.473501
0.600304
0.70585
0.790855
0.851866
0.887788
0.904506
0.905476
0.892707
0.872718
0.861384
-0.408514
-0.376402
-0.313803
-0.229774
-0.133266
-0.0290721
0.0817808
0.200026
0.325644
0.460092
0.588633
0.697111
0.788004
0.853687
0.890249
0.906812
0.910254
0.886553
0.818962
0.788672
-0.424321
-0.394235
-0.32929
-0.244969
-0.147756
-0.0437327
0.0666379
0.185038
0.310767
0.445481
0.574917
0.685202
0.781062
0.852183
0.882119
0.893435
0.881425
0.826609
0.757467
0.714956
-0.479534
-0.409962
-0.343318
-0.260346
-0.162661
-0.0591493
0.0515437
0.169584
0.294935
0.429202
0.558526
0.669431
0.766062
0.843707
0.84727
0.848731
0.797496
0.726213
0.649203
0.606361
-0.441017
-0.425049
-0.364264
-0.280239
-0.184728
-0.0812678
0.0283882
0.145762
0.2701
0.402924
0.530312
0.639625
0.728578
0.811277
0.796419
0.681087
0.574608
0.500566
0.426686
0.456738
-0.471681
-0.442469
-0.380788
-0.297594
-0.202098
-0.0987614
0.011152
0.127875
0.251126
0.382121
0.506688
0.611761
0.691054
0.735115
0.685337
0.534533
0.405458
0.313261
0.214099
0.263731
-0.495287
-0.463143
-0.400263
-0.316928
-0.221313
-0.118084
-0.00826538
0.107609
0.229439
0.358
0.478781
0.577595
0.647957
0.65732
0.549235
0.375049
0.221324
0.101773
-0.0297591
0.00287115
-0.518369
-0.484702
-0.420648
-0.336391
-0.240702
-0.137633
-0.0283487
0.0865458
0.206755
0.332496
0.44852
0.539452
0.594431
0.572015
0.412116
0.214783
0.023747
-0.144672
-0.333433
-0.352068
-0.540852
-0.506737
-0.441795
-0.356763
-0.260939
-0.1581
-0.0494783
0.0643097
0.182637
0.305154
0.415706
0.498643
0.533913
0.475103
0.281623
0.0703102
-0.147474
-0.337092
-0.579228
-0.876437
-0.563622
-0.529501
-0.464022
-0.378506
-0.282502
-0.179839
-0.0718104
0.0408349
0.15717
0.276193
0.380971
0.455274
0.469321
0.359385
0.168071
-0.0425361
-0.247343
-0.420039
-0.489741
-0.568742
-0.587633
-0.553445
-0.487669
-0.401929
-0.305879
-0.203488
-0.0961463
0.015181
0.129204
0.244201
0.342781
0.40591
0.39487
0.251286
0.0671542
-0.12442
-0.287826
-0.381147
-0.405375
-0.421269
-0.613186
-0.57887
-0.512906
-0.427106
-0.331199
-0.229253
-0.122841
-0.0131351
0.0981556
0.208475
0.300357
0.349247
0.320466
0.15091
-0.0242728
-0.19078
-0.317829
-0.357157
-0.370053
-0.371374
-0.640481
-0.60595
-0.539794
-0.45403
-0.358409
-0.257138
-0.15191
-0.044161
0.0639637
0.169024
0.253315
0.287815
0.239236
0.0581958
-0.107893
-0.256941
-0.333547
-0.350745
-0.352077
-0.351884
-0.669575
-0.634744
-0.568354
-0.482698
-0.387521
-0.287127
-0.183355
-0.0779082
0.0266418
0.125933
0.20173
0.22428
0.139634
-0.0265457
-0.184208
-0.307051
-0.343989
-0.342381
-0.341491
-0.340885
-0.70018
-0.665067
-0.598479
-0.513016
-0.418446
-0.319163
-0.217141
-0.114347
-0.0137699
0.0793133
0.146473
0.15208
0.0487754
-0.105338
-0.244786
-0.320615
-0.331253
-0.334169
-0.334947
-0.334685
-0.731739
-0.696472
-0.62991
-0.544753
-0.450992
-0.353084
-0.253112
-0.153342
-0.0570884
0.0295277
0.0880339
0.0786261
-0.0329996
-0.172404
-0.28917
-0.320974
-0.32936
-0.330886
-0.330751
-0.330504
-0.763781
-0.7284
-0.662191
-0.577506
-0.484809
-0.388566
-0.290987
-0.194602
-0.103035
-0.0227206
0.0254375
0.00918996
-0.108262
-0.227801
-0.320515
-0.336284
-0.328637
-0.32785
-0.327842
-0.327638
-0.795402
-0.760115
-0.694434
-0.610675
-0.519346
-0.425127
-0.330312
-0.23765
-0.151136
-0.0768011
-0.0383478
-0.0540586
-0.174085
-0.272584
-0.323955
-0.33393
-0.330127
-0.327827
-0.326833
-0.326481
-0.825015
-0.790431
-0.725659
-0.643328
-0.553827
-0.462063
-0.370429
-0.281814
-0.200588
-0.132169
-0.0969299
-0.123569
-0.226004
-0.315709
-0.32039
-0.33247
-0.331838
-0.32761
-0.325878
-0.325132
-0.851007
-0.817509
-0.754724
-0.674257
-0.587199
-0.498426
-0.410463
-0.326248
-0.250298
-0.188004
-0.152466
-0.188893
-0.264666
-0.337089
-0.369916
-0.349225
-0.335988
-0.330642
-0.328717
-0.327682
-0.871231
-0.839461
-0.779549
-0.702026
-0.618159
-0.533052
-0.449316
-0.369913
-0.299213
-0.243079
-0.209704
-0.241597
-0.282911
-0.337623
-0.387718
-0.360254
-0.34818
-0.34688
-0.345712
-0.344363
-0.883416
-0.85436
-0.798194
-0.724732
-0.645171
-0.564581
-0.485745
-0.411572
-0.346317
-0.296145
-0.264713
-0.289763
-0.279743
-0.268834
-0.285324
-0.339526
-0.372881
-0.382228
-0.38178
-0.382149
-0.88488
-0.859899
-0.808665
-0.740514
-0.66649
-0.59154
-0.518329
-0.449891
-0.390436
-0.346244
-0.312107
-0.348402
-0.337244
-0.250325
-0.304634
-0.373756
-0.401726
-0.407304
-0.408944
-0.410597
-0.873426
-0.853308
-0.808743
-0.747717
-0.680568
-0.612347
-0.545608
-0.483355
-0.430067
-0.39178
-0.35974
-0.426488
-0.54715
-0.614361
-0.579744
-0.517316
-0.471476
-0.452527
-0.446497
-0.445405
-0.846984
-0.831842
-0.796581
-0.745036
-0.686325
-0.625859
-0.566191
-0.510237
-0.463035
-0.430906
-0.405675
-0.490914
-0.674246
-0.999551
-0.883729
-0.625618
-0.484752
-0.437732
-0.422702
-0.417365
-0.808016
-0.798245
-0.772891
-0.732581
-0.683648
-0.631693
-0.579097
-0.529104
-0.486418
-0.459271
-0.438854
-0.417812
-0.337377
-0.350238
-0.347402
-0.300269
-0.284269
-0.280293
-0.274807
-0.27054
-0.763153
-0.757618
-0.742463
-0.713062
-0.674425
-0.630491
-0.584515
-0.538939
-0.498443
-0.469402
-0.441828
-0.2856
0.0102534
0.408765
0.465758
0.195345
-0.0225261
-0.131143
-0.165057
-0.170185
-0.722118
-0.718782
-0.711453
-0.691886
-0.661585
-0.624436
-0.58357
-0.540692
-0.499161
-0.465881
-0.446696
-0.355216
-0.270163
-0.186791
-0.340854
-0.621224
-0.707311
-0.648249
-0.570616
-0.564828
-0.69179
-0.689656
-0.685854
-0.673693
-0.649631
-0.617029
-0.578719
-0.536073
-0.491034
-0.452438
-0.429494
-0.506775
-0.902714
-1.61854
-2.25503
-2.45585
-2.31423
-2.03562
-1.78446
-1.65786
-0.668396
-0.667547
-0.666252
-0.660142
-0.641459
-0.611118
-0.57258
-0.527225
-0.477317
-0.420531
-0.378998
-0.399634
-0.665465
-0.981499
-1.25448
-1.27589
-1.05877
-0.785592
-0.600912
-0.520743
-0.654666
-0.654332
-0.653701
-0.650884
-0.637167
-0.607676
-0.566527
-0.517124
-0.4573
-0.384941
-0.313446
-0.225882
-0.14881
0.00539756
0.219998
0.490745
0.808209
1.02113
1.12559
1.15838
-0.645494
-0.645177
-0.644309
-0.643177
-0.635047
-0.607158
-0.563064
-0.507548
-0.439952
-0.357506
-0.249567
-0.127893
0.0787988
0.483549
0.965454
1.4302
1.7818
1.97453
2.05332
2.0726
-0.641445
-0.641092
-0.640257
-0.639877
-0.635931
-0.610793
-0.562732
-0.501338
-0.426878
-0.329167
-0.21059
-0.0869086
0.15351
0.603064
1.0965
1.53982
1.85679
2.02276
2.08324
2.09551
-0.640706
-0.641281
-0.643133
-0.645687
-0.644258
-0.617691
-0.566261
-0.501018
-0.419361
-0.317554
-0.200437
-0.075856
0.101336
0.499343
0.905196
1.26292
1.51193
1.63827
1.68171
1.68988
-0.636211
-0.63728
-0.639343
-0.641666
-0.640479
-0.617686
-0.572382
-0.50676
-0.421106
-0.31713
-0.204692
-0.0911726
0.0432185
0.340608
0.641547
0.890812
1.06215
1.14442
1.1725
1.1774
-0.64634
-0.644496
-0.632301
-0.605138
-0.59209
-0.601649
-0.583627
-0.519341
-0.429654
-0.324794
-0.220983
-0.120709
-0.0144282
0.186949
0.387561
0.542082
0.64167
0.688611
0.708202
0.713803
-0.698351
-0.692924
-0.677449
-0.652802
-0.641995
-0.651326
-0.62406
-0.543082
-0.441441
-0.333308
-0.239723
-0.160699
-0.0827262
0.0650655
0.199373
0.288818
0.341714
0.368673
0.384586
0.390506
-0.808783
-0.817901
-0.845285
-0.874067
-0.868944
-0.829344
-0.714629
-0.577935
-0.450238
-0.339965
-0.257336
-0.197785
-0.142971
-0.0332625
0.0682131
0.139439
0.182494
0.206241
0.219503
0.223664
-0.925393
-0.948896
-0.992937
-1.02291
-1.01435
-0.947455
-0.774297
-0.593866
-0.448583
-0.336933
-0.263062
-0.219527
-0.183231
-0.0864484
-0.00192723
0.0593266
0.104577
0.130205
0.141761
0.144192
-0.896115
-0.916538
-0.952913
-0.980585
-0.972268
-0.893494
-0.720659
-0.553378
-0.417558
-0.316504
-0.253293
-0.220859
-0.195987
-0.110847
-0.0367932
0.0171019
0.0573076
0.0796111
0.0883264
0.0891763
-0.654763
-0.675309
-0.710759
-0.743823
-0.745043
-0.677388
-0.560113
-0.446522
-0.351462
-0.275447
-0.224043
-0.195489
-0.16515
-0.104562
-0.0512472
-0.00996886
0.0216547
0.0396422
0.0464554
0.0464934
-0.307744
-0.319302
-0.341933
-0.370773
-0.389683
-0.380331
-0.350844
-0.308875
-0.265296
-0.220733
-0.182326
-0.150237
-0.116295
-0.078776
-0.0455435
-0.0183221
0.00245794
0.014884
0.0199581
0.0196721
-0.0312562
-0.0365111
-0.0514973
-0.0785661
-0.114717
-0.149695
-0.172688
-0.183283
-0.179566
-0.162639
-0.137733
-0.106922
-0.0771249
-0.0581744
-0.0399991
-0.023258
-0.00966537
-0.000839917
0.00130257
0.000193171
0.108763
0.106037
0.0954905
0.0711043
0.0313688
-0.0167101
-0.0604049
-0.0931737
-0.110801
-0.112016
-0.0977505
-0.0757808
-0.0569879
-0.0485161
-0.0395331
-0.0288514
-0.0195191
-0.0143712
-0.0135264
-0.01516
0.146882
0.145164
0.137479
0.118313
0.0852563
0.0430278
-0.000122586
-0.0374146
-0.0632096
-0.0741115
-0.0691179
-0.0568229
-0.0494083
-0.0501448
-0.0462696
-0.041475
-0.0368278
-0.035733
-0.0366911
-0.0382675
0.137405
0.136215
0.130884
0.117398
0.0936275
0.0618979
0.0265471
-0.00694855
-0.0337219
-0.0492815
-0.0504958
-0.0455384
-0.0453136
-0.0525605
-0.0549572
-0.0572534
-0.0601258
-0.0645103
-0.0670592
-0.0679059
0.112144
0.111368
0.107838
0.09882
0.0825381
0.0598331
0.0327601
0.00519028
-0.0191094
-0.0357424
-0.0399218
-0.0368092
-0.0384216
-0.0499121
-0.0618358
-0.0711131
-0.0793544
-0.0864508
-0.0892389
-0.0896212
0.0846704
0.0841851
0.081888
0.0759363
0.0649164
0.0489014
0.0286972
0.0065094
-0.0150786
-0.0322967
-0.0388274
-0.0352785
-0.033313
-0.0511152
-0.0685355
-0.0809022
-0.0904524
-0.0965195
-0.098515
-0.0988891
0.0599544
0.0596184
0.0581212
0.0541469
0.0466007
0.035171
0.0199079
0.00174287
-0.0180302
-0.0375247
-0.0509488
-0.0531679
-0.0532797
-0.0706887
-0.085008
-0.0936866
-0.0990843
-0.101773
-0.102708
-0.103262
0.0396236
0.0393793
0.0383203
0.0356148
0.0303402
0.0219713
0.0101121
-0.00526267
-0.0244465
-0.0481899
-0.0753109
-0.0990332
-0.111313
-0.117892
-0.117203
-0.114344
-0.112995
-0.112044
-0.112168
-0.112793
0.0239351
0.0237679
0.0230174
0.0211493
0.0174706
0.0112146
0.00186972
-0.0114252
-0.0303329
-0.0587365
-0.101899
-0.15619
-0.184488
-0.173281
-0.151687
-0.1378
-0.131167
-0.129378
-0.12894
-0.129139
0.0126745
0.0125412
0.0120054
0.0107607
0.00820806
0.00370483
-0.00351116
-0.0144688
-0.0318044
-0.0618287
-0.11276
-0.184491
-0.217452
-0.19141
-0.160959
-0.146524
-0.141756
-0.14076
-0.13985
-0.139453
0.00542561
0.00532567
0.00498226
0.00422598
0.00261658
-0.00039936
-0.00553008
-0.0138215
-0.0274814
-0.0528986
-0.0988575
-0.160921
-0.180045
-0.154013
-0.134316
-0.127979
-0.128985
-0.129962
-0.128807
-0.127909
0.00151842
0.00147371
0.00132288
0.000959644
0.000159028
-0.00139944
-0.00421564
-0.00915652
-0.0176091
-0.033238
-0.061409
-0.0968657
-0.098826
-0.0848707
-0.0773541
-0.0809221
-0.0849127
-0.086398
-0.0854948
-0.0845806
-3.0585e-05
-4.11173e-06
-3.90041e-05
-2.65254e-05
8.37875e-05
3.00165e-05
-0.000335031
-0.00106054
-0.00221958
-0.00432215
-0.00823557
-0.0140529
-0.0214631
-0.0207784
-0.0207693
-0.0199067
-0.0212309
-0.0196666
-0.0183968
-0.0179624
-0.105594
0.0610087
0.255369
0.424991
0.560358
0.666762
0.754644
0.829506
0.863713
0.840459
0.196095
0.316517
0.446032
0.557886
0.652068
0.729927
0.792965
0.837749
0.860169
0.872297
0.414242
0.496811
0.585318
0.663424
0.730566
0.786737
0.831421
0.864089
0.887731
0.905747
0.574581
0.633692
0.695066
0.751991
0.801472
0.843503
0.878044
0.905618
0.928359
0.94668
0.699686
0.742661
0.788504
0.832181
0.870778
0.904502
0.93338
0.95743
0.977784
0.995633
0.803795
0.836591
0.874623
0.910088
0.942653
0.971855
0.997382
1.01885
1.03668
1.05403
0.896211
0.924859
0.958776
0.990866
1.02078
1.04792
1.07165
1.09135
1.10685
1.12392
0.984721
1.0139
1.04787
1.07989
1.10947
1.13604
1.15889
1.17737
1.19073
1.20777
1.07999
1.11318
1.1498
1.18337
1.2134
1.23957
1.26152
1.27879
1.29065
1.30805
1.19496
1.23277
1.2714
1.30564
1.33498
1.35972
1.38008
1.39597
1.40743
1.4255
1.33988
1.37842
1.41455
1.44523
1.4709
1.49299
1.51205
1.52757
1.54
1.55799
1.51495
1.54657
1.57274
1.59518
1.61516
1.63388
1.65159
1.66807
1.68341
1.70148
1.70355
1.72075
1.73579
1.75201
1.76792
1.78245
1.79565
1.80958
1.82712
1.84727
1.88527
1.89481
1.90635
1.91715
1.92644
1.93602
1.9468
1.95817
1.96953
1.98488
2.0925
2.09616
2.08122
2.06641
2.06013
2.06581
2.08428
2.11459
2.14677
2.17343
2.39882
2.26396
2.18732
2.14493
2.12751
2.13148
2.15887
2.21529
2.31791
2.54227
0.707604
0.705476
0.700993
0.692369
0.680147
0.66802
0.657795
0.649905
0.644297
0.641054
0.640714
0.643466
0.648581
0.655811
0.665203
0.676745
0.689398
0.700434
0.706546
0.709601
0.632054
0.637901
0.644235
0.648728
0.6512
0.650878
0.648145
0.644341
0.64084
0.638592
0.63846
0.640672
0.644345
0.648641
0.652453
0.654339
0.653405
0.649925
0.644763
0.638142
0.623623
0.625919
0.629323
0.63232
0.634397
0.635896
0.636656
0.636345
0.635329
0.63446
0.634651
0.636093
0.637919
0.639232
0.639417
0.63853
0.636984
0.634649
0.631387
0.628467
0.618103
0.619189
0.621023
0.623402
0.625427
0.626858
0.627883
0.628642
0.629054
0.629291
0.6298
0.630623
0.631232
0.631307
0.6309
0.630055
0.628588
0.626506
0.624421
0.623039
0.612888
0.613551
0.614659
0.616365
0.618149
0.619783
0.621084
0.622107
0.623002
0.623809
0.624559
0.625128
0.625334
0.625176
0.624615
0.623565
0.622139
0.620598
0.619282
0.618502
0.607897
0.608358
0.609144
0.610443
0.611932
0.613452
0.614922
0.616228
0.617377
0.618452
0.61939
0.619978
0.620138
0.619874
0.619183
0.618199
0.617077
0.615947
0.615034
0.614517
0.60305
0.603394
0.604005
0.605075
0.60637
0.607747
0.609191
0.610646
0.612033
0.613335
0.614471
0.615185
0.615379
0.615116
0.614525
0.613754
0.612908
0.612045
0.611375
0.610997
0.598292
0.59856
0.599053
0.599962
0.601134
0.602433
0.603833
0.605331
0.606887
0.608431
0.609808
0.610704
0.611025
0.610918
0.610535
0.609983
0.609341
0.608706
0.608217
0.607929
0.593541
0.593754
0.594164
0.594963
0.596054
0.597306
0.598697
0.600242
0.60193
0.603712
0.605377
0.606536
0.607097
0.607232
0.607079
0.606747
0.606312
0.605869
0.60552
0.605294
0.58871
0.588881
0.589233
0.589959
0.591003
0.592234
0.593652
0.595282
0.597127
0.599164
0.601174
0.602689
0.603573
0.603995
0.604094
0.603992
0.603769
0.603499
0.603266
0.603086
0.58371
0.583848
0.584158
0.584839
0.585867
0.587121
0.588607
0.590362
0.592419
0.594767
0.597197
0.599157
0.600429
0.601184
0.60157
0.601712
0.601699
0.601596
0.601461
0.601317
0.578451
0.578562
0.578844
0.579506
0.580552
0.581876
0.583472
0.585408
0.587742
0.590484
0.593432
0.595928
0.597657
0.598797
0.599507
0.599915
0.600118
0.600185
0.600137
0.600019
0.572838
0.572926
0.573192
0.573859
0.574959
0.576394
0.578156
0.58034
0.583029
0.586271
0.589855
0.592992
0.595263
0.59685
0.597924
0.598645
0.599091
0.599315
0.599342
0.599246
0.566762
0.56683
0.567089
0.567783
0.568975
0.570569
0.57256
0.575072
0.578215
0.582081
0.586442
0.59035
0.593264
0.595375
0.596868
0.597936
0.598649
0.599045
0.599145
0.599066
0.560095
0.560143
0.560404
0.561149
0.562473
0.564281
0.566575
0.569505
0.573224
0.577861
0.583167
0.588004
0.591682
0.594412
0.596397
0.597852
0.598876
0.599457
0.599628
0.599563
0.552683
0.552713
0.552979
0.553797
0.555298
0.557386
0.560067
0.563531
0.567969
0.573554
0.580008
0.58596
0.590547
0.594005
0.596574
0.598493
0.599866
0.600647
0.600888
0.600833
0.544331
0.544347
0.544616
0.54553
0.547266
0.549699
0.55288
0.557018
0.562356
0.569107
0.576954
0.584238
0.589901
0.594216
0.597474
0.599948
0.601719
0.602717
0.60303
0.602983
0.53473
0.534716
0.535045
0.536102
0.538122
0.54101
0.544826
0.549815
0.556274
0.564463
0.573995
0.582863
0.589796
0.595121
0.599186
0.60231
0.604539
0.605778
0.606163
0.60612
0.523593
0.523554
0.523928
0.525179
0.52757
0.531047
0.535672
0.54174
0.549606
0.559567
0.571131
0.581876
0.590293
0.5968
0.601813
0.605681
0.60844
0.609936
0.610392
0.610349
0.510437
0.510372
0.510824
0.512328
0.515205
0.519449
0.525122
0.532573
0.542215
0.55436
0.568364
0.581315
0.591454
0.599325
0.605443
0.61017
0.613519
0.615284
0.615802
0.615754
0.494615
0.494521
0.495098
0.496953
0.500482
0.505751
0.512815
0.522076
0.533981
0.548823
0.565739
0.581253
0.593361
0.602779
0.610157
0.615853
0.619845
0.621877
0.622445
0.622386
0.47519
0.475068
0.475848
0.478219
0.482664
0.489357
0.498321
0.509992
0.52481
0.542982
0.56334
0.581778
0.596098
0.607241
0.616
0.62278
0.627444
0.629718
0.630311
0.630233
0.450745
0.450607
0.45172
0.45489
0.460723
0.469503
0.481161
0.496111
0.514691
0.536933
0.561294
0.583008
0.599745
0.612774
0.623013
0.63096
0.636265
0.638722
0.639305
0.6392
0.418979
0.418862
0.420586
0.425139
0.433271
0.445296
0.460903
0.480354
0.503747
0.530882
0.559801
0.585088
0.60439
0.619403
0.631214
0.640317
0.646158
0.648694
0.649221
0.649082
0.37574
0.375785
0.378851
0.386285
0.398681
0.416
0.437454
0.462968
0.492356
0.525197
0.559145
0.588195
0.61013
0.627151
0.640511
0.650696
0.65685
0.659299
0.659719
0.659546
0.313271
0.314471
0.321963
0.335825
0.356005
0.381742
0.411425
0.444661
0.481145
0.520352
0.559613
0.592481
0.617007
0.635961
0.650744
0.661715
0.667903
0.670025
0.670278
0.670083
0.239195
0.240951
0.25529
0.279086
0.310179
0.345859
0.384523
0.425991
0.470073
0.516285
0.561694
0.599275
0.627147
0.648543
0.665025
0.676776
0.682825
0.684693
0.684908
0.684808
0.162762
0.168935
0.190109
0.224132
0.265617
0.310942
0.358547
0.408297
0.460073
0.513421
0.565158
0.607599
0.638901
0.662841
0.681216
0.693505
0.699021
0.700424
0.700569
0.700537
0.10024
0.108714
0.134449
0.175477
0.225104
0.278664
0.334337
0.391846
0.450963
0.51117
0.568972
0.616005
0.650495
0.676682
0.696319
0.70892
0.714342
0.715576
0.715739
0.715764
0.0493914
0.0584614
0.0877403
0.134
0.189776
0.249974
0.312469
0.376823
0.442642
0.509284
0.572848
0.624241
0.661714
0.689986
0.710995
0.724109
0.729371
0.730818
0.731077
0.731143
0.00684138
0.0161925
0.0479174
0.0981699
0.158991
0.224697
0.292981
0.363333
0.435194
0.507777
0.576761
0.632308
0.672642
0.702971
0.725337
0.739058
0.744727
0.746411
0.746692
0.746778
-0.0297727
-0.0203113
0.0132506
0.0667033
0.131698
0.202105
0.275438
0.351101
0.428426
0.506499
0.580593
0.640106
0.683206
0.715514
0.739201
0.753853
0.759981
0.761825
0.762138
0.762217
-0.0621224
-0.0526257
-0.017654
0.038502
0.106992
0.181451
0.259247
0.339691
0.422035
0.505237
0.584178
0.647486
0.693237
0.727433
0.752419
0.76786
0.774546
0.776563
0.77689
0.776957
-0.0914898
-0.0819543
-0.0458256
0.0126626
0.0841492
0.162156
0.243926
0.328714
0.415691
0.50372
0.587293
0.654252
0.70254
0.738508
0.76471
0.780908
0.788106
0.790257
0.790595
0.790633
-0.118752
-0.10917
-0.0720273
-0.0115266
0.0626304
0.14378
0.229102
0.317838
0.409115
0.501718
0.589771
0.660284
0.711012
0.748658
0.775932
0.792738
0.800374
0.802645
0.802984
0.802997
-0.144472
-0.134832
-0.0967368
-0.034537
0.0420264
0.125976
0.214497
0.306838
0.402113
0.499069
0.591489
0.665516
0.718632
0.757869
0.786089
0.80337
0.811233
0.81361
0.813951
0.813938
-0.169152
-0.159358
-0.120409
-0.0566444
0.0220609
0.108509
0.199919
0.295553
0.39455
0.495652
0.592357
0.669922
0.725436
0.766194
0.795274
0.812909
0.820853
0.82323
0.823573
0.823533
-0.193042
-0.183032
-0.143341
-0.078054
0.0025519
0.0912281
0.185244
0.283882
0.386329
0.491381
0.592315
0.673487
0.731481
0.773776
0.803596
0.821425
0.829359
0.831701
0.832013
0.831951
-0.216253
-0.206038
-0.165574
-0.0989147
-0.0166176
0.0740573
0.170406
0.271769
0.3774
0.486193
0.591308
0.676212
0.736835
0.780746
0.811252
0.829157
0.836968
0.839212
0.839473
0.839385
-0.238955
-0.228444
-0.187234
-0.119308
-0.0355011
0.0569529
0.155384
0.259202
0.36775
0.480061
0.589281
0.678072
0.741564
0.787261
0.818434
0.836255
0.843815
0.845892
0.846084
0.845974
-0.261109
-0.250328
-0.208397
-0.139279
-0.0541083
0.0399208
0.140203
0.246209
0.357393
0.472969
0.586186
0.679018
0.745711
0.793458
0.825326
0.842896
0.850003
0.851813
0.851905
0.851769
-0.282778
-0.271697
-0.228997
-0.158815
-0.0724254
0.022989
0.124897
0.232841
0.346376
0.464933
0.581981
0.67898
0.749256
0.799447
0.832171
0.849304
0.855652
0.857028
0.857
0.856849
-0.303799
-0.292487
-0.249034
-0.17788
-0.0904111
0.00622322
0.109528
0.219163
0.334766
0.456003
0.576638
0.677872
0.752122
0.805282
0.839249
0.85588
0.861073
0.861679
0.861439
0.861288
-0.32431
-0.312659
-0.268499
-0.19646
-0.108037
-0.0103408
0.0941851
0.205255
0.322647
0.446255
0.57016
0.675589
0.754162
0.8109
0.846791
0.863223
0.866933
0.866104
0.865311
0.865162
-0.344152
-0.33219
-0.287363
-0.214511
-0.125227
-0.0266213
0.0789459
0.191233
0.310125
0.435748
0.562582
0.672023
0.755173
0.81608
0.854766
0.871985
0.874557
0.871529
0.8691
0.868218
-0.363386
-0.351125
-0.305575
-0.231985
-0.141949
-0.0425509
0.0638923
0.177174
0.297309
0.424615
0.55397
0.667067
0.754913
0.820433
0.862668
0.88227
0.885496
0.880976
0.874509
0.866234
-0.381929
-0.369422
-0.323228
-0.249037
-0.158406
-0.0583967
0.048698
0.162691
0.283765
0.412372
0.543807
0.660182
0.75291
0.823631