/*--------------------------------*- C++ -*----------------------------------*\
| =========                 |                                                 |
| \\      /  F ield         | OpenFOAM: The Open Source CFD Toolbox           |
|  \\    /   O peration     | Version:  2112                                  |
|   \\  /    A nd           | Website:  www.openfoam.com                      |
|    \\/     M anipulation  |                                                 |
\*---------------------------------------------------------------------------*/
FoamFile
{
    version     2.0;
    format      ascii;
    arch        "LSB;label=32;scalar=64";
    class       volVectorField;
    location    "60.5";
    object      U;
}
// * * * * * * * * * * * * * * * * * * * * * * * * * * * * * * * * * * * * * //

dimensions      [0 1 -1 0 0 0 0];

internalField   nonuniform List<vector> 
8800
(
(0.980139 -0.0915207 0)
(1.00234 -0.0587301 0)
(0.999581 -0.0321294 0)
(0.999975 -0.0165232 0)
(1.00007 -0.00884312 0)
(1.00009 -0.00509849 0)
(1.00006 -0.00299459 0)
(1.00002 -0.00168313 0)
(1 -0.000780911 0)
(1.00006 -8.17638e-05 0)
(0.999987 0.000627397 0)
(0.999994 0.00138323 0)
(1.00002 0.00240783 0)
(1.00005 0.00400814 0)
(1.00004 0.00675097 0)
(0.999996 0.0120513 0)
(0.999797 0.0230948 0)
(0.999031 0.0431562 0)
(1.00724 0.0790254 0)
(0.775025 0.0478395 0)
(0.358992 -0.0147483 0)
(1.0465 -0.0724812 0)
(1.08847 -0.0660181 0)
(1.04944 -0.0509113 0)
(1.02554 -0.0376905 0)
(1.01274 -0.0258852 0)
(1.00658 -0.0166888 0)
(1.00364 -0.0101967 0)
(1.00219 -0.00556259 0)
(1.00152 -0.0019652 0)
(1.00138 0.00124951 0)
(1.00173 0.00456 0)
(1.0027 0.00844881 0)
(1.00475 0.013758 0)
(1.00898 0.0214288 0)
(1.01795 0.0319154 0)
(1.03579 0.0446852 0)
(1.06741 0.0581249 0)
(1.09469 0.0699544 0)
(0.845614 0.0555085 0)
(0.217805 -0.0013802 0)
(1.07568 -0.0506412 0)
(1.09942 -0.0489217 0)
(1.06439 -0.040003 0)
(1.03991 -0.0325423 0)
(1.02382 -0.0253267 0)
(1.01404 -0.0181021 0)
(1.00852 -0.0114737 0)
(1.00566 -0.00571002 0)
(1.00448 -0.000413827 0)
(1.00479 0.00470018 0)
(1.00662 0.00998857 0)
(1.01056 0.0159525 0)
(1.01789 0.0226983 0)
(1.03048 0.0297915 0)
(1.05046 0.0368715 0)
(1.08002 0.0446426 0)
(1.10563 0.0519611 0)
(0.943226 0.0410208 0)
(0.217161 0.00140635 0)
(0.176673 -0.000628133 0)
(1.01944 -0.0354484 0)
(1.10573 -0.0413866 0)
(1.078 -0.0363661 0)
(1.05248 -0.0303174 0)
(1.03526 -0.0244361 0)
(1.0234 -0.0186323 0)
(1.01557 -0.0126242 0)
(1.01095 -0.00651863 0)
(1.00891 -0.000272835 0)
(1.00942 0.00588859 0)
(1.01249 0.0118031 0)
(1.01846 0.0175626 0)
(1.02805 0.0231232 0)
(1.04223 0.0286585 0)
(1.06304 0.0344285 0)
(1.09382 0.0403056 0)
(1.09437 0.041819 0)
(0.830093 0.0227937 0)
(0.175574 0.000649098 0)
(0.154779 -0.000461864 0)
(0.958265 -0.0256716 0)
(1.10445 -0.0350832 0)
(1.08812 -0.0326273 0)
(1.06132 -0.0281152 0)
(1.04328 -0.0231458 0)
(1.03088 -0.0178325 0)
(1.02227 -0.0122777 0)
(1.0167 -0.00635446 0)
(1.01403 0.000109235 0)
(1.01465 0.00657261 0)
(1.01842 0.0124439 0)
(1.02521 0.0177477 0)
(1.03534 0.0227345 0)
(1.05006 0.0275423 0)
(1.07198 0.0319692 0)
(1.10094 0.0358351 0)
(1.06958 0.0340261 0)
(0.742346 0.0144746 0)
(0.153131 0.000485418 0)
(0.140114 -0.000333692 0)
(0.901311 -0.0193037 0)
(1.09689 -0.0301818 0)
(1.09628 -0.0292946 0)
(1.06905 -0.0255057 0)
(1.05022 -0.0214116 0)
(1.03724 -0.0166989 0)
(1.02823 -0.0114343 0)
(1.02227 -0.0056966 0)
(1.01926 0.000670947 0)
(1.01985 0.00704824 0)
(1.02382 0.0126957 0)
(1.03085 0.0176615 0)
(1.04135 0.0221068 0)
(1.05669 0.0260337 0)
(1.07947 0.0295331 0)
(1.1032 0.0322329 0)
(1.03772 0.0282028 0)
(0.675427 0.0103333 0)
(0.137791 0.000361658 0)
(0.129396 -0.000252185 0)
(0.851502 -0.0149042 0)
(1.08458 -0.0260763 0)
(1.10199 -0.0264104 0)
(1.0759 -0.023082 0)
(1.05656 -0.0194172 0)
(1.04315 -0.0152057 0)
(1.03378 -0.010326 0)
(1.02753 -0.00481011 0)
(1.02429 0.00137179 0)
(1.02476 0.00753182 0)
(1.02873 0.0128965 0)
(1.03591 0.0174394 0)
(1.0467 0.0212782 0)
(1.0624 0.0246041 0)
(1.08563 0.0276229 0)
(1.10238 0.0294187 0)
(1.00294 0.0236782 0)
(0.623256 0.00793669 0)
(0.126251 0.00028619 0)
(0.121233 -0.000193301 0)
(0.809079 -0.0117167 0)
(1.06931 -0.0224773 0)
(1.10554 -0.0237747 0)
(1.08217 -0.0208979 0)
(1.06238 -0.0174597 0)
(1.04869 -0.0135307 0)
(1.03905 -0.00897248 0)
(1.03254 -0.00373079 0)
(1.02906 0.00221747 0)
(1.02935 0.00810696 0)
(1.03328 0.0131163 0)
(1.04051 0.0171986 0)
(1.05139 0.0205613 0)
(1.06734 0.023493 0)
(1.09095 0.0261957 0)
(1.09869 0.0270822 0)
(0.967718 0.0201244 0)
(0.581342 0.00637607 0)
(0.117086 0.000234651 0)
(0.11491 -0.000148612 0)
(0.773321 -0.00933078 0)
(1.05251 -0.019308 0)
(1.10792 -0.0213394 0)
(1.08806 -0.0188452 0)
(1.06785 -0.0155683 0)
(1.05391 -0.0118073 0)
(1.04408 -0.00745113 0)
(1.03733 -0.00244927 0)
(1.03359 0.00323787 0)
(1.03367 0.00881763 0)
(1.03746 0.0134493 0)
(1.04463 0.0171293 0)
(1.05552 0.0201113 0)
(1.0717 0.0227102 0)
(1.095 0.0250675 0)
(1.09217 0.0251457 0)
(0.93341 0.0173751 0)
(0.546675 0.00530655 0)
(0.109546 0.000198796 0)
(0.109978 -0.000113316 0)
(0.743303 -0.00748219 0)
(1.03523 -0.0164973 0)
(1.10933 -0.0190492 0)
(1.09365 -0.0168678 0)
(1.07315 -0.0136897 0)
(1.05892 -0.0100284 0)
(1.0489 -0.0057989 0)
(1.04193 -0.000969565 0)
(1.03791 0.0044668 0)
(1.0377 0.00972186 0)
(1.04126 0.0139897 0)
(1.04829 0.0173054 0)
(1.05918 0.0199388 0)
(1.07558 0.0222487 0)
(1.09777 0.0242406 0)
(1.0832 0.0235539 0)
(0.900606 0.0152818 0)
(0.51719 0.00456006 0)
(0.103135 0.000174072 0)
(0.106146 -8.41657e-05 0)
(0.718204 -0.00599388 0)
(1.01831 -0.0139737 0)
(1.10991 -0.0168365 0)
(1.09913 -0.0149402 0)
(1.07835 -0.0117816 0)
(1.06382 -0.00815861 0)
(1.05358 -0.00399791 0)
(1.04636 0.000715196 0)
(1.04202 0.00594143 0)
(1.04145 0.0108948 0)
(1.04472 0.0148229 0)
(1.05156 0.0177936 0)
(1.06242 0.020088 0)
(1.07901 0.022133 0)
(1.09919 0.0237284 0)
(1.07217 0.0223008 0)
(0.869433 0.0137296 0)
(0.491419 0.00404441 0)
(0.0975065 0.000157943 0)
(0.103222 -5.89759e-05 0)
(0.697378 -0.00474767 0)
(1.00238 -0.011671 0)
(1.10979 -0.0146631 0)
(1.10444 -0.0129719 0)
(1.08354 -0.00978481 0)
(1.06869 -0.00614213 0)
(1.05818 -0.00199031 0)
(1.05066 0.0026557 0)
(1.04593 0.00771647 0)
(1.04493 0.0123938 0)
(1.04783 0.0159925 0)
(1.05446 0.0186262 0)
(1.06526 0.0205849 0)
(1.08199 0.0223748 0)
(1.0996 0.0235576 0)
(1.05937 0.0213988 0)
(0.839742 0.0126303 0)
(0.468264 0.00370342 0)
(0.0923976 0.000148639 0)
(0.101084 -3.58053e-05 0)
(0.680352 -0.00365515 0)
(0.987872 -0.00951938 0)
(1.1092 -0.0124457 0)
(1.10957 -0.0108784 0)
(1.08881 -0.00764411 0)
(1.0736 -0.00392619 0)
(1.06278 0.000281768 0)
(1.05489 0.00491402 0)
(1.04968 0.00985896 0)
(1.04815 0.0142896 0)
(1.05061 0.0175695 0)
(1.05697 0.0198678 0)
(1.06769 0.0214892 0)
(1.08448 0.0230034 0)
(1.09901 0.0237689 0)
(1.04496 0.0208658 0)
(0.811217 0.0119131 0)
(0.446872 0.00349863 0)
(0.0876054 0.000144628 0)
(0.0996682 -1.29514e-05 0)
(0.666817 -0.00264673 0)
(0.975162 -0.0074438 0)
(1.10843 -0.0101227 0)
(1.11462 -0.0085994 0)
(1.09422 -0.00528456 0)
(1.07863 -0.00142675 0)
(1.06743 0.00289604 0)
(1.05909 0.00757608 0)
(1.05329 0.012455 0)
(1.05112 0.0166635 0)
(1.05305 0.0196257 0)
(1.05909 0.0215757 0)
(1.0697 0.0228336 0)
(1.08652 0.0240869 0)
(1.09719 0.0243962 0)
(1.02901 0.0206765 0)
(0.783446 0.0115178 0)
(0.42655 0.00340282 0)
(0.0829673 0.000144855 0)
(0.0989572 1.14666e-05 0)
(0.656617 -0.00166852 0)
(0.964562 -0.00537355 0)
(1.10782 -0.00763126 0)
(1.11975 -0.00605651 0)
(1.09986 -0.00260865 0)
(1.08385 0.00145308 0)
(1.0722 0.00595245 0)
(1.06331 0.0107469 0)
(1.05679 0.0156035 0)
(1.05385 0.0196034 0)
(1.05515 0.0222435 0)
(1.0608 0.0238288 0)
(1.07128 0.0247015 0)
(1.08803 0.0256641 0)
(1.0941 0.0254694 0)
(1.01151 0.0208725 0)
(0.755971 0.0114195 0)
(0.406722 0.00340273 0)
(0.07835 0.000148909 0)
(0.098971 3.42903e-05 0)
(0.64972 -0.00067278 0)
(0.956371 -0.00323468 0)
(1.10771 -0.00489946 0)
(1.12511 -0.0031734 0)
(1.10583 0.000462571 0)
(1.08936 0.00479896 0)
(1.07717 0.00955547 0)
(1.0676 0.0145343 0)
(1.06021 0.0194191 0)
(1.05634 0.0232272 0)
(1.05689 0.0255314 0)
(1.06207 0.0267304 0)
(1.0724 0.0272013 0)
(1.08879 0.0277998 0)
(1.0895 0.0270145 0)
(0.992308 0.0214764 0)
(0.728277 0.0115989 0)
(0.38686 0.0034887 0)
(0.0736313 0.000156313 0)
(0.0997449 7.07799e-05 0)
(0.646203 0.000350112 0)
(0.95091 -0.000952225 0)
(1.10844 -0.0018393 0)
(1.13089 0.000158347 0)
(1.11224 0.00406368 0)
(1.09525 0.00876243 0)
(1.08242 0.0138564 0)
(1.07202 0.0190884 0)
(1.06357 0.0240444 0)
(1.05859 0.0276614 0)
(1.05824 0.0296001 0)
(1.06287 0.0303931 0)
(1.07299 0.0304383 0)
(1.08865 0.0306168 0)
(1.08321 0.0290991 0)
(0.97116 0.0225193 0)
(0.699798 0.0120464 0)
(0.366476 0.00365353 0)
(0.0687027 0.000166578 0)
(0.101489 9.99032e-05 0)
(0.646451 0.00151099 0)
(0.948525 0.00155588 0)
(1.11046 0.00165652 0)
(1.1373 0.00403334 0)
(1.11922 0.00834092 0)
(1.10164 0.0134985 0)
(1.08802 0.0190231 0)
(1.07661 0.0245849 0)
(1.06689 0.0296518 0)
(1.06056 0.0330762 0)
(1.05915 0.0346049 0)
(1.06312 0.0349536 0)
(1.07298 0.0345321 0)
(1.08741 0.034228 0)
(1.07494 0.0318189 0)
(0.9477 0.0240346 0)
(0.669931 0.0127592 0)
(0.345105 0.00389197 0)
(0.0634674 0.00017931 0)
(0.10426 0.000147285 0)
(0.650846 0.00294567 0)
(0.949712 0.0044471 0)
(1.11424 0.00569034 0)
(1.14458 0.00861355 0)
(1.12693 0.0134599 0)
(1.10866 0.019191 0)
(1.09409 0.025258 0)
(1.08143 0.0312325 0)
(1.07015 0.0364476 0)
(1.06223 0.0396566 0)
(1.05959 0.0407141 0)
(1.06275 0.0405664 0)
(1.07231 0.0396137 0)
(1.08486 0.0387709 0)
(1.06435 0.0352661 0)
(0.921446 0.0260648 0)
(0.638025 0.0137335 0)
(0.322304 0.00419751 0)
(0.0578405 0.000193694 0)
(0.108335 0.000209463 0)
(0.659915 0.00462758 0)
(0.954928 0.00786844 0)
(1.12029 0.0104543 0)
(1.15298 0.0141185 0)
(1.13557 0.0196799 0)
(1.11647 0.0261277 0)
(1.10072 0.032853 0)
(1.08652 0.0393088 0)
(1.07336 0.0446663 0)
(1.06355 0.0475783 0)
(1.05949 0.0480971 0)
(1.0617 0.0473967 0)
(1.07087 0.0458614 0)
(1.08105 0.0444066 0)
(1.05099 0.0395574 0)
(0.891767 0.0286413 0)
(0.603367 0.0149583 0)
(0.297644 0.00455955 0)
(0.0517539 0.000208797 0)
(0.114051 0.000293041 0)
(0.674378 0.00671464 0)
(0.964817 0.0120173 0)
(1.12918 0.0161803 0)
(1.16287 0.0208064 0)
(1.1454 0.0273143 0)
(1.12525 0.0346397 0)
(1.10801 0.0421464 0)
(1.0919 0.0491365 0)
(1.07645 0.0545939 0)
(1.06444 0.0570982 0)
(1.05868 0.0569357 0)
(1.05987 0.0556198 0)
(1.06856 0.0534383 0)
(1.07575 0.0512462 0)
(1.03427 0.0447734 0)
(0.857906 0.0317701 0)
(0.565225 0.016401 0)
(0.270757 0.00495774 0)
(0.0451699 0.00022291 0)
(0.121914 0.000413611 0)
(0.695189 0.00944995 0)
(0.980248 0.017201 0)
(1.14157 0.0232192 0)
(1.17472 0.0290656 0)
(1.15672 0.0367983 0)
(1.13518 0.0451895 0)
(1.11602 0.053593 0)
(1.09753 0.0611155 0)
(1.07935 0.0665607 0)
(1.06477 0.0684827 0)
(1.05706 0.0674731 0)
(1.05713 0.0653958 0)
(1.06536 0.0624802 0)
(1.06864 0.0594394 0)
(1.01346 0.0509807 0)
(0.818964 0.0354285 0)
(0.522872 0.018002 0)
(0.241376 0.00536183 0)
(0.038095 0.000233989 0)
(0.13264 0.000583958 0)
(0.723609 0.0132023 0)
(1.00239 0.0238956 0)
(1.15823 0.0321215 0)
(1.18913 0.0395145 0)
(1.16987 0.0488382 0)
(1.14643 0.0584808 0)
(1.12476 0.0678183 0)
(1.10328 0.075747 0)
(1.08183 0.0809115 0)
(1.06433 0.0819561 0)
(1.05454 0.0799078 0)
(1.05338 0.0769072 0)
(1.06095 0.0731122 0)
(1.05909 0.0690266 0)
(0.98758 0.0581916 0)
(0.773938 0.0395226 0)
(0.475676 0.019654 0)
(0.209415 0.00572595 0)
(0.0305996 0.000239307 0)
(0.147497 0.000860552 0)
(0.761676 0.0185878 0)
(1.0329 0.0328942 0)
(1.18013 0.0438346 0)
(1.20687 0.0532587 0)
(1.18518 0.0644738 0)
(1.15903 0.0754591 0)
(1.13406 0.085592 0)
(1.1089 0.0935882 0)
(1.08365 0.0980119 0)
(1.06293 0.0977482 0)
(1.05091 0.094368 0)
(1.04848 0.0902938 0)
(1.05496 0.0855807 0)
(1.04638 0.0801207 0)
(0.955427 0.0662845 0)
(0.721825 0.0438597 0)
(0.423264 0.0211916 0)
(0.175086 0.00598835 0)
(0.0228394 0.000235665 0)
(0.168682 0.00133735 0)
(0.812644 0.0267707 0)
(1.07432 0.0457521 0)
(1.20837 0.0601859 0)
(1.22854 0.0723483 0)
(1.20271 0.0852689 0)
(1.17272 0.0974045 0)
(1.14349 0.107834 0)
(1.11391 0.115235 0)
(1.08438 0.118216 0)
(1.06022 0.116062 0)
(1.04595 0.110972 0)
(1.04229 0.105631 0)
(1.04734 0.0999956 0)
(1.02958 0.0926021 0)
(0.915514 0.0749738 0)
(0.661834 0.0481213 0)
(0.365831 0.0224006 0)
(0.139076 0.00607968 0)
(0.0150804 0.000219555 0)
(0.199583 0.00239519 0)
(0.882241 0.0404543 0)
(1.13034 0.0663225 0)
(1.2434 0.0847603 0)
(1.25387 0.0995192 0)
(1.22186 0.113598 0)
(1.18671 0.125935 0)
(1.15224 0.135535 0)
(1.11762 0.141225 0)
(1.08349 0.141754 0)
(1.05587 0.13696 0)
(1.03946 0.129738 0)
(1.03466 0.122887 0)
(1.03776 0.116122 0)
(1.00734 0.106268 0)
(0.866108 0.0836907 0)
(0.59389 0.0518271 0)
(0.304864 0.0231019 0)
(0.102988 0.00597775 0)
(0.007809 0.0001896 0)
(0.241698 0.00863174 4.00852e-20)
(0.974591 0.0677444 3.51223e-20)
(1.19875 0.100764 -1.23469e-20)
(1.28215 0.121189 0)
(1.2801 0.13837 -3.22622e-34)
(1.24052 0.151798 4.7357e-21)
(1.19942 0.162568 -8.63994e-21)
(1.15918 0.16993 0)
(1.11916 0.172828 1.79782e-34)
(1.08016 0.170089 -1.09025e-20)
(1.04885 0.162148 0)
(1.03015 0.15257 -1.30384e-20)
(1.02434 0.144313 -3.85228e-20)
(1.02489 0.137262 -1.82256e-20)
(0.976049 0.123699 -5.49332e-21)
(0.801544 0.0941375 -3.26635e-21)
(0.512649 0.0554989 0)
(0.238576 0.0236767 2.28475e-21)
(0.0668845 0.00599699 2.69743e-21)
(0.00102161 0.000176568 4.86085e-20)
(0.271227 0.0240981 2.75839e-20)
(1.05081 0.110368 5.35354e-22)
(1.25519 0.149831 3.21371e-21)
(1.31671 0.170462 0)
(1.30308 0.18748 -1.61325e-20)
(1.25646 0.198708 -1.84775e-20)
(1.20945 0.207138 -8.66076e-21)
(1.16337 0.211981 -3.11891e-20)
(1.1177 0.212044 0)
(1.07335 0.206106 4.63905e-20)
(1.03777 0.195094 4.61831e-20)
(1.01639 0.183149 1.37594e-20)
(1.00852 0.172972 5.03491e-20)
(1.0014 0.163385 7.09487e-20)
(0.927426 0.144424 0)
(0.71524 0.105628 1.00101e-19)
(0.417749 0.0591617 1.43568e-19)
(0.169795 0.0236623 1.59428e-19)
(0.0311101 0.00483864 -1.82243e-19)
(-0.00584578 -0.000471301 -3.43126e-21)
(0.272271 0.0398914 0)
(1.09891 0.165619 4.44803e-21)
(1.29308 0.2102 0)
(1.34349 0.230287 -1.9849e-20)
(1.32104 0.244246 0)
(1.26849 0.251614 -3.58441e-20)
(1.21595 0.25632 1.75928e-20)
(1.16432 0.257568 -6.23637e-20)
(1.11324 0.253962 -1.57666e-21)
(1.06376 0.244204 2.39373e-20)
(1.02408 0.229732 1.0177e-19)
(1.00006 0.215188 -2.42048e-22)
(0.989802 0.202954 -3.66299e-20)
(0.975268 0.190652 -6.69312e-20)
(0.883635 0.165554 7.92504e-20)
(0.654582 0.117037 -1.4037e-19)
(0.364111 0.0629196 -1.85449e-20)
(0.136178 0.0236614 0)
(0.0147177 0.00316059 -9.84296e-24)
(-0.00914976 -0.00130261 0)
(0.265893 0.0535643 4.69981e-20)
(1.12478 0.224169 -2.46356e-20)
(1.31633 0.275023 -2.11769e-20)
(1.36116 0.295282 9.08401e-21)
(1.33257 0.305351 -1.54454e-20)
(1.27559 0.308213 7.48823e-20)
(1.21847 0.30852 3.66021e-20)
(1.16204 0.305535 0)
(1.10614 0.297723 -1.19061e-19)
(1.05194 0.283725 0)
(1.00838 0.265505 -5.33506e-20)
(0.981735 0.248158 -6.62437e-20)
(0.969078 0.233704 -3.99481e-20)
(0.948617 0.218248 -4.86727e-20)
(0.847473 0.187217 0)
(0.615772 0.130438 0)
(0.337222 0.0695516 -1.20775e-19)
(0.121593 0.02514 2.38689e-20)
(0.00699378 0.0017169 -1.39711e-20)
(-0.0112448 -0.00223201 -1.63421e-20)
(0.258297 0.065651 -1.03451e-20)
(1.13607 0.282565 0)
(1.329 0.340767 3.88791e-20)
(1.37068 0.361691 2.45483e-20)
(1.3378 0.367958 3.64719e-20)
(1.27758 0.36629 0)
(1.21687 0.362079 3.53692e-20)
(1.15646 0.35468 6.87711e-20)
(1.09636 0.342463 6.07316e-20)
(1.03792 0.324018 1.13131e-19)
(0.990753 0.30183 0)
(0.961555 0.281527 -1.43024e-19)
(0.946542 0.26472 -8.64152e-20)
(0.921698 0.246263 -5.11576e-20)
(0.81712 0.209967 3.142e-19)
(0.59126 0.145973 3.73653e-20)
(0.325872 0.0788132 1.75401e-19)
(0.119627 0.0284396 -8.3067e-19)
(0.00603621 0.001134 4.91228e-19)
(-0.0120702 -0.00301726 -5.9185e-19)
(0.250997 0.0765568 5.63222e-21)
(1.13804 0.338952 1.56909e-21)
(1.334 0.40552 -3.10492e-21)
(1.37365 0.427615 -2.13626e-20)
(1.33766 0.430316 -2.87513e-20)
(1.27502 0.424299 1.80253e-21)
(1.21146 0.415729 -3.84168e-20)
(1.14778 0.403995 7.08728e-20)
(1.08409 0.387403 -1.30865e-19)
(1.02187 0.364494 0)
(0.971366 0.338329 -6.46321e-20)
(0.939701 0.315064 -1.61162e-21)
(0.922381 0.295906 -9.4766e-20)
(0.894461 0.274572 0)
(0.79059 0.233606 -6.81865e-20)
(0.574824 0.16357 -1.61977e-19)
(0.323616 0.0903993 4.31287e-19)
(0.124502 0.0337151 -4.25143e-19)
(0.0101516 0.00202797 6.03689e-19)
(-0.0114886 -0.00344577 -6.27261e-19)
(0.244839 0.0866306 -4.13484e-22)
(1.1342 0.392676 2.72546e-21)
(1.33347 0.468289 -2.80231e-21)
(1.37151 0.491836 6.89778e-21)
(1.33323 0.491367 -1.41807e-20)
(1.26875 0.481287 0)
(1.2029 0.468621 -3.49431e-20)
(1.13648 0.452762 -7.40516e-20)
(1.06969 0.431956 -6.78402e-20)
(1.00407 0.404703 0)
(0.950492 0.37465 -6.69801e-20)
(0.916447 0.348425 -8.35008e-20)
(0.896926 0.326931 1.02999e-19)
(0.86674 0.302841 -6.26928e-20)
(0.76582 0.257664 -2.98865e-19)
(0.561624 0.182594 1.77554e-19)
(0.324723 0.103492 5.27036e-20)
(0.132393 0.0407133 0)
(0.0170862 0.00439029 -5.85522e-19)
(-0.00993881 -0.00346813 -2.14942e-20)
(0.239929 0.0961839 4.02686e-21)
(1.12688 0.443552 -5.68471e-21)
(1.32892 0.528602 1.79046e-22)
(1.36549 0.553654 2.72269e-20)
(1.32544 0.550438 -4.91599e-20)
(1.25957 0.536668 6.64322e-20)
(1.19186 0.520219 7.54353e-20)
(1.12311 0.500504 -1.18331e-19)
(1.05357 0.475721 4.25284e-20)
(0.984879 0.444307 -2.78768e-19)
(0.92846 0.410443 -7.61228e-20)
(0.892174 0.381274 0)
(0.870649 0.357541 1.11957e-19)
(0.838773 0.330881 1.34549e-19)
(0.741263 0.281815 1.61264e-19)
(0.548623 0.202374 -1.93513e-19)
(0.325698 0.117461 -5.72962e-20)
(0.140406 0.0490963 6.72408e-20)
(0.0249203 0.00791911 0)
(-0.00787321 -0.00313313 -4.6797e-20)
(0.236182 0.105379 -6.56874e-20)
(1.1177 0.49169 3.58245e-20)
(1.32161 0.586348 1.46357e-21)
(1.35661 0.61274 1.4171e-20)
(1.31511 0.607133 -2.01759e-20)
(1.24816 0.590044 -4.07983e-21)
(1.17894 0.57017 -8.28432e-20)
(1.10819 0.546916 -4.29284e-20)
(1.0362 0.518423 -1.18182e-19)
(0.964684 0.483068 3.13852e-22)
(0.905586 0.44549 -2.38178e-19)
(0.86722 0.413499 2.0255e-19)
(0.843871 0.387613 -1.23409e-19)
(0.810519 0.358428 1.48789e-19)
(0.715966 0.305715 0)
(0.534345 0.222154 -1.05423e-19)
(0.324119 0.131713 1.30339e-22)
(0.146646 0.0581289 -2.94343e-19)
(0.0321711 0.0120966 -4.31833e-20)
(-0.00567826 -0.00253313 0)
(0.233465 0.114364 0)
(1.10759 0.537312 4.17468e-20)
(1.31238 0.641691 1.45901e-20)
(1.34567 0.668955 -1.04385e-20)
(1.30292 0.661246 -2.82121e-20)
(1.23514 0.641201 0)
(1.16466 0.618249 -3.64273e-20)
(1.09218 0.591782 -1.05422e-21)
(1.01796 0.559887 2.53521e-19)
(0.943792 0.520825 -3.81905e-20)
(0.882143 0.479701 -1.72224e-19)
(0.841851 0.445029 1.05157e-19)
(0.816813 0.416949 -2.22646e-21)
(0.782071 0.385137 1.58318e-19)
(0.689779 0.328737 9.78737e-20)
(0.518223 0.240982 -2.27965e-19)
(0.319316 0.145516 2.69953e-19)
(0.149704 0.0668942 7.9976e-20)
(0.0375073 0.016269 3.29515e-19)
(-0.00374822 -0.00184 -8.7996e-19)
(0.231725 0.12327 -2.282e-20)
(1.09725 0.580608 3.02842e-20)
(1.30192 0.694087 -1.99906e-20)
(1.33325 0.722263 3.07849e-21)
(1.28943 0.71268 0)
(1.221 0.690008 -2.78437e-20)
(1.14947 0.664318 1.2383e-19)
(1.07545 0.634973 9.3709e-20)
(0.999192 0.599992 0)
(0.922483 0.55749 -5.52172e-19)
(0.858379 0.513019 4.66615e-19)
(0.816235 0.475662 0)
(0.789611 0.445249 1.44599e-19)
(0.753579 0.410647 -2.23281e-21)
(0.663038 0.350262 -3.13393e-19)
(0.499931 0.258017 1.22582e-19)
(0.311352 0.157872 0)
(0.14905 0.0745139 4.31743e-19)
(0.0402874 0.0197562 0)
(-0.00234982 -0.0012487 -4.17056e-19)
(0.230787 0.13218 2.76937e-20)
(1.08712 0.621757 4.02404e-20)
(1.29062 0.743641 -1.95788e-20)
(1.31987 0.772665 0)
(1.2751 0.761416 -2.00633e-20)
(1.20616 0.736424 0)
(1.13375 0.708308 -1.20142e-19)
(1.05835 0.676413 -4.25987e-20)
(0.980182 0.638673 4.43705e-20)
(0.901019 0.593026 -2.73284e-19)
(0.834475 0.545369 4.8065e-20)
(0.7905 0.505209 0)
(0.762393 0.472313 -3.08897e-19)
(0.725014 0.434734 2.19222e-21)
(0.635541 0.369885 0)
(0.479601 0.272877 1.34703e-21)
(0.300226 0.168036 3.95296e-19)
(0.145141 0.080221 -3.73243e-19)
(0.0404652 0.0220463 1.10062e-19)
(-0.00157583 -0.000880512 0)
(0.230337 0.14097 0)
(1.07747 0.660849 4.9115e-20)
(1.27878 0.790499 3.01557e-20)
(1.30593 0.820211 -2.51022e-21)
(1.26028 0.80748 -3.54255e-21)
(1.19094 0.780444 -6.251e-20)
(1.11779 0.750198 4.56419e-20)
(1.04115 0.716069 -5.11266e-20)
(0.961187 0.675891 1.99171e-19)
(0.879606 0.627422 -4.37023e-19)
(0.810567 0.576692 -3.94876e-21)
(0.764728 0.533635 -1.34709e-19)
(0.735189 0.498153 5.01753e-19)
(0.696375 0.457215 -2.58948e-21)
(0.607477 0.387382 -2.43602e-19)
(0.457392 0.28512 -4.34007e-19)
(0.286342 0.175709 0)
(0.138376 0.083781 0)
(0.0386591 0.0230068 1.18831e-19)
(-0.00134277 -0.000798373 -6.97499e-20)
(0.230547 0.149765 3.95994e-20)
(1.06835 0.697756 -1.1235e-19)
(1.26669 0.834747 -3.24113e-20)
(1.29174 0.864994 0)
(1.24528 0.850929 -1.51795e-21)
(1.17563 0.822093 -5.34147e-20)
(1.10185 0.789997 1.07731e-19)
(1.0241 0.753934 1.98833e-19)
(0.942422 0.711644 2.58171e-19)
(0.858438 0.660681 -3.56595e-19)
(0.786788 0.607007 -4.01627e-19)
(0.738972 0.561059 3.60382e-19)
(0.707959 0.52282 0)
(0.667532 0.47787 -1.10696e-19)
(0.57874 0.402378 -2.63543e-19)
(0.433265 0.294444 -3.12003e-19)
(0.270121 0.180502 -3.68822e-19)
(0.129131 0.0850185 1.08962e-19)
(0.0352468 0.0227605 -6.39694e-20)
(-0.0014739 -0.000929365 2.8754e-22)
(0.230876 0.158498 0)
(1.05993 0.732969 0)
(1.25458 0.876489 2.49797e-21)
(1.27751 0.907136 0)
(1.23031 0.891853 -1.92705e-21)
(1.16043 0.861432 3.29815e-20)
(1.08614 0.827733 0)
(1.00737 0.79002 2.31446e-20)
(0.924076 0.745936 4.29863e-19)
(0.837687 0.692817 -8.20408e-19)
(0.76326 0.636409 0)
(0.713272 0.587654 -2.32077e-19)
(0.680577 0.546287 -3.05308e-21)
(0.638355 0.496488 -2.38726e-21)
(0.549409 0.414585 2.81898e-19)
(0.407965 0.300674 -1.51494e-22)
(0.252044 0.182344 -7.94525e-19)
(0.118 0.0839966 2.34406e-19)
(0.0305876 0.0213682 6.92686e-20)
(-0.00183325 -0.00120711 0)
(0.231307 0.167089 -1.60037e-19)
(1.05193 0.766524 -7.69108e-20)
(1.24254 0.915807 -9.84708e-20)
(1.2634 0.946754 9.0617e-20)
(1.21556 0.930324 -1.88108e-20)
(1.14552 0.898523 0)
(1.07081 0.863452 6.32601e-20)
(0.991134 0.82435 -5.20104e-20)
(0.906297 0.778785 3.89362e-21)
(0.817507 0.723862 6.06492e-20)
(0.740118 0.665029 5.20067e-19)
(0.687658 0.613568 -8.13451e-20)
(0.652928 0.568529 -3.0949e-19)
(0.608691 0.51293 -1.29058e-19)
(0.51946 0.423767 1.53157e-19)
(0.381953 0.303626 3.53442e-23)
(0.232675 0.181162 2.13994e-19)
(0.105797 0.0808469 -5.04311e-19)
(0.0254427 0.0190894 5.96069e-19)
(-0.00231007 -0.00159619 8.69056e-20)
(0.231642 0.175416 6.11088e-20)
(1.04437 0.79852 -4.35497e-20)
(1.2307 0.952799 6.22301e-21)
(1.24955 0.98398 6.01463e-20)
(1.20115 0.966455 1.07683e-20)
(1.13102 0.93344 -5.42754e-20)
(1.05598 0.897206 1.71365e-20)
(0.975495 0.856947 -2.15968e-19)
(0.889213 0.810192 -4.72224e-19)
(0.798032 0.753827 -4.88368e-19)
(0.717513 0.692986 0)
(0.662167 0.638903 -3.5792e-19)
(0.624917 0.589605 4.46428e-19)
(0.578306 0.527154 0)
(0.488818 0.429606 -3.28044e-19)
(0.35571 0.30287 1.95355e-19)
(0.213245 0.176763 -2.30054e-19)
(0.0937908 0.0759028 -2.71315e-19)
(0.0204953 0.0163182 -4.80016e-19)
(-0.00278715 -0.00201647 -3.74263e-19)
(0.23232 0.183613 -6.93946e-20)
(1.03709 0.828941 4.66037e-20)
(1.21911 0.987537 1.05784e-19)
(1.23604 1.01887 8.91585e-20)
(1.18718 1.00034 -1.88619e-20)
(1.11703 0.966272 -2.48993e-20)
(1.04174 0.929046 5.81546e-20)
(0.960545 0.887854 -2.20432e-19)
(0.872911 0.840182 -2.79345e-19)
(0.779385 0.782739 5.10458e-19)
(0.695574 0.72036 1.14231e-18)
(0.636874 0.663747 0)
(0.596485 0.609718 0)
(0.546867 0.539257 -1.48628e-19)
(0.457121 0.431716 0)
(0.329391 0.297583 4.19922e-19)
(0.195014 0.168362 4.9458e-19)
(0.0839466 0.0691576 0)
(0.016985 0.0134714 0)
(-0.00312994 -0.00237018 4.02074e-19)
(0.23266 0.191381 7.92927e-20)
(1.03013 0.85778 6.39953e-20)
(1.20784 1.02014 7.70656e-20)
(1.22294 1.05155 -8.74596e-20)
(1.17371 1.03208 -2.73604e-20)
(1.1036 0.997096 1.91662e-20)
(1.02816 0.959036 -7.88312e-20)
(0.946349 0.9171 -4.21633e-22)
(0.85747 0.868762 -5.05789e-21)
(0.761662 0.810605 -4.78935e-21)
(0.674446 0.747186 5.88304e-19)
(0.611903 0.688204 0)
(0.567627 0.629204 4.52477e-19)
(0.513986 0.549466 3.1716e-19)
(0.423642 0.429943 7.6569e-19)
(0.30247 0.286598 2.26199e-19)
(0.17926 0.153483 -2.66162e-19)
(0.0803042 0.0578639 -1.56283e-19)
(0.0205863 0.00955639 0)
(-0.00141705 -0.00186089 4.32012e-19)
(0.23331 0.199161 -1.79597e-19)
(1.02343 0.885137 0)
(1.19687 1.05067 9.15684e-20)
(1.21028 1.08211 -7.48139e-20)
(1.1608 1.06179 4.03784e-20)
(1.09077 1.026 -9.00077e-21)
(1.01527 0.987231 1.47187e-19)
(0.932943 0.94472 -1.84184e-20)
(0.842933 0.89594 0)
(0.744943 0.837409 -5.61776e-19)
(0.654265 0.773449 -1.27781e-18)
(0.587422 0.712409 5.27249e-20)
(0.538434 0.648443 6.2457e-19)
(0.47939 0.558177 0)
(0.387303 0.424818 5.16928e-19)
(0.272697 0.269042 0)
(0.164197 0.126696 0)
(0.0872352 0.0284036 -1.68997e-19)
(0.0520605 -0.00624604 0)
(0.0279497 0.0112804 1.15746e-19)
(0.233594 0.206352 -2.01449e-19)
(1.01696 0.911334 0)
(1.1862 1.07933 1.53181e-19)
(1.19801 1.11078 0)
(1.14841 1.08972 -2.55689e-20)
(1.0785 1.05327 0)
(1.00302 1.01395 6.24807e-21)
(0.920231 0.971052 3.00668e-20)
(0.829178 0.92208 3.49796e-20)
(0.729063 0.863537 -6.15084e-19)
(0.63484 0.799559 3.81804e-20)
(0.563202 0.737027 4.25271e-19)
(0.508499 0.668274 6.0944e-19)
(0.442209 0.565969 8.242e-20)
(0.346223 0.417926 4.05366e-19)
(0.235251 0.245903 0)
(0.137836 0.0839584 5.61138e-19)
(0.074132 -0.0184423 -3.27774e-19)
(0.0429365 0.0445014 3.80819e-19)
(-0.0690018 0.436498 -4.48848e-19)
(0.233866 0.213351 1.6729e-19)
(1.01046 0.936152 2.56985e-19)
(1.17575 1.10643 0)
(1.186 1.13801 4.98606e-21)
(1.13634 1.11645 7.7472e-20)
(1.06651 1.07959 -2.26263e-20)
(0.991086 1.03997 4.74391e-20)
(0.907799 0.997029 0)
(0.81567 0.948264 2.29216e-19)
(0.71335 0.890293 -3.18126e-20)
(0.615258 0.826984 0)
(0.538002 0.763797 0)
(0.475894 0.690235 5.45985e-19)
(0.400157 0.573409 -2.55098e-19)
(0.297245 0.41136 -4.10873e-19)
(0.18523 0.220737 0)
(0.0803951 0.0897253 2.82895e-19)
(0.00398967 0.43911 -3.26833e-19)
(0.0334478 1.89026 -1.78411e-19)
(0.0627356 2.81168 -2.28529e-19)
(0.233961 0.219526 -1.262e-19)
(1.00413 0.959777 -3.30712e-19)
(1.16553 1.13195 9.15436e-20)
(1.17422 1.16367 7.46745e-20)
(1.12461 1.14175 0)
(1.05487 1.10466 -2.68615e-20)
(0.979665 1.06501 5.92042e-20)
(0.895841 1.02222 -1.42492e-20)
(0.802679 0.973981 3.43138e-20)
(0.698186 0.917064 5.84366e-19)
(0.596116 0.855069 6.44525e-19)
(0.512741 0.792384 4.75818e-19)
(0.441435 0.714278 5.49293e-19)
(0.3549 0.579454 -5.99507e-19)
(0.245973 0.408907 -6.20556e-19)
(0.124337 0.261559 0)
(0.0438519 0.828359 0)
(0.101162 2.55059 1.55786e-19)
(0.102263 3.20152 0)
(0.105443 3.38828 3.70265e-19)
(0.236606 0.225192 0)
(0.998559 0.982412 0)
(1.1553 1.15575 0)
(1.16248 1.1876 2.27831e-20)
(1.11288 1.16538 7.15776e-20)
(1.04338 1.12838 -3.27993e-20)
(0.968653 1.08894 3.58805e-20)
(0.884317 1.04653 -1.37191e-20)
(0.790174 0.999099 2.82794e-19)
(0.683602 0.943712 -9.16356e-21)
(0.577569 0.883735 1.27093e-18)
(0.487716 0.822675 -5.50029e-20)
(0.405287 0.741263 6.639e-20)
(0.309193 0.581957 8.67795e-20)
(0.182922 0.421893 -4.99776e-21)
(0.099988 0.960485 1.84572e-21)
(0.140247 2.72084 -8.23305e-19)
(0.148392 3.29257 -3.08271e-19)
(0.137329 3.4259 1.58431e-19)
(0.124746 3.44815 -1.75776e-19)
(0.15503 0.182197 7.50615e-20)
(0.987708 1.00682 0)
(1.14472 1.17801 -1.84834e-19)
(1.15128 1.2103 -2.0409e-19)
(1.10202 1.18814 1.72523e-19)
(1.03295 1.15141 3.96166e-20)
(0.958011 1.11183 -3.3903e-20)
(0.873338 1.07009 1.43891e-19)
(0.778326 1.02379 -2.29644e-19)
(0.66989 0.970411 0)
(0.560031 0.913215 6.22529e-19)
(0.46348 0.85456 -3.87614e-19)
(0.368694 0.773646 0)
(0.256931 0.582681 8.07855e-20)
(0.145388 0.749634 1.93721e-19)
(0.155946 2.4927 -2.25243e-19)
(0.213011 3.32271 2.52285e-19)
(0.193008 3.43877 1.34942e-19)
(0.160576 3.46046 1.51255e-19)
(0.138791 3.47083 2.38217e-19)
(0.279727 0.263577 -1.36798e-19)
(0.972602 1.01679 0)
(1.12675 1.2035 2.01974e-19)
(1.13671 1.24082 2.24914e-19)
(1.08483 1.2212 -1.93698e-19)
(1.01501 1.18486 -6.311e-20)
(0.939141 1.14692 1.67028e-20)
(0.853964 1.10642 1.14053e-20)
(0.757663 1.06232 2.15233e-19)
(0.646539 1.01289 4.98277e-19)
(0.531575 0.962066 3.48184e-20)
(0.42472 0.909374 3.43489e-19)
(0.301642 0.81251 6.19984e-20)
(0.213681 0.927038 -7.92696e-20)
(0.230134 2.34124 -1.79871e-19)
(0.291654 3.32508 1.70147e-19)
(0.274637 3.4678 -1.86677e-19)
(0.239121 3.48982 -1.0747e-19)
(0.20193 3.51763 -8.76219e-20)
(0.150385 3.51179 -1.03424e-20)
(0.267656 0.260496 0)
(0.970352 1.03954 5.8935e-20)
(1.11854 1.22703 -4.18392e-20)
(1.12621 1.2645 -2.70093e-20)
(1.07414 1.24442 -1.3513e-19)
(1.00427 1.20831 6.63952e-20)
(0.928093 1.17051 -2.612e-21)
(0.842728 1.13083 9.96151e-21)
(0.745925 1.08822 -2.2192e-19)
(0.633556 1.04166 -1.38363e-20)
(0.51589 0.995717 -1.11881e-18)
(0.404133 0.947672 4.90622e-20)
(0.284482 0.877566 -5.82934e-20)
(0.255722 1.47758 -7.29688e-20)
(0.331273 3.09776 1.80955e-20)
(0.350848 3.46534 3.84725e-22)
(0.310394 3.5219 2.60653e-19)
(0.27294 3.54871 1.23713e-19)
(0.224156 3.57236 -2.3793e-20)
(0.165087 3.5685 -4.52994e-20)
(0.251452 0.258988 1.49867e-19)
(0.966529 1.06498 4.02822e-19)
(1.10992 1.25265 -1.20127e-19)
(1.11514 1.28958 -1.02058e-19)
(1.06282 1.26898 0)
(0.993111 1.23294 1.24022e-19)
(0.916917 1.19538 1.12832e-20)
(0.831642 1.15649 8.40434e-21)
(0.734655 1.11546 -2.48665e-20)
(0.621556 1.072 -4.43933e-19)
(0.50201 1.03138 -5.12956e-19)
(0.386974 0.987191 -3.98926e-19)
(0.286774 1.0052 -4.40171e-19)
(0.325487 2.19435 4.55211e-19)
(0.418488 3.37413 3.75453e-19)
(0.395446 3.52311 0)
(0.349754 3.56848 0)
(0.311574 3.60965 -1.73565e-20)
(0.260511 3.67015 0)
(0.177523 3.64639 -9.8248e-21)
(0.240772 0.260917 -2.25165e-19)
(0.960756 1.09152 -3.42874e-19)
(1.09986 1.27948 0)
(1.10269 1.31538 5.96764e-21)
(1.05023 1.29414 -1.47966e-19)
(0.980825 1.25804 2.03498e-19)
(0.904955 1.22078 1.60801e-20)
(0.819972 1.18258 3.46539e-21)
(0.723039 1.14306 -1.50735e-19)