/*--------------------------------*- C++ -*----------------------------------*\
| =========                 |                                                 |
| \\      /  F ield         | OpenFOAM: The Open Source CFD Toolbox           |
|  \\    /   O peration     | Version:  2112                                  |
|   \\  /    A nd           | Website:  www.openfoam.com                      |
|    \\/     M anipulation  |                                                 |
\*---------------------------------------------------------------------------*/
FoamFile
{
    version     2.0;
    format      ascii;
    arch        "LSB;label=32;scalar=64";
    class       volScalarField;
    location    "4";
    object      p;
}
// * * * * * * * * * * * * * * * * * * * * * * * * * * * * * * * * * * * * * //

dimensions      [0 2 -2 0 0 0 0];

internalField   nonuniform List<scalar> 
400
(
1.8283718e-10
-0.00054271727
-0.0010549829
-0.0014017294
-0.0014803575
-0.0012469982
-0.00069191187
0.00017882502
0.0013434772
0.0027547581
0.0043287017
0.0059385976
0.0074213798
0.0085998236
0.0093208063
0.0095028093
0.0091781102
0.0085112383
0.0077121601
0.007220684
0.00053064368
-2.9423523e-05
-0.00040301566
-0.00060600644
-0.00060364932
-0.00036579776
0.00011730185
0.00084431122
0.0018013978
0.00295288
0.0042314989
0.00554439
0.0067565334
0.0077278099
0.0083375247
0.0085221102
0.0083068485
0.0078166153
0.0072342094
0.0067261636
0.0010808463
0.00030866394
-8.6757653e-05
-0.00026196713
-0.00024756044
-3.0952869e-05
0.0003930828
0.0010269193
0.0018666253
0.0028904427
0.0040484285
0.0052564114
0.006391275
0.0073155864
0.0079033572
0.0080795446
0.0078550962
0.007340196
0.0066832923
0.0059309957
0.0014647625
0.00042454075
-5.4479399e-05
-0.00025478222
-0.00026591237
-9.208279e-05
0.00026763242
0.00082115211
0.0015778407
0.0025325391
0.0036495954
0.0048581585
0.0060313483
0.0070170817
0.0076615683
0.0078558325
0.0075839021
0.0069481748
0.0060833124
0.0049722675
0.0014939496
0.00018887737
-0.0003890037
-0.00063820623
-0.00069976458
-0.00059080748
-0.00031159566
0.00015463746
0.00083428133
0.0017423284
0.0028590206
0.0041471247
0.0054557707
0.0066117251
0.0074159677
0.0077011995
0.0074029178
0.0066101981
0.005459186
0.0038840693
0.0010115111
-0.00053932812
-0.0012207149
-0.0015368565
-0.0016741016
-0.001658977
-0.0014895541
-0.0011365822
-0.00055171355
0.00031250415
0.0014777886
0.0028804307
0.0044188097
0.005880038
0.0069969041
0.0075102756
0.007269654
0.0063285989
0.0048260265
0.002649135
-0.0001145883
-0.0018852488
-0.0026709528
-0.0030720077
-0.0033159012
-0.0034369102
-0.003428935
-0.0032469965
-0.0028148859
-0.0020462438
-0.00087514425
0.00068722492
0.0025491675
0.0044780292
0.0061265758
0.0071003018
0.0071008384
0.0060944806
0.0041966812
0.0012273809
-0.0019987501
-0.0039593906
-0.0048491787
-0.0053558232
-0.0057460534
-0.0060629728
-0.0062969387
-0.006386103
-0.0062209745
-0.0056636382
-0.0045801234
-0.0029012334
-0.00066555433
0.0019022527
0.0043727199
0.0061670471
0.0067464833
0.0058893823
0.0036096145
-0.00040113912
-0.0047348359
-0.0068538174
-0.0078463219
-0.0084800963
-0.0090621625
-0.0096492551
-0.010232746
-0.010736735
-0.011016438
-0.010870692
-0.01006996
-0.0084186077
-0.0058447236
-0.0025024316
0.0011272363
0.0042458952
0.0059563884
0.0056804563
0.0031597121
-0.0021848046
-0.0083884609
-0.01063555
-0.011722907
-0.012495487
-0.013306799
-0.014236981
-0.015287814
-0.016377277
-0.017328735
-0.017870985
-0.017653543
-0.016304576
-0.013571141
-0.0094302617
-0.0043307876
0.00072314438
0.0043638186
0.0054179703
0.0030393912
-0.0039183849
-0.012991807
-0.015343881
-0.016498756
-0.017388914
-0.018430549
-0.019743392
-0.021353805
-0.023186336
-0.025041975
-0.026580937
-0.027318823
-0.026671464
-0.024111301
-0.019333149
-0.012599318
-0.0050098648
0.0015599496
0.0050751516
0.0036065709
-0.0050959634
-0.018550526
-0.020998404
-0.022149011
-0.023064066
-0.024257871
-0.025913656
-0.028099285
-0.030759969
-0.033687
-0.036481638
-0.03853036
-0.039026118
-0.037074917
-0.032014344
-0.023727128
-0.013186884
-0.0026506511
0.0047981853
0.00550605
-0.0046547934
-0.025078585
-0.027626156
-0.028610367
-0.029329829
-0.030466508
-0.032298229
-0.034948671
-0.038392082
-0.042418263
-0.046579471
-0.050144577
-0.05208862
-0.051165038
-0.046266424
-0.036739058
-0.023144127
-0.0077934543
0.0052217083
0.0098905887
-0.00057223069
-0.032690895
-0.035316866
-0.035797345
-0.035898501
-0.036590073
-0.038274897
-0.041133286
-0.045160536
-0.050138053
-0.055565877
-0.060604526
-0.064036165
-0.064305847
-0.059854793
-0.049418252
-0.03290321
-0.012222409
0.0079076118
0.018806319
0.010668875
-0.041819944
-0.044314602
-0.043616229
-0.042387845
-0.042046819
-0.043122336
-0.04581895
-0.050114646
-0.055757142
-0.062156299
-0.068362064
-0.07298449
-0.074240157
-0.070049734
-0.058688019
-0.039285781
-0.012954965
0.015727353
0.035707068
0.034490969
-0.053735036
-0.055165503
-0.051946775
-0.048310765
-0.046185506
-0.046127309
-0.048272634
-0.052496449
-0.058488952
-0.065457465
-0.072340708
-0.07754999
-0.079056699
-0.074475476
-0.061570945
-0.038766217
-0.0062197524
0.03292037
0.065629568
0.077900695
-0.071859903
-0.068968944
-0.060649801
-0.053117018
-0.04839407
-0.046736242
-0.048052313
-0.051995915
-0.05800404
-0.065169483
-0.072192194
-0.077270884
-0.078136736
-0.072059061
-0.056313868
-0.028776928
0.011335418
0.064062172
0.11408468
0.14975186
-0.10490702
-0.087080676
-0.069705994
-0.056370923
-0.04826661
-0.044716116
-0.045128667
-0.048737762
-0.054654862
-0.061736347
-0.068448484
-0.072754594
-0.072131939
-0.063550195
-0.043717608
-0.0094927145
0.041521423
0.10982922
0.1852831
0.26858394
-0.1747341
-0.10669192
-0.075745209
-0.05491835
-0.043240092
-0.038413275
-0.03860047
-0.042386549
-0.048525274
-0.055668505
-0.062144893
-0.065789157
-0.063863878
-0.052819631
-0.02922808
0.011664696
0.074969592
0.16627461
0.28560412
0.47043439
-0.36993986
-0.123282
-0.054699172
-0.03255937
-0.022776906
-0.020307458
-0.023065368
-0.029119353
-0.037004508
-0.045410564
-0.052775618
-0.05706995
-0.055765249
-0.045851729
-0.022386391
0.020006826
0.090026158
0.20665608
0.39920753
0.7727813
)
;

boundaryField
{
    movingWall
    {
        type            zeroGradient;
    }
    fixedWalls
    {
        type            zeroGradient;
    }
    frontAndBack
    {
        type            empty;
    }
}


// ************************************************************************* //
