/*--------------------------------*- C++ -*----------------------------------*\
| =========                 |                                                 |
| \\      /  F ield         | OpenFOAM: The Open Source CFD Toolbox           |
|  \\    /   O peration     | Version:  2112                                  |
|   \\  /    A nd           | Website:  www.openfoam.com                      |
|    \\/     M anipulation  |                                                 |
\*---------------------------------------------------------------------------*/
FoamFile
{
    version     2.0;
    format      ascii;
    arch        "LSB;label=32;scalar=64";
    class       surfaceScalarField;
    location    "4";
    object      phi;
}
// * * * * * * * * * * * * * * * * * * * * * * * * * * * * * * * * * * * * * //

dimensions      [0 3 -1 0 0 0 0];

oriented        oriented;

internalField   nonuniform List<scalar> 
760
(
6.8645821e-06
-6.8645841e-06
-3.0810055e-05
3.7674622e-05
-0.00011035451
7.9544424e-05
-0.00021676998
0.00010641543
-0.00033613671
0.00011936671
-0.00045724488
0.00012110821
-0.00057072202
0.00011347718
-0.00066777566
9.7053667e-05
-0.00073945031
7.1674675e-05
-0.00077685523
3.7404871e-05
-0.00077231963
-4.5356774e-06
-0.0007214199
-5.0899841e-05
-0.00062538567
-9.603431e-05
-0.00049297275
-0.00013241292
-0.00034086396
-0.00015210878
-0.00019195167
-0.00014891232
-7.1043732e-05
-0.00012090791
1.839266e-06
-7.2882994e-05
2.1025914e-05
-1.9186712e-05
2.102591e-05
-3.844701e-05
3.1582422e-05
-0.00017347221
0.00017269982
-0.00038930254
0.00029537477
-0.00065844843
0.00037556132
-0.00095336409
0.00041428237
-0.001249084
0.00041682816
-0.0015229021
0.00038729528
-0.0017532321
0.00032738366
-0.0019191029
0.00023754539
-0.0020010723
0.00011937416
-0.0019844219
-2.1186228e-05
-0.001861037
-0.00017428477
-0.0016360578
-0.0003210136
-0.0013293696
-0.0004391011
-0.00097628224
-0.00050519599
-0.00062371099
-0.00050148359
-0.0003215566
-0.00042306236
-0.00011046319
-0.00028397644
-1.0540388e-05
-0.00011910952
1.0485514e-05
-8.9823239e-05
0.00012140564
-0.00032550907
0.00040838561
-0.00066812728
0.00063799298
-0.0010781833
0.00078561733
-0.0015185393
0.00085463844
-0.0019553422
0.0008536311
-0.0023571688
0.00078912188
-0.0026938477
0.00066406257
-0.0029362427
0.00047994038
-0.0030578254
0.00024095671
-0.0030379019
-4.1109805e-05
-0.0028657988
-0.00034638795
-0.0025472468
-0.0006395656
-0.0021076358
-0.00087871206
-0.001593228
-0.0010196037
-0.0010671242
-0.0010275873
-0.00059883899
-0.00089134757
-0.00024867865
-0.00063413679
-5.0761058e-05
-0.00031702706
-4.0275529e-05
-0.00013668944
0.00025809509
-0.0004678363
0.00073953246
-0.00092957381
0.0010997305
-0.0014684988
0.0013245424
-0.0020390951
0.0014252348
-0.0026014144
0.0014159504
-0.0031185671
0.0013062745
-0.0035548009
0.0011002964
-0.0038750257
0.00080016512
-0.0040463819
0.00041231286
-0.004042155
-4.5336815e-05
-0.0038455038
-0.00054303909
-0.0034585315
-0.0010265379
-0.0029066273
-0.0014306162
-0.0022421431
-0.0016840878
-0.0015421444
-0.001727586
-0.00089765971
-0.0015358323
-0.00039444462
-0.0011373518
-9.0549261e-05
-0.00062092236
-0.00013082478
-0.00017845466
0.00043654977
-0.00059785339
0.0011589312
-0.0011705775
0.0016724546
-0.0018295545
0.0019835194
-0.00252194
0.0021176203
-0.0032036593
0.0020976698
-0.0038347208
0.001937336
-0.0043759231
0.0016414987
-0.0047874846
0.0012117266
-0.0050297047
0.00065453285
-0.005069304
-5.7374951e-06
-0.0048769647
-0.00073537842
-0.0044469136
-0.001456589
-0.0037978712
-0.0020796586
-0.002983349
-0.00249861
-0.0020933633
-0.0026175717
-0.0012452715
-0.002383924
-0.00056054086
-0.0018220824
-0.00013271969
-0.0010487435
-0.00026354448
-0.00021560185
0.0006521516
-0.00071523342
0.0016585628
-0.0013900748
0.002347296
-0.0021607979
0.0027542424
-0.002968669
0.0029254914
-0.0037673262
0.002896327
-0.004515752
0.0026857618
-0.0051731506
0.0022988973
-0.005696185
0.001734761
-0.0060390735
0.0009974212
-0.0061540265
0.0001092155
-0.006004263
-0.00088514191
-0.0055638963
-0.0018969558
-0.0048381181
-0.0028054368
-0.0038745079
-0.0034622203
-0.0027727917
-0.0037192879
-0.0016810347
-0.0034756809
-0.00076962545
-0.0027334915
-0.00018480446
-0.0016335646
-0.00044834896
-0.00024817227
0.00090032386
-0.0008189654
0.002229356
-0.0015852616
0.0031135922
-0.0024573655
0.0036263463
-0.0033723408
0.0038404668
-0.0042834236
0.0038074098
-0.0051506592
0.0035529974
-0.0059337127
0.0030819506
-0.0065872586
0.0023883069
-0.0070591483
0.001469311
-0.0072911009
0.00034116799
-0.0072274534
-0.00094878944
-0.006821139
-0.0023032702
-0.0060536599
-0.0035729158
-0.0049555648
-0.0045603153
-0.0036273599
-0.0050474929
-0.002247445
-0.0048555958
-0.0010490145
-0.003931922
-0.00025623131
-0.0024263478
-0.00070458026
-0.00027555704
0.0011758809
-0.0009066542
0.0028604531
-0.0017505655
0.0039575036
-0.0027089913
0.0045847721
-0.0037164266
0.0048479021
-0.0047275996
0.0048185829
-0.0057058872
0.004531285
-0.0066139992
0.0039900625
-0.0074073222
0.00318163
-0.0080300492
0.0020920381
-0.008414207
0.00072532581
-0.0084854809
-0.00087751561
-0.0081708773
-0.0026178739
-0.0074190565
-0.0043247366
-0.0062286
-0.0057507718
-0.0046834214
-0.0065926715
-0.0029814765
-0.0065575408
-0.0014277714
-0.0054856271
-0.00035796889
-0.0034961503
-0.0010625491
-0.00029686911
0.00147275
-0.00097525926
0.0035388433
-0.0018787008
0.0048609452
-0.0029013691
0.0056074404
-0.0039764582
0.0059229912
-0.0050619415
0.0059040663
-0.0061269253
0.0055962689
-0.0071403537
0.0050034909
-0.008062402
0.0041036784
-0.0088384597
0.0028680957
-0.0093958368
0.0012827029
-0.0096452467
-0.00062810583
-0.0094884216
-0.002774699
-0.008834438
-0.0049787202
-0.0076333039
-0.0069519059
-0.0059258929
-0.0083000825
-0.0039024617
-0.0085809719
-0.0019335761
-0.0074545126
-0.00050311575
-0.0049266106
-0.0015656649
-0.00031185092
0.0017846009
-0.0010231919
0.0042501843
-0.0019637663
0.0058015197
-0.0030201227
0.0066637969
-0.0041249294
0.0070277979
-0.0052409797
0.0070201165
-0.0063455489
0.0067008381
-0.00741745
0.006075392
-0.0084269049
0.0051131333
-0.0093276684
0.0037688592
-0.010051182
0.0020062168
-0.010502092
-0.00017719576
-0.010565034
-0.0027117574
-0.010109152
-0.0054346023
-0.0090229181
-0.0080381395
-0.0072724104
-0.01005059
-0.0049934572
-0.010859925
-0.0025866173
-0.0098613525
-0.00070781002
-0.0068054178
-0.0022734749
-0.00032234806
0.002106949
-0.0010536891
0.0049815254
-0.002006157
0.0067539876
-0.0030570991
0.007714739
-0.0041392744
0.0081099732
-0.0052220117
0.0081028538
-0.0062932821
0.0077721085
-0.0073455325
0.0071276423
-0.0083647975
0.0061323984
-0.0093217035
0.0047257652
-0.01016329
0.0028478033
-0.01080376
0.00046327403
-0.011123631
-0.0023918857
-0.010964856
-0.0055933775
-0.010151982
-0.0088510137
-0.0085487972
-0.011653775
-0.0061757653
-0.013232957
-0.0033869315
-0.012650186
-0.00099135149
-0.0092009978
-0.0032648264
-0.0003345809
0.00244153
-0.0010794893
0.0057264338
-0.0020188024
0.0076933006
-0.0030179381
0.0087138748
-0.0040114083
0.0091034434
-0.0049778904
0.0090693359
-0.0059190302
0.0087132484
-0.0068444806
0.0080530926
-0.0077612741
0.0070491919
-0.0086648543
0.0056293453
-0.0095296557
0.0037126046
-0.010298517
0.0012321357
-0.010865276
-0.0018251269
-0.011070919
-0.0053877349
-0.010691549
-0.0092303835
-0.0094798111
-0.012865513
-0.0072827031
-0.015430065
-0.0042926539
-0.015640235
-0.0013733325
-0.012120319
-0.0046381588
-0.00036278462
0.0028043146
-0.0011288661
0.0064925153
-0.0020335628
0.0085979974
-0.0029283838
0.0096086957
-0.0037549315
0.009929991
-0.0045069005
0.0098213049
-0.0052038082
0.0094101562
-0.005875739
0.0087250234
-0.0065541897
0.0077276426
-0.0072645453
0.0063397009
-0.0080176467
0.004465706
-0.0087982308
0.0020127199
-0.0095392883
-0.0010840694
-0.010111816
-0.0048152072
-0.010280757
-0.0090614427
-0.0097109649
-0.013435305
-0.0080469012
-0.017094129
-0.0051914962
-0.01849564
-0.0018637018
-0.015448114
-0.0065018606
-0.000435405
0.0032397196
-0.0012527942
0.0073099047
-0.0021049493
0.0094501526
-0.002833925
0.010337671
-0.003402132
0.010498198
-0.0038291816
0.010248354
-0.0041587694
0.0097397439
-0.0044442259
0.0090104798
-0.0047425037
0.0080259204
-0.0051093007
0.0067064978
-0.0055939752
0.0049503803
-0.0062301162
0.002648861
-0.007009301
-0.00030488469
-0.0078645505
-0.0039599577
-0.0086031036
-0.0083228896
-0.0088637651
-0.013174643
-0.0081142211
-0.017843673
-0.0058743831
-0.020735478
-0.0024399032
-0.018882593
-0.0089417638
-0.00060580381
0.0038455235
-0.0015308344
0.0082349354
-0.0023025874
0.010221906
-0.0027793126
0.010814397
-0.0029735922
0.010692478
-0.002949297
0.010224059
-0.0027830481
0.009573495
-0.002553184
0.0087806157
-0.0023410277
0.007813764
-0.0022271335
0.0065926037
-0.0022939119
0.0050171588
-0.0026185363
0.0029734853
-0.003265006
0.00034158494
-0.0042370058
-0.0029879578
-0.005448095
-0.0071118004
-0.0066007484
-0.01202199
-0.0070826905
-0.01736173
-0.006020005
-0.021798164
-0.0030065694
-0.021896029
-0.011948333
-0.0009680653
0.0048135888
-0.0020610536
0.0093279237
-0.0026617239
0.010822576
-0.0027273671
0.01088004
-0.0023750768
0.010340187
-0.0017385222
0.0095875045
-0.00093673386
0.0087717065
-7.3877362e-05
0.0079177592
0.00075684402
0.0069830425
0.0014548472
0.0058946005
0.0019165771
0.004555429
0.0020316609
0.0028584014
0.0016849244
0.00068832147
0.00078519083
-0.0020882242
-0.00070400512
-0.0056226044
-0.0026503566
-0.010075638
-0.0045370833
-0.015475004
-0.0051856294
-0.021149618
-0.0033530148
-0.023728644
-0.015301348
-0.001665306
0.0064788949
-0.0028549362
0.010517554
-0.0029779517
0.010945591
-0.0022924624
0.01019455
-0.0011048203
0.0091525451
0.00036230184
0.0081203825
0.0019517439
0.0071822645
0.0035479093
0.0063215937
0.0050514875
0.0054794642
0.0063662458
0.0045798422
0.0073846648
0.00353701
0.0079829801
0.002260086
0.0080128339
0.00065846763
0.0073197501
-0.0013951403
0.0057497641
-0.0040526184
0.0032407392
-0.0075666134
8.3850709e-05
-0.012318115
-0.0027796152
-0.018286152
-0.0031437946
-0.023364464
-0.018445142
-0.0027424627
0.0092213575
-0.003266174
0.011041265
-0.002074686
0.0097541035
2.2653879e-06
0.008117599
0.0024294334
0.006725377
0.004931049
0.0056187669
0.0073703983
0.0047429151
0.0096655701
0.0040264219
0.011751242
0.0033937921
0.013557396
0.0027736888
0.014995355
0.0020990502
0.015950216
0.0013052258
0.016272761
0.00033592221
0.015779113
-0.00090149218
0.014235941
-0.002509447
0.011381986
-0.004712658
0.0070709856
-0.0080071149
0.0020258663
-0.013241032
-0.0013808898
-0.019957708
-0.019826032
-0.0023848331
0.011606191
4.9099499e-05
0.0086073324
0.0042106471
0.005592556
0.0082548947
0.0040733513
0.011921912
0.0030583601
0.015193679
0.0023469999
0.018087516
0.0018490781
0.020627699
0.0014862382
0.022825173
0.001196318
0.024664952
0.00093390986
0.026099568
0.00066443443
0.027043235
0.00036155863
0.027363059
1.6098211e-05
0.026931616
-0.00047004887
0.025466999
-0.0010448299
0.022625005
-0.0018706637
0.017897597
-0.0032797069
0.011009401
-0.0063528361
0.0033447823
-0.01229309
-0.01648125
0.011606191
0.020213523
0.025806079
0.02987943
0.03293779
0.03528479
0.037133868
0.038620107
0.039816425
0.040750334
0.041414769
0.041776328
0.041792426
0.041322377
0.040277547
0.038406883
0.035127176
0.02877434
0.01648125
)
;

boundaryField
{
    movingWall
    {
        type            calculated;
        value           uniform 0;
    }
    fixedWalls
    {
        type            calculated;
        value           uniform 0;
    }
    frontAndBack
    {
        type            empty;
        value           nonuniform List<scalar> 0();
    }
}


// ************************************************************************* //
