/*--------------------------------*- C++ -*----------------------------------*\
| =========                 |                                                 |
| \\      /  F ield         | OpenFOAM: The Open Source CFD Toolbox           |
|  \\    /   O peration     | Version:  2112                                  |
|   \\  /    A nd           | Website:  www.openfoam.com                      |
|    \\/     M anipulation  |                                                 |
\*---------------------------------------------------------------------------*/
FoamFile
{
    version     2.0;
    format      ascii;
    arch        "LSB;label=32;scalar=64";
    class       surfaceScalarField;
    location    "4";
    object      phi_0;
}
// * * * * * * * * * * * * * * * * * * * * * * * * * * * * * * * * * * * * * //

dimensions      [0 3 -1 0 0 0 0];

oriented        oriented;

internalField   nonuniform List<scalar> 
760
(
6.8409462e-06
-6.8407885e-06
-3.0819917e-05
3.7660843e-05
-0.00011030991
7.949001e-05
-0.00021663871
0.00010632888
-0.00033589729
0.0001192585
-0.00045688565
0.00012098828
-0.00057024192
0.00011335622
-0.00066718663
9.6944771e-05
-0.0007387801
7.1593506e-05
-0.00077614769
3.7367652e-05
-0.00077163159
-4.5159956e-06
-0.00072081247
-5.0819228e-05
-0.0006249128
-9.5899816e-05
-0.00049266778
-0.000132245
-0.00034072915
-0.00015193851
-0.00019195504
-0.00014877401
-7.1128005e-05
-0.00012082698
1.7377736e-06
-7.2865716e-05
2.0976735e-05
-1.923895e-05
2.0976589e-05
-3.8429753e-05
3.1588932e-05
-0.00017335384
0.00017258471
-0.00038899536
0.00029513118
-0.00065788529
0.0003752187
-0.00095250158
0.00041387475
-0.0012479039
0.0004163906
-0.0015214145
0.00038686691
-0.0017514802
0.00032701055
-0.0019171655
0.00023727892
-0.0019990618
0.00011926386
-0.0019824727
-2.1105157e-05
-0.0018592884
-0.00017400356
-0.0016346291
-0.00032055918
-0.0013283357
-0.00043853827
-0.00097565531
-0.00050461882
-0.00062343428
-0.00050099497
-0.00032151667
-0.00042274465
-0.00011051892
-0.00028386359
-1.058941e-05
-0.00011916858
1.0387107e-05
-8.9746086e-05
0.00012133505
-0.00032520745
0.00040804624
-0.00066748212
0.00063740578
-0.0010771086
0.00078484513
-0.0015169838
0.00085374987
-0.0019532912
0.00085269811
-0.0023546497
0.00078822546
-0.0026909351
0.00066329601
-0.0029330602
0.00047940405
-0.0030545397
0.00024074333
-0.0030347083
-4.0936692e-05
-0.0028628948
-0.00034581724
-0.0025448034
-0.00063865063
-0.0021057669
-0.0008775746
-0.001591967
-0.0010184186
-0.0010664146
-0.0010265474
-0.00059854546
-0.0008906138
-0.00024862349
-0.00063378554
-5.0780838e-05
-0.00031701132
-4.0393696e-05
-0.00013654589
0.00025788077
-0.00046733831
0.00073883868
-0.00092857349
0.001098641
-0.0014668991
0.0013231707
-0.002036844
0.0014236947
-0.0025985053
0.0014143595
-0.0031150446
0.0013047649
-0.0035507668
0.0010990183
-0.0038706394
0.00079927652
-0.0040418539
0.00041195764
-0.0040377295
-4.5061171e-05
-0.0038414253
-0.00054212152
-0.003455018
-0.001025058
-0.0029038373
-0.0014287553
-0.0022401457
-0.0016821102
-0.0015409028
-0.0017257903
-0.00089703561
-0.0015344809
-0.00039423021
-0.0011365909
-9.0525301e-05
-0.00062071628
-0.00013091891
-0.00017824883
0.0004361296
-0.0005971731
0.001157763
-0.0011692509
0.0016707188
-0.0018274774
0.0019813973
-0.0025190621
0.0021152793
-0.003199982
0.0020952795
-0.0038303026
0.0019350855
-0.0043708854
0.001639601
-0.0047820119
0.0012104029
-0.0050240287
0.00065397439
-0.0050637339
-5.3561647e-06
-0.0048717524
-0.00073410314
-0.0044423295
-0.0014544808
-0.003794123
-0.0020769619
-0.0029805543
-0.0024956791
-0.0020915239
-0.0026148207
-0.0012442642
-0.0023817404
-0.00056013787
-0.0018207171
-0.00013264384
-0.0010482103
-0.00026356277
-0.00021534683
0.00065147646
-0.00071441104
0.0016568272
-0.0013884964
0.0023448042
-0.002158355
0.002751256
-0.0029653134
0.0029222377
-0.0037630651
0.0028930312
-0.004510653
0.0026826734
-0.0051673469
0.0022962949
-0.0056898754
0.0017329313
-0.0060325205
0.00099661933
-0.006147487
0.00010961025
-0.0059980808
-0.00088350929
-0.0055583572
-0.0018942044
-0.0048334715
-0.0028018476
-0.003870926
-0.0034582246
-0.0027703326
-0.003715414
-0.0016796135
-0.0034724594
-0.00076901246
-0.0027313182
-0.00018466998
-0.0016325528
-0.00044823286
-0.00024788986
0.00089936636
-0.00081806705
0.0022270044
-0.0015835516
0.0031102887
-0.0024547346
0.003622439
-0.0033687427
0.0038362458
-0.004278869
0.0038031576
-0.0051452192
0.0035490236
-0.0059275224
0.0030785981
-0.0065805159
0.0023859247
-0.0070521022
0.0014682057
-0.0072840369
0.000341545
-0.0072206759
-0.00094687024
-0.0068149492
-0.0022999311
-0.0060483331
-0.0035684637
-0.0049513231
-0.0045552346
-0.0036243311
-0.005042406
-0.0022456122
-0.0048511782
-0.001048179
-0.0039287514
-0.00025603138
-0.0024247004
-0.00070426426
-0.00027527732
0.0011746437
-0.00090576978
0.0028574969
-0.0017488864
0.0039534053
-0.0027064121
0.0045799647
-0.0037129045
0.0048427383
-0.0047231481
0.0048134012
-0.0057005777
0.0045264533
-0.0066079617
0.0039859823
-0.0074007406
0.0031787037
-0.0080231484
0.0020906136
-0.0084072397
0.00072563639
-0.0084787106
-0.00087539929
-0.0081645703
-0.0026140715
-0.0074134761
-0.004319558
-0.0062239932
-0.0057447175
-0.0046799852
-0.006586414
-0.0029792911
-0.0065518724
-0.0014267185
-0.005481324
-0.00035769763
-0.0034937213
-0.0010619617
-0.0002966285
0.0014712722
-0.00097449643
0.0035353648
-0.0018772465
0.0048561554
-0.002899128
0.0056018463
-0.0039733938
0.0059170042
-0.0050580716
0.0058980791
-0.0061223205
0.0055907023
-0.0071351336
0.0049987953
-0.0080567247
0.0041002949
-0.0088325061
0.002866395
-0.0093897945
0.0012829247
-0.0096393015
-0.00062589241
-0.0094827589
-0.0027706143
-0.0088292565
-0.0049730605
-0.0076288289
-0.0069451449
-0.0059223654
-0.0082928776
-0.0039000732
-0.0085741645
-0.001932345
-0.0074490521
-0.00050277183
-0.0049232945
-0.0015647334
-0.00031168823
0.0017829604
-0.0010226646
0.0042463413
-0.0019627418
0.0057962326
-0.003018523
0.0066576276
-0.0041227279
0.0070212093
-0.0052381997
0.007013551
-0.0063422591
0.0066947617
-0.0074137539
0.0060702901
-0.0084229244
0.0051094654
-0.0093235236
0.0037669942
-0.010046976
0.0020063766
-0.0104979
-0.00017496811
-0.010560917
-0.0027075971
-0.010105191
-0.0054287862
-0.009019257
-0.0080310791
-0.007269279
-0.010042856
-0.0049911374
-0.010852306
-0.0025853041
-0.0098548852
-0.00070740361
-0.006801195
-0.002272137
-0.00032229876
0.0021052591
-0.0010535016
0.0049775443
-0.0020057499
0.006748481
-0.003056418
0.0077082957
-0.0041383048
0.0081030962
-0.0052207812
0.0080960274
-0.0062918524
0.0077658328
-0.0073439829
0.0071224205
-0.0083632036
0.006128686
-0.0093201144
0.004723905
-0.010161707
0.0028479697
-0.010802153
0.00046547709
-0.011121905
-0.0023878444
-0.010962946
-0.0055877459
-0.010149892
-0.0088441326
-0.0085466735
-0.011646074
-0.0061739128
-0.013225066
-0.0033857107
-0.012643087
-0.00099091406
-0.0091959918
-0.0032630511
-0.00033467045
0.0024399295
-0.0010797164
0.0057225903
-0.0020191485
0.0076879133
-0.0030183764
0.0087075237
-0.0040119344
0.0090966541
-0.0049785288
0.0090626217
-0.0059198239
0.0087071279
-0.0068454709
0.0080480675
-0.0077624785
0.0070456936
-0.0086662474
0.0056276737
-0.0095311534
0.0037128756
-0.010299959
0.001234283
-0.010866463
-0.0018213402
-0.01107164
-0.0053825692
-0.010691649
-0.0092241236
-0.0094792866
-0.012858437
-0.007281783
-0.01542257
-0.0042917782
-0.015633092
-0.0013729266
-0.012114843
-0.0046359775
-0.00036302188
0.0028029514
-0.0011295341
0.0064891024
-0.0020347118
0.008593091
-0.0029300158
0.0096028276
-0.0037570455
0.0099236839
-0.0045095037
0.0098150799
-0.005206906
0.0094045301
-0.0058793152
0.0087204767
-0.0065581877
0.0077245661
-0.007268864
0.00633835
-0.0080221277
0.0044661393
-0.0088026496
0.0020148048
-0.0095433596
-0.0010806302
-0.010115249
-0.0048106796
-0.010283269
-0.0090561033
-0.0097123873
-0.013429319
-0.008047299
-0.017087658
-0.0051912482
-0.018489143
-0.0018634245
-0.015442667
-0.0064994021
-0.00043577558
0.003238727
-0.0012538618
0.0073071886
-0.0021068328
0.009446062
-0.0028366545
0.010332649
-0.0034057014
0.010492731
-0.0038335648
0.010242943
-0.0041639145
0.0097348798
-0.004450042
0.0090066041
-0.0047488415
0.0080233656
-0.005115987
0.0067054955
-0.005600798
0.0049509501
-0.0062368336
0.0026508404
-0.0070155998
-0.00030186405
-0.0078701549
-0.0039561247
-0.0086076816
-0.0083185765
-0.0088670307
-0.01316997
-0.0081160498
-0.017838639
-0.0058749686
-0.020730224
-0.0024398693
-0.018877766
-0.0089392715
-0.00060626184
0.0038449889
-0.0015321732
0.0082331
-0.0023049882
0.010218877
-0.0027828338
0.010810495
-0.0029782179
0.010688115
-0.0029549601
0.010219685
-0.0027896317
0.0095695515
-0.0025605394
0.0087775115
-0.0023488691
0.0078116952
-0.0022352477
0.0065918741
-0.0023020451
0.0050177477
-0.0026264312
0.0029752266
-0.0032724709
0.00034417559
-0.0042437506
-0.0029848449
-0.0054538664
-0.0071084606
-0.0066052496
-0.012018586
-0.0070856702
-0.017358219
-0.0060214171
-0.021794477
-0.0030068569
-0.021892326
-0.011946128
-0.00096852269
0.0048135116
-0.0020624281
0.0093270056
-0.0026642471
0.010820696
-0.0027311305
0.010877379
-0.0023800629
0.010337047
-0.0017446387
0.0095842609
-0.00094380225
0.0087687152
-8.1608764e-05
0.007915318
0.00074855856
0.0069815279
0.0014463774
0.0058940552
0.0019082198
0.0045559054
0.0020236618
0.0028597844
0.0016774756
0.00069036161
0.00077845011
-0.0020858194
-0.00070985449
-0.0056201559
-0.0026551454
-0.010073295
-0.004540646
-0.015472718
-0.0051875457
-0.021147577
-0.0033535783
-0.023726294
-0.015299707
-0.0016656273
0.0064791389
-0.0028560088
0.010517387
-0.0029800317
0.010944719
-0.0022957157
0.010193063
-0.0011092193
0.0091505506
0.00035679395
0.0081182477
0.0019452799
0.0071802292
0.0035406965
0.0063199015
0.0050438761
0.0054783482
0.0063585161
0.0045794152
0.0073771153
0.0035373062
0.0079758658
0.0022610338
0.0080063482
0.00065987926
0.0073139948
-0.0013934657
0.0057448139
-0.0040509754
0.0032367522
-0.0075652337
8.1177256e-05
-0.012317143
-0.0027814638
-0.018284936
-0.0031444808
-0.023363277
-0.018444187
-0.0027425328
0.0092216716
-0.0032666229
0.011041477
-0.0020757649
0.0097538607
3.8814892e-07
0.0081169096
0.0024265248
0.0067244139
0.0049271447
0.0056176277
0.0073656034
0.0047417706
0.0096600606
0.0040254441
0.01174528
0.0033931285
0.013551272
0.0027734231
0.014989368
0.0020992103
0.015944634
0.0013057685
0.016267781
0.00033673212
0.015774833
-0.00090051817
0.014232388
-0.0025085298
0.011379102
-0.0047119484
0.0070686521
-0.0080066928
0.0020243957
-0.01324068
-0.0013815586
-0.019957323
-0.019825746
-0.0023846764
0.011606348
4.9321296e-05
0.0086074795
0.0042106008
0.0055925813
0.0082543317
0.0040731787
0.011920689
0.0030580564
0.015191704
0.0023466127
0.018084796
0.0018486782
0.020624343
0.0014858973
0.022821376
0.0011960953
0.024660961
0.00093383906
0.026095644
0.00066452668
0.027039616
0.00036179645
0.027359976
1.6372204e-05
0.026929121
-0.0004696628
0.025465112
-0.0010445205
0.022623612
-0.0018704489
0.017896559
-0.0032796399
0.011008715
-0.006352836
0.0033444961
-0.012293103
-0.01648125
0.011606348
0.020213828
0.025806409
0.029879587
0.032937644
0.035284256
0.037132935
0.038618832
0.039814927
0.040748766
0.041413293
0.041775089
0.041791461
0.041321799
0.040277278
0.038406829
0.03512719
0.028774353
0.01648125
)
;

boundaryField
{
    movingWall
    {
        type            calculated;
        value           uniform 0;
    }
    fixedWalls
    {
        type            calculated;
        value           uniform 0;
    }
    frontAndBack
    {
        type            empty;
        value           nonuniform List<scalar> 0();
    }
}


// ************************************************************************* //
