/*--------------------------------*- C++ -*----------------------------------*\
| =========                 |                                                 |
| \\      /  F ield         | OpenFOAM: The Open Source CFD Toolbox           |
|  \\    /   O peration     | Version:  2112                                  |
|   \\  /    A nd           | Website:  www.openfoam.com                      |
|    \\/     M anipulation  |                                                 |
\*---------------------------------------------------------------------------*/
FoamFile
{
    version     2.0;
    format      ascii;
    arch        "LSB;label=32;scalar=64";
    class       volVectorField;
    location    "4";
    object      U;
}
// * * * * * * * * * * * * * * * * * * * * * * * * * * * * * * * * * * * * * //

dimensions      [0 1 -1 0 0 0 0];

internalField   nonuniform List<vector> 
400
(
(0.00020505532 -0.00020124554 0)
(-1.4077829e-05 0.00010666705 0)
(-0.0012695595 0.00043015021 0)
(-0.0031919108 0.00063162443 0)
(-0.0055002652 0.00072748826 0)
(-0.0079499005 0.00074760028 0)
(-0.010336705 0.00071038599 0)
(-0.01248123 0.00062032848 0)
(-0.014206323 0.00047316237 0)
(-0.015330334 0.00026465203 0)
(-0.01568185 -9.7325296e-07 0)
(-0.015131463 -0.00030729079 0)
(-0.013639182 -0.00061261405 0)
(-0.011301691 -0.00086147482 0)
(-0.0083770438 -0.00099273688 0)
(-0.0052731604 -0.00095616514 0)
(-0.0024811295 -0.00073329713 0)
(-0.00044486396 -0.00036029435 0)
(0.00047743976 3.9498309e-05 0)
(0.00030893462 0.00029232875 0)
(-0.00010456484 4.6062737e-06 0)
(-0.0016318243 0.0015872261 0)
(-0.0052971697 0.0030555643 0)
(-0.010296221 0.0040157015 0)
(-0.016060278 0.00448503 0)
(-0.022080191 0.0045431219 0)
(-0.027882125 0.0042481074 0)
(-0.033025128 0.0036206305 0)
(-0.037081865 0.0026595305 0)
(-0.039640596 0.0013736642 0)
(-0.040345015 -0.00018463268 0)
(-0.038948894 -0.0018931503 0)
(-0.035406573 -0.0035443696 0)
(-0.029961514 -0.0048710439 0)
(-0.023173783 -0.005593302 0)
(-0.015892718 -0.0054959432 0)
(-0.0091308013 -0.0045186611 0)
(-0.0038363504 -0.002835106 0)
(-0.00066985007 -0.00091117319 0)
(0.00016083577 0.0004913005 0)
(-0.00049164043 0.0013250429 0)
(-0.0034514727 0.0053485173 0)
(-0.009477699 0.0087277872 0)
(-0.017228602 0.010938067 0)
(-0.02590654 0.011999432 0)
(-0.034838154 0.012040784 0)
(-0.043376786 0.011165045 0)
(-0.050907244 0.0094179956 0)
(-0.056832906 0.0068184033 0)
(-0.06058566 0.0034216467 0)
(-0.061675272 -0.00061158339 0)
(-0.059764838 -0.0049624457 0)
(-0.054782437 -0.0091334652 0)
(-0.047029715 -0.012498827 0)
(-0.037229124 -0.014412373 0)
(-0.026506388 -0.014380825 0)
(-0.016245607 -0.012265733 0)
(-0.007796645 -0.0084450033 0)
(-0.0021783466 -0.0038680939 0)
(-8.8952197e-05 -0.00011156545 0)
(-0.00083071349 0.0036141695 0)
(-0.0051382671 0.011063524 0)
(-0.013413101 0.016842108 0)
(-0.023715206 0.020519334 0)
(-0.035022184 0.022211041 0)
(-0.046542065 0.022129697 0)
(-0.057519166 0.020431661 0)
(-0.067228987 0.017188194 0)
(-0.074959483 0.01243937 0)
(-0.080019094 0.0062951042 0)
(-0.081792284 -0.00095673005 0)
(-0.079815466 -0.0087771478 0)
(-0.073910917 -0.016319117 0)
(-0.064335485 -0.022518257 0)
(-0.051862129 -0.026253936 0)
(-0.037813321 -0.026632076 0)
(-0.02393504 -0.023333128 0)
(-0.012052832 -0.016901722 0)
(-0.0037140075 -0.0088282752 0)
(-0.00030088907 -0.001515021 0)
(-0.0011216218 0.0067834563 0)
(-0.0066583 0.018602726 0)
(-0.017028894 0.027226433 0)
(-0.029708422 0.032538398 0)
(-0.043463218 0.03487463 0)
(-0.057414066 0.034588678 0)
(-0.070742375 0.031907403 0)
(-0.082662369 0.026922749 0)
(-0.092383231 0.019679349 0)
(-0.099102974 0.01031675 0)
(-0.10206415 -0.00077244282 0)
(-0.10061256 -0.012803754 0)
(-0.094359611 -0.024595859 0)
(-0.083394401 -0.034574069 0)
(-0.068417172 -0.041006691 0)
(-0.050876597 -0.042407289 0)
(-0.032912568 -0.038074433 0)
(-0.016981177 -0.028594091 0)
(-0.0053998277 -0.016017999 0)
(-0.00048685548 -0.003709333 0)
(-0.0013743425 0.01074221 0)
(-0.0080172911 0.027830819 0)
(-0.020306187 0.039746094 0)
(-0.035183666 0.046876791 0)
(-0.051231894 0.049908112 0)
(-0.067515864 0.049404162 0)
(-0.083194882 0.045685595 0)
(-0.097464548 0.038855663 0)
(-0.10949042 0.028931227 0)
(-0.11837047 0.016034279 0)
(-0.12315019 0.00060571269 0)
(-0.12295018 -0.016395637 0)
(-0.11708846 -0.033445753 0)
(-0.1053027 -0.0484044 0)
(-0.088062464 -0.058768795 0)
(-0.066824846 -0.062184051 0)
(-0.044119796 -0.057231725 0)
(-0.023206554 -0.044284052 0)
(-0.0075093834 -0.025939744 0)
(-0.00070075969 -0.0068125538 0)
(-0.0015929534 0.015399749 0)
(-0.0092107761 0.038579628 0)
(-0.023208487 0.05421327 0)
(-0.040063981 0.063362182 0)
(-0.058209475 0.067186243 0)
(-0.076687681 0.066534381 0)
(-0.094676584 0.061847968 0)
(-0.1113962 0.053228882 0)
(-0.12600495 0.040620991 0)
(-0.13752551 0.024058122 0)
(-0.14483289 0.0039353005 0)
(-0.14675406 -0.01873879 0)
(-0.14220036 -0.042125773 0)
(-0.13043149 -0.063508239 0)
(-0.11147254 -0.079456577 0)
(-0.086566571 -0.086401226 0)
(-0.058507012 -0.081703487 0)
(-0.0314618 -0.065044541 0)
(-0.010389084 -0.039426677 0)
(-0.0010116329 -0.011111187 0)
(-0.0017744681 0.020659594 0)
(-0.010215292 0.050651774 0)
(-0.02566298 0.070387039 0)
(-0.0441979 0.081748942 0)
(-0.064135097 0.086493431 0)
(-0.084527619 0.085832133 0)
(-0.10461401 0.080358925 0)
(-0.1236883 0.070163064 0)
(-0.1409559 0.05506379 0)
(-0.15541885 0.034915654 0)
(-0.16582524 0.0099457111 0)
(-0.17071866 -0.01890275 0)
(-0.16856159 -0.049632128 0)
(-0.15800917 -0.07900982 0)
(-0.1383981 -0.10258398 0)
(-0.11041591 -0.11521298 0)
(-0.076784686 -0.112366 0)
(-0.042483056 -0.09221213 0)
(-0.014441298 -0.057685816 0)
(-0.0015056152 -0.017097077 0)
(-0.0019129443 0.026408601 0)
(-0.010999863 0.063808652 0)
(-0.027578405 0.087951506 0)
(-0.047383504 0.10167441 0)
(-0.068636124 0.10745038 0)
(-0.090427146 0.10693843 0)
(-0.11209672 0.10092651 0)
(-0.1330687 0.089490671 0)
(-0.15266844 0.072283456 0)
(-0.16996822 0.048894594 0)
(-0.18369019 0.019252837 0)
(-0.19218736 -0.015937786 0)
(-0.19352704 -0.054726371 0)
(-0.18571354 -0.093552591 0)
(-0.16717485 -0.12700229 0)
(-0.1376098 -0.14811439 0)
(-0.099072397 -0.1497079 0)
(-0.056867419 -0.12718155 0)
(-0.020129488 -0.082278636 0)
(-0.0023041384 -0.025504717 0)
(-0.0020084212 0.032518242 0)
(-0.01155602 0.077770793 0)
(-0.028897436 0.10650003 0)
(-0.049439059 0.12261671 0)
(-0.071316191 0.12944059 0)
(-0.093679372 0.12917535 0)
(-0.11600966 0.12286014 0)
(-0.13792012 0.11057756 0)
(-0.15894372 0.091796624 0)
(-0.17834723 0.065783259 0)
(-0.19498808 0.032054815 0)
(-0.20721531 -0.0091106988 0)
(-0.21288293 -0.056089306 0)
(-0.20944162 -0.10530963 0)
(-0.19430949 -0.15069806 0)
(-0.16577547 -0.18350749 0)
(-0.12440875 -0.19327404 0)
(-0.074816359 -0.1709803 0)
(-0.027975335 -0.11500551 0)
(-0.0035973798 -0.037366114 0)
(-0.0020816461 0.038869846 0)
(-0.011946391 0.092250579 0)
(-0.029680257 0.12554719 0)
(-0.050314402 0.14387748 0)
(-0.071895453 0.15156497 0)
(-0.093658544 0.15147451 0)
(-0.11526751 0.14497208 0)
(-0.13658508 0.13219325 0)
(-0.15744387 0.1124454 0)
(-0.17744463 0.084660152 0)
(-0.1957821 0.047878939 0)
(-0.21107597 0.0017934021 0)
(-0.22126341 -0.052609734 0)
(-0.22352044 -0.11218506 0)
(-0.21439966 -0.17078548 0)
(-0.19054268 -0.21836063 0)
(-0.15018445 -0.24099386 0)
(-0.095696097 -0.22356049 0)
(-0.038493815 -0.15760599 0)
(-0.0056895119 -0.054080878 0)
(-0.0021988133 0.045416638 0)
(-0.012376372 0.10702943 0)
(-0.030215147 0.14457512 0)
(-0.050227507 0.16459582 0)
(-0.070376961 0.17263696 0)
(-0.09003658 0.17236466 0)
(-0.10911157 0.16556054 0)
(-0.12777648 0.15248201 0)
(-0.14624598 0.13233741 0)
(-0.16458014 0.103773 0)
(-0.18250868 0.065362111 0)
(-0.19922678 0.016127634 0)
(-0.21312465 -0.043812477 0)
(-0.22156152 -0.11227213 0)
(-0.22067737 -0.18384338 0)
(-0.20561919 -0.24818992 0)
(-0.17173543 -0.28860916 0)
(-0.11744171 -0.28283362 0)
(-0.051976184 -0.21113753 0)
(-0.0090370324 -0.077468688 0)
(-0.002516617 0.052303428 0)
(-0.013299922 0.12208607 0)
(-0.031146532 0.16310594 0)
(-0.049789593 0.18378289 0)
(-0.067175246 0.19121431 0)
(-0.082944694 0.19002658 0)
(-0.097345523 0.18249772 0)
(-0.11093399 0.16907715 0)
(-0.12436773 0.14896118 0)
(-0.13824529 0.12061068 0)
(-0.1529615 0.082223392 0)
(-0.16850555 0.032193962 0)
(-0.18410404 -0.030322728 0)
(-0.19787532 -0.10455473 0)
(-0.20625238 -0.18670666 0)
(-0.20358052 -0.26763306 0)
(-0.18244541 -0.32959806 0)
(-0.13601779 -0.3437302 0)
(-0.068003714 -0.27491896 0)
(-0.014217865 -0.10970495 0)
(-0.0033693632 0.060083921 0)
(-0.015579167 0.13776832 0)
(-0.033592499 0.18075761 0)
(-0.050036519 0.20032951 0)
(-0.063075043 0.20562659 0)
(-0.07289811 0.20238064 0)
(-0.080269866 0.19339405 0)
(-0.086212621 0.17933837 0)
(-0.091858248 0.15947495 0)
(-0.098349299 0.13219395 0)
(-0.1067565 0.095477864 0)
(-0.11793817 0.047261008 0)
(-0.13220781 -0.014171998 0)
(-0.14894093 -0.089642031 0)
(-0.1657031 -0.17759152 0)
(-0.17726409 -0.27170374 0)
(-0.17453931 -0.35598465 0)
(-0.14526162 -0.39784694 0)
(-0.084621089 -0.34509432 0)
(-0.021682512 -0.15289671 0)
(-0.0054340728 0.070118968 0)
(-0.02071214 0.15496725 0)
(-0.039144934 0.19717497 0)
(-0.0521424 0.21287583 0)
(-0.058710192 0.213898 0)
(-0.060106511 0.20711105 0)
(-0.057876175 0.19574015 0)
(-0.053598487 0.1806103 0)
(-0.048877218 0.16107017 0)
(-0.045323935 0.13551154 0)
(-0.044561059 0.10187696 0)
(-0.048207096 0.057877282 0)
(-0.057716813 0.0012247382 0)
(-0.073892451 -0.070140781 0)
(-0.096122621 -0.15710898 0)
(-0.12112776 -0.25741698 0)
(-0.14028441 -0.36005819 0)
(-0.13722397 -0.43415549 0)
(-0.097296926 -0.41324636 0)
(-0.031044455 -0.2080542 0)
(-0.0099893275 0.085291109 0)
(-0.031018149 0.17510483 0)
(-0.049293783 0.21161401 0)
(-0.05607912 0.21935716 0)
(-0.052681175 0.21341871 0)
(-0.042236152 0.20150387 0)
(-0.027377131 0.18691902 0)
(-0.010282 0.17040893 0)
(0.0070410282 0.1512778 0)
(0.022668895 0.12800062 0)
(0.034661177 0.098586622 0)
(0.04088955 0.060772238 0)
(0.039080833 0.012116337 0)
(0.027118593 -0.050026304 0)
(0.0034942942 -0.12843754 0)
(-0.031559217 -0.2250356 0)
(-0.072749865 -0.3364632 0)
(-0.10255113 -0.44057137 0)
(-0.098153947 -0.46593253 0)
(-0.039814269 -0.27403808 0)
(-0.019024686 0.11104632 0)
(-0.048857842 0.1988392 0)
(-0.062243065 0.22127213 0)
(-0.055720703 0.2155669 0)
(-0.035825743 0.19992887 0)
(-0.0084221148 0.18184343 0)
(0.022726973 0.16392483 0)
(0.055009894 0.14638015 0)
(0.086368965 0.128249 0)
(0.11491043 0.10805221 0)
(0.13866072 0.083952964 0)
(0.15536671 0.053927682 0)
(0.16232077 0.015775468 0)
(0.15656024 -0.033063611 0)
(0.13494805 -0.095985254 0)
(0.094560244 -0.17790219 0)
(0.034996891 -0.28369281 0)
(-0.029982961 -0.40581411 0)
(-0.076113127 -0.4857884 0)
(-0.041992189 -0.34642302 0)
(-0.033326727 0.1568326 0)
(-0.069703372 0.22016223 0)
(-0.058981426 0.2145236 0)
(-0.023320535 0.19031813 0)
(0.023370371 0.16462246 0)
(0.073452719 0.14195921 0)
(0.12332694 0.12280609 0)
(0.17095087 0.10626972 0)
(0.21497657 0.09098086 0)
(0.25413789 0.075453718 0)
(0.28691545 0.058147568 0)
(0.31135909 0.037486279 0)
(0.32480183 0.011792126 0)
(0.32410161 -0.02089813 0)
(0.30514542 -0.063208661 0)
(0.26282141 -0.12064706 0)
(0.19213364 -0.20369778 0)
(0.096096629 -0.32327416 0)
(-0.015474003 -0.45263798 0)
(-0.024539441 -0.40694625 0)
(-0.032713589 0.2401877 0)
(-0.041958801 0.21880553 0)
(0.042143132 0.16390384 0)
(0.12568412 0.12619281 0)
(0.20312366 0.09887152 0)
(0.27263221 0.078767958 0)
(0.334249 0.06396475 0)
(0.38848795 0.052662127 0)
(0.43579273 0.043292053 0)
(0.47618625 0.034591585 0)
(0.50907872 0.025509663 0)
(0.53321796 0.015130064 0)
(0.54633369 0.0025725616 0)
(0.54607451 -0.012833608 0)
(0.52828495 -0.032904006 0)
(0.48728165 -0.061009654 0)
(0.41434014 -0.10620713 0)
(0.30155262 -0.19287246 0)
(0.12166938 -0.33671682 0)
(0.051898816 -0.39420759 0)
(0.24337852 0.1529332 0)
(0.30634872 0.11907509 0)
(0.45608887 0.076370843 0)
(0.56081509 0.050750526 0)
(0.63187649 0.0347336 0)
(0.68459943 0.024262992 0)
(0.72583492 0.017408625 0)
(0.75879471 0.012834998 0)
(0.78536124 0.00956213 0)
(0.80652149 0.0069140555 0)
(0.82248418 0.004418542 0)
(0.8328497 0.0017483071 0)
(0.83670427 -0.0013835892 0)
(0.83254895 -0.0048287775 0)
(0.8176829 -0.0093727551 0)
(0.78915009 -0.015933081 0)
(0.73803307 -0.026825843 0)
(0.65339559 -0.051311446 0)
(0.45619109 -0.11383843 0)
(0.317886 -0.17214728 0)
)
;

boundaryField
{
    movingWall
    {
        type            fixedValue;
        value           uniform (1 0 0);
    }
    fixedWalls
    {
        type            fixedValue;
        value           uniform (0 0 0);
    }
    frontAndBack
    {
        type            empty;
    }
}


// ************************************************************************* //
