/*--------------------------------*- C++ -*----------------------------------*\
| =========                 |                                                 |
| \\      /  F ield         | OpenFOAM: The Open Source CFD Toolbox           |
|  \\    /   O peration     | Version:  2112                                  |
|   \\  /    A nd           | Website:  www.openfoam.com                      |
|    \\/     M anipulation  |                                                 |
\*---------------------------------------------------------------------------*/
FoamFile
{
    version     2.0;
    format      ascii;
    arch        "LSB;label=32;scalar=64";
    class       volVectorField;
    location    "4";
    object      U_0;
}
// * * * * * * * * * * * * * * * * * * * * * * * * * * * * * * * * * * * * * //

dimensions      [0 1 -1 0 0 0 0];

internalField   nonuniform List<vector> 
400
(
(0.00020474668 -0.00020093335 0)
(-1.4581027e-05 0.00010677557 0)
(-0.0012693775 0.00042996939 0)
(-0.0031902663 0.00063121393 0)
(-0.0054966252 0.0007269195 0)
(-0.0079439318 0.00074693118 0)
(-0.010328273 0.00070967407 0)
(-0.012470435 0.00061964998 0)
(-0.014193559 0.00047261981 0)
(-0.015316328 0.00026436251 0)
(-0.015667636 -9.0833986e-07 0)
(-0.015118262 -0.00030681985 0)
(-0.013628194 -0.00061177303 0)
(-0.011293834 -0.0008604032 0)
(-0.0083726972 -0.00099166099 0)
(-0.0052720428 -0.00095533881 0)
(-0.0024823065 -0.00073289447 0)
(-0.00044660837 -0.00036034382 0)
(0.00047615399 3.8816426e-05 0)
(0.00030838692 0.00029182429 0)
(-0.00010464652 5.1248884e-06 0)
(-0.0016309437 0.0015864772 0)
(-0.0052932973 0.0030533417 0)
(-0.010287783 0.0040123151 0)
(-0.016046165 0.0044808577 0)
(-0.022059774 0.0045385376 0)
(-0.027855302 0.0042435217 0)
(-0.032992417 0.0036165396 0)
(-0.037044489 0.0026565121 0)
(-0.039600503 0.001372302 0)
(-0.040304747 -0.00018388937 0)
(-0.038911292 -0.0018901658 0)
(-0.035374331 -0.0035394242 0)
(-0.029936673 -0.0048648839 0)
(-0.023157267 -0.0055870384 0)
(-0.015884072 -0.0054907953 0)
(-0.0091282406 -0.0045155648 0)
(-0.003837093 -0.0028343714 0)
(-0.00067132102 -0.00091266212 0)
(0.00016016717 0.0004897787 0)
(-0.00049128509 0.0013246824 0)
(-0.0034484329 0.0053445655 0)
(-0.0094687801 0.008720248 0)
(-0.017211748 0.01092777 0)
(-0.0258804 0.011987342 0)
(-0.034802049 0.012027913 0)
(-0.043330815 0.011152532 0)
(-0.050852411 0.0094071686 0)
(-0.056771207 0.0068107197 0)
(-0.060520055 0.00341849 0)
(-0.061609497 -0.00060923482 0)
(-0.059702955 -0.0049544246 0)
(-0.054728265 -0.0091205386 0)
(-0.046986226 -0.012482799 0)
(-0.037197867 -0.014395849 0)
(-0.026487133 -0.014366654 0)
(-0.016236338 -0.01225623 0)
(-0.0077940092 -0.0084411463 0)
(-0.0021786868 -0.0038690316 0)
(-8.9431973e-05 -0.00011386733 0)
(-0.00082986278 0.0036115842 0)
(-0.005132864 0.011053765 0)
(-0.013398796 0.016826053 0)
(-0.023689589 0.020498651 0)
(-0.034983825 0.022187499 0)
(-0.046490357 0.022105151 0)
(-0.05745446 0.020408203 0)
(-0.067152736 0.017168218 0)
(-0.074874318 0.012425431 0)
(-0.07992878 0.0062895547 0)
(-0.08170152 -0.00095229109 0)
(-0.07972929 -0.0087625921 0)
(-0.073834074 -0.016295747 0)
(-0.064271893 -0.022489084 0)
(-0.051814165 -0.026223309 0)
(-0.037781341 -0.026604833 0)
(-0.023917224 -0.023313381 0)
(-0.012045532 -0.016891545 0)
(-0.0037126729 -0.0088266905 0)
(-0.00030112335 -0.0015173731 0)
(-0.0011203029 0.0067773329 0)
(-0.006650689 0.01858459 0)
(-0.017009608 0.027198774 0)
(-0.029674786 0.032504082 0)
(-0.043413793 0.034836425 0)
(-0.057348349 0.034549429 0)
(-0.070660933 0.031870296 0)
(-0.082566991 0.026891391 0)
(-0.092276986 0.019657502 0)
(-0.098990172 0.010307741 0)
(-0.10195028 -0.00076642017 0)
(-0.10050337 -0.012782031 0)
(-0.094260523 -0.024560378 0)
(-0.083310299 -0.034529127 0)
(-0.068351449 -0.040958482 0)
(-0.050830532 -0.0423629 0)
(-0.032884944 -0.038040241 0)
(-0.016968364 -0.028573875 0)
(-0.005396491 -0.016011336 0)
(-0.00048680942 -0.003710724 0)
(-0.0013726495 0.010731406 0)
(-0.0080079488 0.027802101 0)
(-0.020283039 0.039704206 0)
(-0.035143864 0.046826108 0)
(-0.051174013 0.049852555 0)
(-0.067439487 0.049347665 0)
(-0.083100724 0.045632533 0)
(-0.097354614 0.038810941 0)
(-0.10936809 0.028899913 0)
(-0.1182404 0.016020826 0)
(-0.12301772 0.00061309522 0)
(-0.1228215 -0.016366536 0)
(-0.11696993 -0.033397257 0)
(-0.10519985 -0.048341838 0)
(-0.087979636 -0.058700093 0)
(-0.066764483 -0.062118654 0)
(-0.044081728 -0.057178733 0)
(-0.023187638 -0.044249723 0)
(-0.0075037752 -0.025925077 0)
(-0.00070039261 -0.0068118676 0)
(-0.0015910451 0.015383466 0)
(-0.009200493 0.038538844 0)
(-0.023183304 0.054155415 0)
(-0.040020984 0.06329334 0)
(-0.058147271 0.067111584 0)
(-0.076605915 0.066458977 0)
(-0.094576047 0.061777418 0)
(-0.11127896 0.053169413 0)
(-0.12587438 0.040578991 0)
(-0.1373862 0.024039249 0)
(-0.14469026 0.0039433794 0)
(-0.14661414 -0.018702947 0)
(-0.14206934 -0.042064524 0)
(-0.13031519 -0.063427567 0)
(-0.11137607 -0.079365782 0)
(-0.086493599 -0.086311943 0)
(-0.058458866 -0.081627801 0)
(-0.031436532 -0.064992009 0)
(-0.010380957 -0.039400853 0)
(-0.0010108767 -0.011107171 0)
(-0.001772567 0.020637559 0)
(-0.010205151 0.050598492 0)
(-0.025638237 0.07031276 0)
(-0.044155715 0.08166151 0)
(-0.064074149 0.086399291 0)
(-0.08444762 0.085737504 0)
(-0.10451579 0.080270604 0)
(-0.1235739 0.070088533 0)
(-0.14082853 0.055010622 0)
(-0.1552827 0.034890463 0)
(-0.16568519 0.0099529572 0)
(-0.17057997 -0.018861779 0)
(-0.16842961 -0.049559817 0)
(-0.1578892 -0.078912484 0)
(-0.1382953 -0.10247169 0)
(-0.11033486 -0.11509896 0)
(-0.076728497 -0.11226512 0)
(-0.042451834 -0.092137888 0)
(-0.014430481 -0.057645682 0)
(-0.001504367 -0.017088335 0)
(-0.0019113227 0.026381215 0)
(-0.010991166 0.063743774 0)
(-0.027557055 0.087861962 0)
(-0.047346915 0.10156969 0)
(-0.068583105 0.10733815 0)
(-0.090357518 0.10682603 0)
(-0.11201137 0.10082187 0)
(-0.13296958 0.089402375 0)
(-0.1525584 0.072220035 0)
(-0.16985079 0.048863344 0)
(-0.18356917 0.019258596 0)
(-0.19206656 -0.01589355 0)
(-0.19341013 -0.054646004 0)
(-0.18560429 -0.093442294 0)
(-0.16707741 -0.12687207 0)
(-0.13752888 -0.14797794 0)
(-0.099012685 -0.14958198 0)
(-0.056831807 -0.12708362 0)
(-0.020116047 -0.08222147 0)
(-0.0023022715 -0.025489755 0)
(-0.0020073706 0.032486676 0)
(-0.011550148 0.077696724 0)
(-0.028882603 0.1063982 0)
(-0.049413126 0.12249795 0)
(-0.071278174 0.12931368 0)
(-0.093629249 0.1290487 0)
(-0.11594838 0.12274267 0)
(-0.13784947 0.11047871 0)
(-0.15886608 0.091725528 0)
(-0.17826516 0.065747456 0)
(-0.19490395 0.032059063 0)
(-0.20713095 -0.009065156 0)
(-0.21279963 -0.056004958 0)
(-0.20936059 -0.10519225 0)
(-0.19423274 -0.15055673 0)
(-0.1657066 -0.18335491 0)
(-0.12435313 -0.19312715 0)
(-0.074779728 -0.17085951 0)
(-0.027959843 -0.11492976 0)
(-0.003594784 -0.037343496 0)
(-0.0020814307 0.038836037 0)
(-0.0119446 0.092171213 0)
(-0.029674795 0.12543785 0)
(-0.050303756 0.14374986 0)
(-0.071878904 0.15142881 0)
(-0.093636229 0.15133912 0)
(-0.11524037 0.1448472 0)
(-0.13655463 0.13208887 0)
(-0.1574118 0.11237079 0)
(-0.17741235 0.08462254 0)
(-0.19575029 0.047882404 0)
(-0.21104436 0.0018384033 0)
(-0.22123058 -0.052525952 0)
(-0.22348455 -0.11206789 0)
(-0.21435972 -0.17064254 0)
(-0.19049988 -0.21820222 0)
(-0.15014328 -0.24083482 0)
(-0.095664059 -0.22342187 0)
(-0.038477723 -0.15751237 0)
(-0.0056861789 -0.054049555 0)
(-0.0021996176 0.045383159 0)
(-0.012379558 0.1069499 0)
(-0.03022112 0.14446457 0)
(-0.050235519 0.16446616 0)
(-0.070386556 0.17249857 0)
(-0.090047954 0.1722276 0)
(-0.10912547 0.16543507 0)
(-0.12779386 0.15237828 0)
(-0.14626758 0.13226439 0)
(-0.16460607 0.10373716 0)
(-0.18253798 0.065366379 0)
(-0.19925705 0.016171235 0)
(-0.21315214 -0.043733115 0)
(-0.22158183 -0.1121623 0)
(-0.22068641 -0.18370915 0)
(-0.20561487 -0.24803837 0)
(-0.17171971 -0.28845092 0)
(-0.11742167 -0.28268712 0)
(-0.051962133 -0.21103023 0)
(-0.0090331963 -0.077428543 0)
(-0.0025184952 0.052273225 0)
(-0.013308386 0.12201222 0)
(-0.031164684 0.16300138 0)
(-0.049817531 0.18365895 0)
(-0.06721271 0.19108159 0)
(-0.082991726 0.18989554 0)
(-0.097402319 0.18237881 0)
(-0.11100056 0.16898028 0)
(-0.12444346 0.14889461 0)
(-0.13832877 0.12057994 0)
(-0.15305029 0.082230153 0)
(-0.16859585 0.032236089 0)
(-0.18419058 -0.030250134 0)
(-0.19795216 -0.10445735 0)
(-0.20631336 -0.18658959 0)
(-0.20362054 -0.26750034 0)
(-0.18246292 -0.32945508 0)
(-0.13601696 -0.34358965 0)
(-0.067995442 -0.27480638 0)
(-0.014214182 -0.10965752 0)
(-0.0033721831 0.060059918 0)
(-0.015592374 0.13770599 0)
(-0.033621753 0.18066626 0)
(-0.050082783 0.20021907 0)
(-0.063138164 0.2055073 0)
(-0.072977712 0.20226286 0)
(-0.080365236 0.19328796 0)
(-0.086322429 0.1792533 0)
(-0.091980148 0.15941807 0)
(-0.098480169 0.13217013 0)
(-0.10689264 0.095487705 0)
(-0.11807502 0.047301392 0)
(-0.13233972 -0.014106864 0)
(-0.14906201 -0.08955918 0)
(-0.16580684 -0.17749585 0)
(-0.17734382 -0.27159748 0)
(-0.1745904 -0.35586862 0)
(-0.14528383 -0.39772689 0)
(-0.084622432 -0.34498844 0)
(-0.021680158 -0.15284585 0)
(-0.0054374378 0.070103525 0)
(-0.02072846 0.15492122 0)
(-0.039181889 0.19710294 0)
(-0.052201798 0.21278555 0)
(-0.058791958 0.21379859 0)
(-0.060209709 0.20701218 0)
(-0.057999037 0.19565128 0)
(-0.053738484 0.18053992 0)
(-0.049029947 0.16102371 0)
(-0.045484452 0.13549417 0)
(-0.044724779 0.10188857 0)
(-0.048368907 0.057914388 0)
(-0.057872061 0.0012811555 0)
(-0.0740364 -0.07007248 0)
(-0.096249658 -0.15703436 0)
(-0.12123192 -0.25733834 0)
(-0.14036027 -0.35997419 0)
(-0.13726682 -0.43406683 0)
(-0.097309561 -0.41315972 0)
(-0.03104475 -0.20800593 0)
(-0.0099924794 0.08528525 0)
(-0.031034562 0.17507752 0)
(-0.049332215 0.21156483 0)
(-0.0561422 0.2192912 0)
(-0.052769063 0.21334305 0)
(-0.042347565 0.20142708 0)
(-0.027509605 0.18684915 0)
(-0.010433022 0.17035315 0)
(0.0068779448 0.15124179 0)
(0.022500629 0.12798786 0)
(0.034492011 0.098597363 0)
(0.040725017 0.060803509 0)
(0.038925449 0.012162467 0)
(0.026975895 -0.049971913 0)
(0.0033674836 -0.1283813 0)
(-0.031666501 -0.22498077 0)
(-0.0728351 -0.33640898 0)
(-0.10260578 -0.4405166 0)
(-0.098174908 -0.4658731 0)
(-0.039817535 -0.27399887 0)
(-0.01902652 0.11104872 0)
(-0.048869979 0.19882926 0)
(-0.062274004 0.22124531 0)
(-0.055774184 0.21552556 0)
(-0.035902531 0.19987742 0)
(-0.0085213718 0.18178922 0)
(0.022606897 0.16387408 0)
(0.05487233 0.14633839 0)
(0.086219675 0.12822226 0)
(0.11475595 0.10804222 0)
(0.1385067 0.083960522 0)
(0.15521879 0.053950935 0)
(0.16218359 0.015810176 0)
(0.15643672 -0.03302309 0)
(0.13484028 -0.095945085 0)
(0.094469696 -0.17786673 0)
(0.03492011 -0.2836628 0)
(-0.030036655 -0.40578396 0)
(-0.076135521 -0.4857553 0)
(-0.041997012 -0.34639734 0)
(-0.033326253 0.15683915 0)
(-0.06970704 0.22016387 0)
(-0.058996244 0.21451367 0)
(-0.023351682 0.19029734 0)
(0.023320725 0.16459373 0)
(0.073384683 0.14192689 0)
(0.12324002 0.12277443 0)
(0.17084732 0.10624287 0)
(0.21486098 0.090962782 0)
(0.25401595 0.075446327 0)
(0.28679307 0.058151621 0)
(0.31124199 0.03750075 0)
(0.32469502 0.011814209 0)
(0.32400797 -0.020872278 0)
(0.30506647 -0.063183558 0)
(0.26275685 -0.12062709 0)
(0.19208103 -0.20368558 0)
(0.096057975 -0.32326185 0)
(-0.015493149 -0.45262509 0)
(-0.024544212 -0.40693527 0)
(-0.032711576 0.24019298 0)
(-0.041955163 0.21881079 0)
(0.042144576 0.16390366 0)
(0.12567863 0.12618627 0)
(0.20310625 0.098860823 0)
(0.27260092 0.078754635 0)
(0.33420237 0.06395086 0)
(0.38842704 0.052650085 0)
(0.43572061 0.043283896 0)
(0.47610742 0.034588525 0)
(0.5089984 0.02551217 0)
(0.53314121 0.015137704 0)
(0.54626559 0.0025841329 0)
(0.54601772 -0.012820846 0)
(0.52824074 -0.032892111 0)
(0.48724904 -0.061000712 0)
(0.41431638 -0.10620249 0)
(0.30153553 -0.19286994 0)
(0.12165974 -0.33671513 0)
(0.051895767 -0.39420628 0)
(0.24338028 0.15293472 0)
(0.30635359 0.11907746 0)
(0.45609538 0.076372513 0)
(0.56082051 0.050750394 0)
(0.63187711 0.034732154 0)
(0.68459311 0.024260565 0)
(0.72582054 0.017405852 0)
(0.75877265 0.012832561 0)
(0.78533327 0.0095606016 0)
(0.80649035 0.0069137878 0)
(0.82245309 0.0044196805 0)
(0.83282179 0.0017507377 0)
(0.8366818 -0.0013799114 0)
(0.83253303 -0.0048251648 0)
(0.81767421 -0.009369646 0)
(0.7891471 -0.015930941 0)
(0.7380332 -0.026824891 0)
(0.65339626 -0.051311306 0)
(0.45619138 -0.11383884 0)
(0.31788594 -0.17214776 0)
)
;

boundaryField
{
    movingWall
    {
        type            fixedValue;
        value           uniform (1 0 0);
    }
    fixedWalls
    {
        type            fixedValue;
        value           uniform (0 0 0);
    }
    frontAndBack
    {
        type            empty;
    }
}


// ************************************************************************* //
