/*--------------------------------*- C++ -*----------------------------------*\
| =========                 |                                                 |
| \\      /  F ield         | OpenFOAM: The Open Source CFD Toolbox           |
|  \\    /   O peration     | Version:  2112                                  |
|   \\  /    A nd           | Website:  www.openfoam.com                      |
|    \\/     M anipulation  |                                                 |
\*---------------------------------------------------------------------------*/
FoamFile
{
    version     2.0;
    format      ascii;
    arch        "LSB;label=32;scalar=64";
    class       volScalarField;
    location    "61.5";
    object      p;
}
// * * * * * * * * * * * * * * * * * * * * * * * * * * * * * * * * * * * * * //

dimensions      [0 2 -2 0 0 0 0];

internalField   nonuniform List<scalar> 
8800
(
0.901684
0.853898
0.81521
0.786217
0.765356
0.75053
0.739942
0.732473
0.72767
0.725636
0.72693
0.731142
0.737803
0.74713
0.759918
0.777658
0.802439
0.836382
0.878934
0.937636
0.732931
0.74061
0.748087
0.751397
0.749896
0.744822
0.738341
0.732274
0.727565
0.724742
0.724489
0.72702
0.731528
0.737488
0.744267
0.750553
0.754198
0.753464
0.748048
0.73936
0.71133
0.71749
0.721619
0.724565
0.726618
0.727227
0.726129
0.724036
0.722039
0.721157
0.722148
0.724553
0.72737
0.729563
0.730179
0.728986
0.726649
0.723259
0.718702
0.714941
0.705514
0.708165
0.710919
0.713324
0.714962
0.716129
0.716879
0.71701
0.716735
0.716713
0.717497
0.718693
0.719551
0.71963
0.71903
0.717946
0.716135
0.713568
0.711167
0.709664
0.700126
0.701551
0.703331
0.705365
0.707153
0.7085
0.709499
0.710311
0.710948
0.711545
0.712231
0.712756
0.712877
0.712605
0.711919
0.710678
0.708988
0.707144
0.705839
0.705008
0.69504
0.69596
0.697203
0.698771
0.700408
0.701939
0.703234
0.704318
0.705308
0.706238
0.706968
0.707329
0.707311
0.706889
0.706022
0.704831
0.703511
0.702256
0.701436
0.700884
0.690121
0.69079
0.691754
0.693058
0.694471
0.695936
0.697387
0.698728
0.699955
0.701104
0.701972
0.702378
0.702322
0.701835
0.701044
0.700107
0.699103
0.698186
0.697603
0.697197
0.685322
0.685839
0.686623
0.687756
0.689037
0.690418
0.691877
0.693369
0.694829
0.696213
0.697272
0.697788
0.697796
0.697435
0.696851
0.696139
0.695376
0.694699
0.694267
0.69395
0.680573
0.680983
0.68164
0.682649
0.683858
0.685193
0.686652
0.68823
0.689886
0.691537
0.692844
0.693553
0.693756
0.693616
0.693255
0.692754
0.692196
0.691712
0.691392
0.691133
0.675785
0.67612
0.676687
0.677617
0.678778
0.680099
0.681593
0.683271
0.685117
0.687058
0.688686
0.689691
0.690172
0.690285
0.690155
0.689879
0.689515
0.689191
0.688955
0.688738
0.670872
0.671149
0.671655
0.672539
0.673683
0.675028
0.676597
0.678415
0.680491
0.68277
0.684801
0.686188
0.687003
0.687406
0.687528
0.687477
0.687307
0.687124
0.686956
0.686768
0.665743
0.665976
0.666443
0.667311
0.668477
0.66989
0.671576
0.673588
0.67596
0.678657
0.681183
0.683028
0.684233
0.68497
0.685373
0.685556
0.685581
0.685527
0.685415
0.685248
0.660307
0.660505
0.660953
0.661834
0.663063
0.66459
0.666447
0.668721
0.671469
0.674691
0.677816
0.680207
0.681868
0.682984
0.683705
0.684135
0.684372
0.68444
0.684374
0.684221
0.654463
0.654632
0.655078
0.656002
0.657336
0.659026
0.661121
0.663738
0.666962
0.670834
0.674686
0.677727
0.679926
0.681479
0.68256
0.683291
0.683736
0.683921
0.683895
0.68375
0.648092
0.648238
0.648696
0.649693
0.651178
0.65309
0.655502
0.658555
0.66238
0.667049
0.67178
0.675599
0.678436
0.680503
0.681993
0.683048
0.683734
0.684042
0.684054
0.683913
0.641057
0.641178
0.641663
0.642764
0.644451
0.646657
0.649472
0.65308
0.657653
0.663298
0.669091
0.673839
0.677429
0.680104
0.682079
0.683511
0.684461
0.684894
0.68494
0.684799
0.633174
0.633273
0.633802
0.635044
0.636992
0.639569
0.642901
0.647206
0.652704
0.659541
0.666615
0.672471
0.676951
0.680338
0.682893
0.684763
0.686011
0.686577
0.686655
0.68651
0.624219
0.62432
0.624904
0.626302
0.628581
0.631643
0.635631
0.640811
0.647456
0.655748
0.66436
0.67153
0.67706
0.681285
0.684527
0.686909
0.688492
0.689199
0.689305
0.689154
0.613881
0.613962
0.614636
0.61626
0.618973
0.622654
0.62747
0.633751
0.641821
0.651888
0.66234
0.671058
0.677823
0.683034
0.687063
0.690048
0.692011
0.692865
0.692998
0.692835
0.601785
0.601852
0.602625
0.604561
0.607832
0.612309
0.618187
0.625862
0.635706
0.647935
0.660577
0.67111
0.679307
0.685668
0.690608
0.694296
0.696672
0.697675
0.697827
0.697649
0.58738
0.587436
0.588352
0.590703
0.594712
0.600237
0.607497
0.61696
0.629023
0.643881
0.65911
0.671748
0.681583
0.689262
0.695262
0.699734
0.70255
0.703695
0.703858
0.703663
0.569903
0.569947
0.571076
0.574011
0.579031
0.585973
0.595076
0.606865
0.621722
0.639759
0.658011
0.673049
0.684737
0.693898
0.701073
0.706419
0.709683
0.710949
0.71111
0.710895
0.548193
0.548236
0.549712
0.553528
0.560004
0.56894
0.58057
0.595431
0.61381
0.635666
0.657389
0.675104
0.688837
0.699637
0.708078
0.714361
0.718041
0.719386
0.719527
0.71929
0.520513
0.520576
0.52264
0.527877
0.536614
0.548483
0.563673
0.582614
0.60539
0.631753
0.657389
0.678016
0.693945
0.706493
0.716297
0.723488
0.727498
0.728856
0.728954
0.728697
0.483833
0.483996
0.487268
0.495124
0.507672
0.524015
0.544279
0.568579
0.596739
0.628297
0.658215
0.681915
0.700117
0.714464
0.725651
0.733634
0.737816
0.739091
0.739125
0.738851
0.432344
0.433324
0.439829
0.453064
0.472236
0.495503
0.522763
0.553833
0.588336
0.625663
0.660097
0.686921
0.707398
0.723474
0.735965
0.74451
0.748634
0.749723
0.749681
0.749398
0.357129
0.364403
0.379448
0.402753
0.431802
0.464341
0.500154
0.539025
0.580571
0.624156
0.663427
0.6936
0.716522
0.73449
0.748233
0.75715
0.761074
0.761961
0.761873
0.761626
0.276287
0.293499
0.317879
0.351904
0.391212
0.433157
0.477589
0.524446
0.573423
0.623949
0.668968
0.703307
0.729227
0.749473
0.764664
0.773671
0.777056
0.777667
0.777603
0.777446
0.208908
0.229181
0.261274
0.304408
0.352774
0.403576
0.456368
0.511068
0.56735
0.624626
0.67512
0.713349
0.742063
0.764225
0.780241
0.788989
0.791993
0.792537
0.792531
0.792421
0.153725
0.175654
0.21326
0.26283
0.318362
0.376638
0.436835
0.498736
0.561874
0.625581
0.681296
0.723188
0.754439
0.778271
0.795123
0.803954
0.806824
0.807413
0.807452
0.807365
0.107797
0.130902
0.172295
0.226978
0.288269
0.352715
0.419267
0.487572
0.557006
0.626751
0.687427
0.732804
0.766482
0.791973
0.809756
0.818925
0.822022
0.822503
0.822567
0.8225
0.068855
0.0926212
0.13688
0.195607
0.261741
0.331441
0.403527
0.477541
0.55272
0.628091
0.693472
0.742198
0.778248
0.805377
0.824171
0.83393
0.83717
0.837684
0.837747
0.837713
0.0348723
0.0590684
0.10559
0.167656
0.237884
0.312158
0.389149
0.468308
0.548773
0.629426
0.699292
0.751244
0.78958
0.818336
0.838089
0.848465
0.85199
0.852566
0.852643
0.852632
0.00434977
0.0289228
0.0772869
0.142205
0.215963
0.294244
0.375636
0.459499
0.544886
0.630541
0.704701
0.759753
0.800277
0.830548
0.851273
0.862202
0.866043
0.866743
0.866818
0.866816
-0.0236821
0.00122911
0.0511685
0.118546
0.195409
0.277245
0.3626
0.450781
0.540771
0.631194
0.709507
0.767557
0.810165
0.841848
0.863471
0.874912
0.879013
0.879844
0.879905
0.879899
-0.050028
-0.024732
0.0266508
0.0961544
0.17579
0.260798
0.349737
0.441889
0.536205
0.631211
0.713596
0.774575
0.819189
0.852204
0.874571
0.886401
0.890705
0.891603
0.891653
0.891632
-0.0750663
-0.0493783
0.00325049
0.0746888
0.15679
0.244645
0.336831
0.432647
0.531036
0.630474
0.716885
0.780789
0.82736
0.861588
0.884526
0.896661
0.901069
0.902003
0.902031
0.901987
-0.0992242
-0.0730408
-0.0193813
0.0539016
0.138197
0.228605
0.323744
0.422932
0.525148
0.628876
0.719319
0.786206
0.834734
0.870103
0.893553
0.905785
0.910208
0.911151
0.911143
0.911077
-0.122638
-0.0960182
-0.0412821
0.0336216
0.119877
0.212576
0.310384
0.412669
0.518469
0.626352
0.720862
0.790853
0.841426
0.877906
0.901719
0.913933
0.918312
0.919209
0.919183
0.919096
-0.145442
-0.118342
-0.0625804
0.0137536
0.101767
0.196509
0.296714
0.401819
0.51096
0.622844
0.72147
0.794755
0.847535
0.885172
0.909248
0.921303
0.925515
0.926331
0.926275
0.926169
-0.167774
-0.140131
-0.0833808
-0.00574002
0.0838293
0.180394
0.282741
0.390393
0.502609
0.618311
0.721091
0.797913
0.853182
0.892079
0.9163
0.928016
0.931937
0.932624
0.932524
0.932397
-0.189667
-0.161387
-0.103726
-0.0248673
0.0660878
0.16425
0.268498
0.378422
0.493433
0.612723
0.719665
0.800297
0.858436
0.898811
0.923103
0.934235
0.937667
0.938154
0.938011
0.937876
-0.210967
-0.182085
-0.123551
-0.0436095
0.0485669
0.148135
0.254038
0.36597
0.483482
0.606095
0.717117
0.801837
0.863303
0.905561
0.929968
0.940214
0.942842
0.943006
0.942817
0.942687
-0.231661
-0.202204
-0.142851
-0.0619249
0.0313169
0.132102
0.239445
0.353109
0.472826
0.598444
0.713392
0.802414
0.86772
0.912455
0.937322
0.946479
0.947785
0.947282
0.947008
0.946937
-0.251817
-0.221713
-0.161604
-0.0797912
0.0143959
0.116228
0.224799
0.339936
0.461549
0.589826
0.708435
0.801877
0.871511
0.919448
0.945566
0.953931
0.953378
0.951391
0.950756
0.95098
-0.271269
-0.240593
-0.179757
-0.0971515
-0.00214175
0.100592
0.210192
0.326558
0.449762
0.580327
0.702227
0.800042
0.874404
0.926219
0.954738
0.963606
0.961596
0.957207
0.954759
0.954474
-0.290113
-0.258836
-0.197332
-0.114037
-0.0183296
0.0851525
0.195569
0.312919
0.437401
0.569877
0.694635
0.796633
0.8761
0.932279
0.964242
0.975852
0.974891
0.968102
0.960335
0.946439
-0.308276
-0.276429
-0.214443
-0.130649
-0.0344469
0.0695849
0.180525
0.298553
0.423947
0.557862
0.685038
0.790901
0.876082
0.936971
0.97246
0.988639
0.989286
0.976415
0.95633
0.945113
-0.325588
-0.293512
-0.230901
-0.146792
-0.0501419
0.0542272
0.165283
0.283775
0.409695
0.544524
0.673479
0.782336
0.873472
0.939113
0.975268
0.99131
0.994347
0.970483
0.902909
0.872643
-0.341386
-0.311342
-0.246386
-0.161989
-0.0646213
0.0395773
0.150156
0.268814
0.394861
0.529981
0.65987
0.770601
0.866777
0.937975
0.967543
0.978424
0.966008
0.910957
0.84176
0.79923
-0.396525
-0.32707
-0.260409
-0.177372
-0.0795195
0.0241662
0.135076
0.253382
0.379067
0.513764
0.64358
0.754994
0.85201
0.929771
0.93305
0.934235
0.882528
0.810938
0.733795
0.690882
-0.358117
-0.342159
-0.281349
-0.197239
-0.101581
0.00205878
0.111939
0.229593
0.354288
0.487578
0.615512
0.725409
0.814859
0.897778
0.882569
0.766714
0.65988
0.585587
0.511553
0.541446
-0.388744
-0.359573
-0.297871
-0.214593
-0.118958
-0.0154342
0.0947097
0.211722
0.335341
0.46682
0.591964
0.697647
0.777439
0.821602
0.771544
0.620245
0.490824
0.398387
0.299071
0.348561
-0.412337
-0.380237
-0.317349
-0.233934
-0.138178
-0.0347589
0.0752963
0.191469
0.313679
0.442739
0.564127
0.663567
0.73441
0.74382
0.635359
0.460781
0.306739
0.186951
0.0552415
0.0877833
-0.435408
-0.401792
-0.337737
-0.253403
-0.157572
-0.0543089
0.0552164
0.170418
0.29102
0.417274
0.533923
0.625521
0.680893
0.658514
0.498174
0.300472
0.109143
-0.0595194
-0.248445
-0.267167
-0.457888
-0.423829
-0.358891
-0.273782
-0.177817
-0.0747816
0.0340872
0.148192
0.266925
0.389966
0.501156
0.584774
0.620412
0.561486
0.367601
0.155918
-0.0621619
-0.252023
-0.494345
-0.791546
-0.480664
-0.446601
-0.381129
-0.295538
-0.199393
-0.0965307
0.0117519
0.124723
0.241475
0.361033
0.466462
0.541414
0.555807
0.445651
0.253975
0.0429772
-0.162148
-0.335099
-0.404978
-0.484011
-0.50469
-0.470563
-0.404797
-0.318983
-0.22279
-0.120195
-0.0125919
0.0990725
0.213523
0.329067
0.428304
0.492036
0.481297
0.33748
0.152995
-0.0389747
-0.202734
-0.296286
-0.320558
-0.336429
-0.530269
-0.496016
-0.430062
-0.34419
-0.248138
-0.145984
-0.0393004
0.0707549
0.182485
0.293364
0.385881
0.435348
0.406826
0.237051
0.0615376
-0.105352
-0.232755
-0.272173
-0.28505
-0.286359
-0.557602
-0.523135
-0.456991
-0.371156
-0.275387
-0.173902
-0.0683916
0.0397224
0.1483
0.253933
0.338835
0.373726
0.325557
0.14435
-0.0220391
-0.171452
-0.24841
-0.26554
-0.266824
-0.266614
-0.586751
-0.551985
-0.485609
-0.399881
-0.304553
-0.203937
-0.0998682
0.00596254
0.110983
0.210854
0.287249
0.310447
0.225939
0.0596678
-0.0981945
-0.221374
-0.258401
-0.256797
-0.255874
-0.255253
-0.617431
-0.582384
-0.515813
-0.430277
-0.335551
-0.236036
-0.133699
-0.0304963
0.0705774
0.164245
0.231994
0.23808
0.135214
-0.0189497
-0.158436
-0.234719
-0.245277
-0.248079
-0.248821
-0.248547
-0.649093
-0.613891
-0.547349
-0.462119
-0.368195
-0.270042
-0.169732
-0.0695206
0.027271
0.114473
0.173581
0.164458
0.0535209
-0.0855864
-0.202073
-0.233935
-0.242552
-0.244156
-0.244026
-0.243773
-0.681271
-0.645957
-0.579769
-0.495012
-0.402145
-0.305639
-0.207691
-0.110822
-0.0186526
0.0622472
0.111074
0.0947364
-0.0222743
-0.140135
-0.232001
-0.248546
-0.241047
-0.240481
-0.240585
-0.240404
-0.713072
-0.677855
-0.612199
-0.528368
-0.43686
-0.342358
-0.247133
-0.153925
-0.0667288
0.00822917
0.0473569
0.0312093
-0.0894016
-0.183918
-0.233522
-0.244623
-0.241856
-0.240124
-0.23937
-0.239094
-0.742931
-0.708414
-0.643673
-0.561267
-0.471581
-0.379507
-0.287415
-0.198162
-0.11615
-0.046989
-0.0112201
-0.0382646
-0.144331
-0.23046
-0.22879
-0.242893
-0.243845
-0.24028
-0.238738
-0.238072
-0.769247
-0.735814
-0.673064
-0.592528
-0.505278
-0.416168
-0.327686
-0.242706
-0.165805
-0.102549
-0.0664906
-0.103114
-0.187655
-0.267223
-0.286219
-0.264906
-0.250387
-0.243819
-0.241338
-0.240202
-0.789895
-0.758192
-0.698321
-0.620739
-0.536675
-0.451208
-0.366884
-0.286565
-0.214616
-0.157061
-0.122677
-0.151742
-0.207991
-0.298121
-0.34198
-0.289442
-0.261805
-0.254679
-0.251667
-0.249917
-0.802641
-0.773649
-0.717531
-0.644027
-0.564278
-0.483315
-0.403827
-0.328577
-0.261615
-0.209109
-0.175631
-0.187135
-0.185526
-0.222182
-0.229849
-0.251862
-0.267071
-0.270732
-0.269373
-0.269338
-0.804838
-0.779915
-0.72874
-0.660573
-0.586391
-0.511087
-0.437203
-0.36754
-0.305815
-0.25795
-0.218831
-0.220072
-0.154735
-0.0627267
-0.126785
-0.215349
-0.257086
-0.26959
-0.274643
-0.27683
-0.794279
-0.774223
-0.729756
-0.668758
-0.601517
-0.533008
-0.465644
-0.402173
-0.346353
-0.302998
-0.258639
-0.273581
-0.240197
-0.115271
-0.19827
-0.275756
-0.304524
-0.314408
-0.318504
-0.320466
-0.768967
-0.753893
-0.718752
-0.667312
-0.60861
-0.547999
-0.487901
-0.430991
-0.381634
-0.344613
-0.308057
-0.381955
-0.543665
-0.748043
-0.713358
-0.552895
-0.450699
-0.409635
-0.397351
-0.395008
-0.731397
-0.721693
-0.696492
-0.656341
-0.60756
-0.555668
-0.503062
-0.452629
-0.409022
-0.380268
-0.365734
-0.45499
-0.65011
-0.939582
-0.898359
-0.58487
-0.412031
-0.355554
-0.338886
-0.332594
-0.688209
-0.682732
-0.667747
-0.638552
-0.600183
-0.556607
-0.510945
-0.46598
-0.426099
-0.398605
-0.382551
-0.335259
-0.152653
0.0603443
0.152347
0.0762465
-0.048487
-0.11831
-0.131678
-0.128538
-0.649057
-0.645774
-0.638588
-0.619234
-0.589331
-0.552594
-0.512579
-0.470698
-0.431221
-0.399136
-0.381971
-0.263561
-0.0416017
0.246024
0.322688
0.0783936
-0.0792746
-0.132263
-0.138591
-0.153772
-0.620452
-0.618413
-0.614715
-0.602743
-0.579115
-0.546985
-0.509844
-0.468933
-0.426165
-0.390481
-0.375238
-0.359459
-0.412106
-0.704323
-1.08264
-1.37824
-1.47625
-1.37387
-1.2344
-1.15204
-0.598353
-0.597543
-0.596296
-0.590356
-0.572215
-0.542716
-0.505515
-0.462166
-0.415505
-0.367319
-0.335591
-0.363787
-0.58011
-0.938956
-1.36011
-1.54354
-1.4832
-1.25656
-1.06109
-0.961789
-0.585585
-0.585279
-0.584687
-0.582003
-0.568793
-0.540245
-0.500604
-0.453482
-0.398626
-0.331878
-0.274619
-0.208232
-0.226648
-0.274545
-0.320281
-0.2672
-0.0465295
0.192496
0.347625
0.407369
-0.577029
-0.576798
-0.57612
-0.575166
-0.567268
-0.540202
-0.497676
-0.444791
-0.379678
-0.3032
-0.207994
-0.0800933
0.0875191
0.350983
0.679803
1.03004
1.36113
1.58886
1.70212
1.7352
-0.572834
-0.572482
-0.571598
-0.571081
-0.567447
-0.543669
-0.497656
-0.437989
-0.365814
-0.273665
-0.155971
-0.038071
0.202885
0.596034
1.07276
1.51663
1.85781
2.05724
2.14044
2.16034
-0.572566
-0.57296
-0.574213
-0.575977
-0.575289
-0.550949
-0.501049
-0.436566
-0.357134
-0.255626
-0.137722
-0.0113199
0.17974
0.581085
1.02196
1.41784
1.7046
1.86001
1.9208
1.93406
-0.568981
-0.570214
-0.573415
-0.577838
-0.57789
-0.554269
-0.506816
-0.44172
-0.357149
-0.252891
-0.13759
-0.0201933
0.119587
0.444782
0.795883
1.0992
1.31362
1.42555
1.46699
1.47518
-0.5755
-0.574582
-0.56544
-0.547134
-0.533477
-0.536715
-0.51524
-0.453332
-0.364519
-0.258273
-0.149621
-0.0429859
0.0615278
0.292538
0.548268
0.757398
0.904108
0.97683
1.00297
1.00717
-0.620155
-0.615128
-0.596605
-0.56434
-0.548236
-0.560606
-0.548004
-0.475672
-0.377227
-0.267429
-0.165065
-0.0731874
0.0110518
0.168022
0.33126
0.460699
0.548921
0.590431
0.605241
0.608184
-0.718812
-0.724003
-0.74334
-0.770835
-0.764811
-0.735508
-0.63902
-0.512565
-0.38864
-0.274865
-0.182816
-0.107293
-0.0413962
0.0659441
0.168667
0.237579
0.27621
0.293918
0.302436
0.305219
-0.85033
-0.873513
-0.919341
-0.952973
-0.94592
-0.885978
-0.717291
-0.539398
-0.392166
-0.277041
-0.195526
-0.138646
-0.0923103
-0.0163723
0.0487718
0.0909062
0.108015
0.116379
0.124264
0.127387
-0.861354
-0.882099
-0.918956
-0.94712
-0.93968
-0.866401
-0.690943
-0.512875
-0.369312
-0.263388
-0.197379
-0.160237
-0.133213
-0.0670738
-0.0113782
0.02058
0.039796
0.0504908
0.0563874
0.0582978
-0.66175
-0.683844
-0.720466
-0.754199
-0.754373
-0.681158
-0.545815
-0.416713
-0.309917
-0.229626
-0.181936
-0.164479
-0.148265
-0.0899311
-0.0389152
-0.00229745
0.0202121
0.033003
0.0380544
0.0388056
-0.321161
-0.334931
-0.361096
-0.391368
-0.40659
-0.386639
-0.338303
-0.279769
-0.225696
-0.178484
-0.149055
-0.141078
-0.129369
-0.0778916
-0.0342873
-0.00263308
0.0211455
0.0339196
0.0383663
0.0378414
-0.0152864
-0.0219753
-0.0388661
-0.0670261
-0.101291
-0.127916
-0.14336
-0.146096
-0.136744
-0.1188
-0.101946
-0.090719
-0.073315
-0.0385781
-0.00967372
0.011121
0.0258106
0.0343638
0.0375355
0.0371052
0.157919
0.154632
0.142922
0.117248
0.0767165
0.0281249
-0.0141946
-0.0446564
-0.0600032
-0.0605939
-0.0498345
-0.0308848
-0.00703894
0.00743767
0.0178206
0.0271367
0.035405
0.040512
0.0416714
0.0407118
0.215795
0.21384
0.205346
0.184532
0.148922
0.10386
0.0589141
0.0211926
-0.00354093
-0.0121024
-0.00263147
0.0175051
0.0394026
0.0422419
0.0411271
0.0427261
0.0461278
0.0489217
0.049259
0.0480318
0.213382
0.21208
0.206217
0.191409
0.165432
0.131118
0.0937684
0.0596237
0.034364
0.0232086
0.0300382
0.0477645
0.0627084
0.0592914
0.0542973
0.0533417
0.0539245
0.0538366
0.0526008
0.0510854
0.188431
0.187631
0.183857
0.174114
0.15656
0.132411
0.104431
0.0773423
0.0557974
0.0451569
0.0495833
0.0613135
0.0679144
0.0605356
0.0544338
0.0500513
0.0478391
0.0445833
0.0424641
0.041488
0.157858
0.157455
0.155147
0.148998
0.137582
0.121263
0.101414
0.08119
0.064405
0.0558624
0.0595354
0.0680543
0.0696582
0.0598324
0.0515022
0.0446648
0.038484
0.033269
0.0306095
0.0301128
0.127906
0.127671
0.126342
0.12256
0.115293
0.104517
0.0908762
0.0763224
0.0637108
0.0570919
0.0612898
0.0705848
0.0733327
0.0608171
0.0495401
0.0411218
0.0337205
0.0278347
0.0257365
0.0254147
0.100476
0.10036
0.0995641
0.0972722
0.0926987
0.0856325
0.0762826
0.0657943
0.0560824
0.0501801
0.0534346
0.0654433
0.0724779
0.0567294
0.0428927
0.035261
0.0299047
0.0270469
0.0260993
0.0256913
0.0758555
0.0758304
0.075372
0.074018
0.071205
0.0665968
0.0601546
0.0523568
0.0439909
0.0362243
0.0329185
0.0373701
0.041082
0.0293188
0.0230847
0.0224008
0.0225983
0.0231555
0.0229196
0.0222792
0.0540317
0.0540315
0.0537765
0.0530453
0.0513656
0.0484309
0.0439614
0.0378329
0.0300013
0.0186092
0.00192824
-0.0174199
-0.025152
-0.0212277
-0.0106426
-0.000174488
0.00634081
0.0089631
0.0092587
0.00866551
0.034845
0.0348517
0.0347388
0.0343777
0.0334957
0.0317735
0.0289633
0.0245537
0.0168802
0.00296088
-0.0263995
-0.0739075
-0.0956281
-0.0683543
-0.0408381
-0.0225336
-0.0139206
-0.011213
-0.0105891
-0.0107794
0.018061
0.018076
0.0180577
0.0179567
0.0175981
0.0167624
0.0151502
0.0124106
0.00777723
-0.00364699
-0.032634
-0.0863168
-0.104778
-0.0743819
-0.0428723
-0.0286612
-0.0243713
-0.0236687
-0.0227393
-0.0223105
0.00325307
0.00328797
0.00326234
0.00331454
0.00350749
0.00360954
0.00348145
0.00304976
0.00216351
0.000550892
-0.00402942
-0.0176704
-0.0330884
-0.0244512
-0.0192831
-0.0168689
-0.0152762
-0.0133876
-0.0106658
-0.00905318
-0.0208327
0.145721
0.340015
0.509538
0.644777
0.751016
0.83872
0.913424
0.947561
0.924306
0.280634
0.401004
0.530445
0.642207
0.736284
0.81403
0.876967
0.92168
0.944064
0.956201
0.498609
0.581124
0.669569
0.747604
0.814674
0.870778
0.91541
0.948042
0.971666
0.989689
0.658823
0.717896
0.779212
0.836094
0.885529
0.927523
0.962035
0.98959
1.01232
1.03065
0.783838
0.826782
0.872595
0.916241
0.954813
0.988514
1.01738
1.04142
1.06176
1.07961
0.887891
0.920669
0.958682
0.994127
1.02668
1.05587
1.08138
1.10284
1.12067
1.13802
0.980273
1.00891
1.04281
1.07489
1.10479
1.13193
1.15565
1.17535
1.19084
1.20792
1.06876
1.09793
1.1319
1.16391
1.19348
1.22005
1.2429
1.26137
1.27473
1.29177
1.16402
1.1972
1.23382
1.26738
1.29741
1.32358
1.34552
1.36279
1.37465
1.39205
1.27898
1.31679
1.35542
1.38965
1.41899
1.44373
1.46409
1.47998
1.49144
1.50951
1.4239
1.46243
1.49856
1.52924
1.55491
1.577
1.59605
1.61158
1.624
1.642
1.59896
1.63058
1.65675
1.67919
1.69916
1.71788
1.7356
1.75207
1.76742
1.78549
1.78756
1.80476
1.8198
1.83602
1.85193
1.86646
1.87966
1.89359
1.91113
1.93128
1.96928
1.97881
1.99035
2.00116
2.01045
2.02003
2.03081
2.04217
2.05354
2.06889
2.17651
2.18017
2.16523
2.15042
2.14414
2.14981
2.16829
2.1986
2.23078
2.25743
2.48283
2.34797
2.27133
2.22894
2.21152
2.21548
2.24288
2.2993
2.40191
2.62628
0.792282
0.790154
0.785671
0.777048
0.764825
0.752699
0.742475
0.734586
0.728979
0.725739
0.725402
0.728157
0.733273
0.740505
0.749899
0.761442
0.774095
0.785131
0.791244
0.794299
0.716731
0.722578
0.728912
0.733406
0.735878
0.735557
0.732824
0.729021
0.725522
0.723277
0.723148
0.725362
0.729038
0.733336
0.737149
0.739036
0.738103
0.734623
0.729461
0.722841
0.708298
0.710595
0.713999
0.716997
0.719074
0.720573
0.721334
0.721025
0.720011
0.719144
0.719339
0.720784
0.722612
0.723927
0.724114
0.723228
0.721682
0.719348
0.716087
0.713167
0.702776
0.703863
0.705696
0.708076
0.710102
0.711533
0.712559
0.71332
0.713734
0.713974
0.714487
0.715314
0.715926
0.716003
0.715598
0.714754
0.713288
0.711207
0.709123
0.70774
0.697559
0.698221
0.69933
0.701036
0.702821
0.704456
0.705758
0.706783
0.707681
0.708491
0.709245
0.709819
0.710028
0.709873
0.709314
0.708265
0.706842
0.705302
0.703986
0.703206
0.692564
0.693025
0.693811
0.695111
0.696601
0.698122
0.699593
0.700902
0.702054
0.703133
0.704076
0.704669
0.704833
0.704572
0.703884
0.702902
0.701782
0.700653
0.699741
0.699224
0.687713
0.688057
0.688668
0.689738
0.691035
0.692413
0.693859
0.695317
0.696707
0.698014
0.699156
0.699876
0.700075
0.699816
0.699228
0.69846
0.697616
0.696755
0.696085
0.695708
0.682949
0.683217
0.68371
0.684621
0.685793
0.687094
0.688497
0.689998
0.691558
0.693107
0.694492
0.695395
0.695722
0.695621
0.695242
0.694693
0.694053
0.69342
0.692932
0.692644
0.678192
0.678404
0.678815
0.679615
0.680707
0.681961
0.683354
0.684903
0.686597
0.688385
0.690059
0.691227
0.691796
0.691937
0.691789
0.691462
0.691029
0.690589
0.690241
0.690015
0.673353
0.673524
0.673875
0.674602
0.675649
0.676881
0.678303
0.679937
0.681789
0.683834
0.685854
0.687381
0.688274
0.688704
0.688809
0.688713
0.688494
0.688226
0.687994
0.687815
0.668343
0.668481
0.668791
0.669473
0.670503
0.67176
0.673249
0.67501
0.677074
0.679432
0.681875
0.683849
0.685132
0.685897
0.68629
0.686439
0.686431
0.686332
0.686199
0.686055
0.663073
0.663184
0.663466
0.664129
0.665177
0.666504
0.668105
0.670047
0.672389
0.675144
0.678107
0.680619
0.682362
0.683514
0.684234
0.68465
0.68486
0.684932
0.684885
0.684768
0.657446
0.657534
0.657801
0.658469
0.659571
0.66101
0.662776
0.664968
0.667667
0.670923
0.674526
0.677682
0.679971
0.681571
0.682658
0.683389
0.683844
0.684074
0.684103
0.684007
0.651354
0.651422
0.651681
0.652377
0.653572
0.65517
0.657166
0.659686
0.662841
0.666723
0.671106
0.675038
0.677973
0.680102
0.681611
0.682691
0.683415
0.683818
0.683921
0.683842
0.644668
0.644716
0.644977
0.645723
0.647051
0.648864
0.651163
0.654103
0.657835
0.662491
0.667823
0.672689
0.676393
0.679144
0.681149
0.68262
0.683658
0.684247
0.684421
0.684356
0.637233
0.637263
0.637529
0.638349
0.639854
0.641946
0.644634
0.648108
0.652563
0.658169
0.664654
0.67064
0.675258
0.678742
0.681336
0.683276
0.684665
0.685455
0.6857
0.685645
0.628852
0.628868
0.629138
0.630053
0.631795
0.634232
0.637421
0.641571
0.646926
0.653703
0.661586
0.668909
0.674609
0.678957
0.682245
0.684745
0.686535
0.687546
0.687862
0.687814
0.619219
0.619205
0.619535
0.620594
0.622617
0.625511
0.629336
0.634338
0.640817
0.649036
0.658609
0.667523
0.6745
0.679865
0.683965
0.687121
0.689374
0.690626
0.691015
0.690972
0.608042
0.608004
0.608378
0.609631
0.612027
0.615509
0.620144
0.626226
0.634115
0.644109
0.655721
0.666519
0.674988
0.681542
0.686599
0.690505
0.693292
0.694804
0.695262
0.695219
0.594839
0.594773
0.595227
0.596733
0.599614
0.603865
0.609548
0.617017
0.626683
0.638865
0.652923
0.665935
0.676135
0.684061
0.69023
0.695004
0.698386
0.700166
0.700687
0.700638
0.578959
0.578865
0.579444
0.581302
0.584835
0.590111
0.597187
0.606466
0.618399
0.633284
0.650259
0.665842
0.678018
0.6875
0.694939
0.700688
0.704718
0.706766
0.707335
0.707274
0.559464
0.559343
0.560124
0.562498
0.566948
0.57365
0.582627
0.594318
0.609167
0.627385
0.647808
0.666325
0.680721
0.691939
0.700766
0.707607
0.712311
0.714599
0.71519
0.71511
0.534935
0.534797
0.535912
0.539086
0.544925
0.553715
0.565388
0.580362
0.598978
0.621271
0.645703
0.667501
0.684321
0.697431
0.707748
0.715765
0.721108
0.723573
0.724152
0.724044
0.503063
0.502946
0.504673
0.509233
0.517374
0.529414
0.545039
0.564518
0.587949
0.61514
0.644134
0.66951
0.688903
0.704005
0.715901
0.725075
0.73095
0.733486
0.734005
0.733863
0.459693
0.45974
0.462811
0.470256
0.482665
0.500003
0.521482
0.54703
0.576463
0.609364
0.643391
0.672532
0.694562
0.711676
0.725124
0.735378
0.741555
0.743993
0.744403
0.744227
0.397051
0.398255
0.405761
0.419642
0.439849
0.465614
0.495331
0.528609
0.565142
0.604413
0.643754
0.676713
0.701335
0.720385
0.735252
0.746281
0.752473
0.754576
0.754818
0.75462
0.322786
0.324549
0.338913
0.362743
0.393874
0.429593
0.468301
0.509816
0.553952
0.600226
0.645705
0.683363
0.71131
0.732784
0.749332
0.761108
0.767126
0.768959
0.769163
0.769059
0.246168
0.252355
0.273564
0.307634
0.349167
0.394542
0.442196
0.491996
0.543822
0.597223
0.649019
0.691517
0.722873
0.746864
0.765276
0.777521
0.78296
0.78432
0.784453
0.784419
0.183489
0.191982
0.217754
0.258836
0.30852
0.362135
0.417863
0.475426
0.534598
0.594858
0.652704
0.699773
0.734291
0.760498
0.780119
0.792615
0.797931
0.79913
0.799273
0.799295
0.13251
0.141599
0.170919
0.217237
0.273075
0.333337
0.395894
0.460308
0.526179
0.592864
0.656462
0.707874
0.745356
0.773627
0.794585
0.807567
0.812691
0.814054
0.814292
0.814354
0.0898546
0.0992239
0.13099
0.181304
0.242194
0.307969
0.376318
0.446732
0.518649
0.591279
0.660292
0.715847
0.756178
0.786479
0.808755
0.822303
0.827814
0.829378
0.829642
0.829724
0.0531589
0.0626369
0.0962389
0.149754
0.214822
0.285304
0.358709
0.434443
0.51183
0.589952
0.664075
0.723593
0.766683
0.79896
0.82255
0.836964
0.842909
0.844654
0.844939
0.845017
0.0207491
0.0302605
0.0652706
0.121489
0.190058
0.264598
0.342474
0.422993
0.505403
0.588661
0.66764
0.730959
0.776706
0.810872
0.835745
0.850967
0.857414
0.859329
0.859629
0.859698
-0.00866059
0.000887418
0.0370527
0.0956036
0.167172
0.245266
0.327121
0.411991
0.499046
0.587143
0.670764
0.737747
0.78604
0.821985
0.848076
0.86404
0.871005
0.873041
0.873351
0.873396
-0.0359515
-0.0263599
0.0108143
0.0713834
0.145623
0.226865
0.312281
0.40111
0.492474
0.585156
0.673271
0.743824
0.794576
0.832213
0.859387
0.875973
0.883367
0.885515
0.885816
0.885824
-0.0616912
-0.0520414
-0.0139203
0.0483525
0.125001
0.209049
0.297672
0.390114
0.485488
0.582538
0.675038
0.749122
0.802277
0.841525
0.869663
0.886727
0.89436
0.896611
0.896912
0.896897
-0.0863779
-0.0765787
-0.0376017
0.0262282
0.105025
0.191579
0.283098
0.378844
0.477954
0.579165
0.675968
0.753606
0.809174
0.849956
0.878953
0.896377
0.904111
0.906371
0.906664
0.906623
-0.110269
-0.100256
-0.0605388
0.00480792
0.0855122
0.174301
0.268435
0.367196
0.469769
0.574948
0.675999
0.757258
0.815317
0.857639
0.887384
0.905009
0.912729
0.914953
0.915226
0.915165
-0.133473
-0.123258
-0.0827783
-0.0160559
0.0663449
0.157139
0.253614
0.355111
0.460881
0.569819
0.67507
0.760076
0.820771
0.864705
0.895128
0.912829
0.920433
0.92256
0.922785
0.922695
-0.156166
-0.145657
-0.104434
-0.0364462
0.047468
0.140047
0.238612
0.342575
0.451277
0.563752
0.673126
0.762035
0.825602
0.871313
0.902392
0.920002
0.927352
0.929316
0.929478
0.929368
-0.178305
-0.167529
-0.12559
-0.0564119
0.0288696
0.123029
0.223453
0.329614
0.440967
0.556726
0.67012
0.763088
0.829856
0.877605
0.909354
0.926697
0.933598
0.935305
0.935373
0.935239
-0.199957
-0.188883
-0.146181
-0.0759409
0.010563
0.106113
0.208171
0.31628
0.429998
0.548757
0.666008
0.763165
0.833519
0.883698
0.91627
0.933155
0.939294
0.940579
0.940534
0.940387
-0.220959
-0.209657
-0.166207
-0.0949953
-0.00741141
0.0893626
0.192825
0.302635
0.418436
0.539896
0.660761
0.762179
0.836516
0.889654
0.923426
0.939777
0.944756
0.945285
0.945038
0.944892
-0.241453
-0.229813
-0.185659
-0.113564
-0.0250258
0.0728135
0.177504
0.288758
0.406363
0.530213
0.65438
0.760023
0.838703
0.895411
0.93106
0.947169
0.950648
0.949756
0.948974
0.948832
-0.261276
-0.249329
-0.204511
-0.131605
-0.0422055
0.0565472
0.162285
0.274766
0.393884
0.51977
0.646899
0.756587
0.839876
0.900751
0.939158
0.955995
0.958304
0.955219
0.95282
0.951966
-0.280494
-0.268249
-0.222712
-0.14907
-0.0589172
0.0406305
0.14725
0.260734
0.381109
0.508699
0.638379
0.751761
0.839789
0.905287
0.947224
0.966376
0.969274
0.964667
0.958212
0.94999
-0.299022
-0.286533
-0.240355
-0.166113
-0.0753667
0.0247965
0.132073
0.246276
0.367603
0.496516
0.62831
0.745014
0.837976
0.908707
0.954642
0.977686
0.98396
0.979397
0.968805
0.963789
-0.316816
-0.304103
-0.257425
-0.182711
-0.0915627
0.00905116
0.116764
0.231372
0.353318
0.483098