/*--------------------------------*- C++ -*----------------------------------*\
| =========                 |                                                 |
| \\      /  F ield         | OpenFOAM: The Open Source CFD Toolbox           |
|  \\    /   O peration     | Version:  2112                                  |
|   \\  /    A nd           | Website:  www.openfoam.com                      |
|    \\/     M anipulation  |                                                 |
\*---------------------------------------------------------------------------*/
FoamFile
{
    version     2.0;
    format      ascii;
    arch        "LSB;label=32;scalar=64";
    class       surfaceScalarField;
    location    "61.5";
    object      phi;
}
// * * * * * * * * * * * * * * * * * * * * * * * * * * * * * * * * * * * * * //

dimensions      [0 3 -1 0 0 0 0];

oriented        oriented;

internalField   nonuniform List<scalar> 
17370
(
-0.0916064
0.0960093
0.284608
-0.0775945
0.0594199
0.36495
-0.0430422
0.0316226
0.427588
-0.022319
0.0162667
0.505304
-0.011674
0.00880075
0.602275
-0.00659023
0.00510581
0.720542
-0.00386927
0.00298906
0.863787
-0.00221594
0.00163736
1.03603
-0.00110525
0.000683656
1.24292
-0.000271869
-0.000122515
1.49159
0.000511358
-0.000925702
1.49161
0.00133062
-0.00183555
1.2432
0.00238588
-0.00312825
1.03638
0.0039846
-0.00520232
0.864124
0.00667564
-0.00887682
0.721259
0.01174
-0.0163178
0.603792
0.0223545
-0.0316411
0.508726
0.0430423
-0.0594089
0.432535
0.0775877
-0.0960031
0.365191
0.0916211
0.19739
-0.127092
0.0880235
0.0390681
-0.364356
0.354031
-0.0714745
0.0818
-0.446654
0.454255
-0.079169
0.0715675
-0.521011
0.529111
-0.063714
0.0556146
-0.612992
0.620761
-0.0482273
0.0404578
-0.727165
0.733686
-0.0338462
0.0273257
-0.867582
0.872435
-0.0221217
0.0172687
-1.03857
1.04191
-0.0135691
0.010228
-1.24472
1.24713
-0.00767534
0.00526697
-1.49284
1.49486
-0.00330025
0.00128286
-1.49269
1.49452
0.00053878
-0.0023611
-1.2441
1.24602
0.00433645
-0.00624935
-1.03761
1.04008
0.00858577
-0.0110646
-0.866186
0.869812
0.0143214
-0.0179471
-0.724593
0.729745
0.0227301
-0.0278816
-0.609063
0.615632
0.0343528
-0.040921
-0.515122
0.522457
0.0486399
-0.0559747
-0.43988
0.447656
0.0639956
-0.0717723
-0.374706
0.377355
0.0792649
-0.0819142
-0.256895
0.224433
0.0715638
-0.0391011
-0.0688126
0.0592018
0.00961082
-0.0521019
0.0589268
-0.374839
0.368015
-0.0580779
0.0542348
-0.453948
0.457791
-0.0487472
0.0441873
-0.52762
0.53218
-0.0396371
0.0357411
-0.620805
0.624701
-0.0315275
0.027531
-0.734664
0.738661
-0.0231717
0.0192814
-0.87396
0.87785
-0.0152325
0.0117718
-1.04337
1.04683
-0.00824802
0.00521136
-1.24865
1.25169
-0.00199944
-0.000985398
-1.49695
1.49993
0.00394798
-0.00709873
-1.49742
1.50057
0.0100453
-0.0134465
-1.25006
1.25346
0.0167819
-0.020687
-1.04564
1.04955
0.0244502
-0.0286833
-0.877131
0.881364
0.0325783
-0.0366924
-0.738977
0.743091
0.0405067
-0.0449765
-0.625964
0.630434
0.0494691
-0.0548908
-0.535011
0.540433
0.0586572
-0.0594152
-0.45807
0.458828
0.0524641
-0.0320707
-0.336755
0.316362
0.00967536
-0.0686572
0.0589818
-0.0534141
0.049304
0.00411009
-0.0332338
0.043653
-0.358572
0.348152
-0.0473252
0.0467359
-0.459586
0.460175
-0.0438054
0.0405914
-0.536139
0.539353
-0.036913
0.0335569
-0.628405
0.631761
-0.0299212
0.0266775
-0.742044
0.745288
-0.0232206
0.0200188
-0.881348
0.884549
-0.0164206
0.0130639
-1.05026
1.05361
-0.00935928
0.00594972
-1.25495
1.25836
-0.00215397
-0.00146616
-1.50328
1.5069
0.00505449
-0.00875803
-1.50406
1.50777
0.0120418
-0.0155743
-1.25702
1.26055
0.0187542
-0.0221478
-1.05325
1.05665
0.0251677
-0.028443
-0.884969
0.888245
0.0315405
-0.035033
-0.74677
0.750262
0.0382683
-0.0418213
-0.63455
0.638103
0.0449267
-0.047735
-0.544571
0.54738
0.0481973
-0.0443488
-0.456939
0.45309
0.033713
-0.0163888
-0.297036
0.279712
0.00418143
-0.0531294
0.048948
-0.0461363
0.0435827
0.00255367
-0.023034
0.0333765
-0.337567
0.327224
-0.0391039
0.0400485
-0.459929
0.458985
-0.0387936
0.0364628
-0.542013
0.544344
-0.0338178
0.0312687
-0.634733
0.637282
-0.028288
0.0254357
-0.748378
0.751231
-0.0221924
0.0191729
-0.88761
0.890629
-0.0158154
0.0126752
-1.05679
1.05993
-0.00911171
0.00570584
-1.26176
1.26517
-0.00179001
-0.00201107
-1.51064
1.51444
0.00577117
-0.00956271
-1.51154
1.51533
0.0128015
-0.0161385
-1.264
1.26734
0.0190464
-0.0221363
-1.05985
1.06294
0.0249154
-0.0279144
-0.891435
0.894434
0.0305659
-0.0333484
-0.753436
0.756218
0.0357322
-0.03821
-0.64105
0.643528
0.0403975
-0.041464
-0.549208
0.550274
0.0403228
-0.0343081
-0.447956
0.441942
0.0236497
-0.0103871
-0.264512
0.251249
0.00264216
-0.0457005
0.0430584
-0.0414665
0.0396686
0.00179797
-0.0169274
0.0262027
-0.317364
0.308089
-0.0327888
0.0349018
-0.457431
0.455318
-0.0344609
0.0327568
-0.546379
0.548083
-0.0305233
0.0283897
-0.6396
0.641734
-0.025945
0.0235594
-0.753837
0.756223
-0.020736
0.0179814
-0.893493
0.896247
-0.014788
0.0117451
-1.06298
1.06603
-0.0082715
0.00494895
-1.26849
1.27182
-0.00110344
-0.00264716
-1.51821
1.52196
0.00634496
-0.0100338
-1.51907
1.52276
0.0131447
-0.0163317
-1.27061
1.27379
0.01908
-0.0219311
-1.06596
1.06881
0.024375
-0.0268813
-0.897211
0.899718
0.0290074
-0.0311974
-0.758652
0.760842
0.0331201
-0.0351377
-0.645747
0.647764
0.0366328
-0.0368163
-0.550846
0.551029
0.0344011
-0.0273947
-0.435335
0.428329
0.017696
-0.00749018
-0.239657
0.229451
0.00190627
-0.0408445
0.0389382
-0.0381216
0.0367729
0.00134872
-0.0129248
0.0209109
-0.299461
0.291475
-0.0276648
0.0305763
-0.452773
0.449861
-0.030774
0.0296415
-0.549528
0.550661
-0.0276344
0.0256999
-0.643799
0.645733
-0.0234784
0.0213276
-0.758475
0.760625
-0.0188084
0.0163296
-0.898806
0.901285
-0.0133982
0.0105327
-1.06893
1.0718
-0.00719292
0.00396838
-1.27506
1.27828
-0.000228527
-0.00340568
-1.52563
1.52926
0.0069741
-0.0105169
-1.52637
1.52991
0.013477
-0.0164579
-1.2769
1.27988
0.0189536
-0.0214548
-1.07153
1.07403
0.0235447
-0.0256672
-0.902022
0.904144
0.0274914
-0.0293896
-0.762875
0.764773
0.0310573
-0.0328056
-0.649623
0.651371
0.0336326
-0.0330756
-0.550844
0.550287
0.0297319
-0.0224022
-0.421103
0.413773
0.0138723
-0.0057923
-0.220409
0.212329
0.00148086
-0.0372719
0.0357911
-0.0355952
0.0345574
0.00103779
-0.0100965
0.0168551
-0.284126
0.277367
-0.0233562
0.0267282
-0.446698
0.443326
-0.0275014
0.0268004
-0.55157
0.552271
-0.0250259
0.0232342
-0.647636
0.649428
-0.0211617
0.0191456
-0.762709
0.764725
-0.0167729
0.0144443
-0.903624
0.905953
-0.011705
0.00901907
-1.07451
1.07719
-0.00585955
0.00277683
-1.28139
1.28448
0.000821121
-0.00431827
-1.5328
1.5363
0.00773343
-0.0110883
-1.53335
1.53671
0.013844
-0.0165605
-1.28274
1.28546
0.0187916
-0.0210004
-1.07641
1.07862
0.0228471
-0.0247268
-0.906158
0.908038
0.0263373
-0.0280088
-0.76655
0.768222
0.0294705
-0.0308888
-0.652971
0.654389
0.0312093
-0.0299256
-0.549381
0.548097
0.0259582
-0.0186991
-0.406453
0.399194
0.0112577
-0.00466832
-0.205065
0.198475
0.00119857
-0.0344683
0.0332698
-0.0336459
0.0328381
0.000807829
-0.00800031
0.0136835
-0.271175
0.265491
-0.0197064
0.0232821
-0.439841
0.436265
-0.0245372
0.0240843
-0.552878
0.553331
-0.0225823
0.0209006
-0.651214
0.652896
-0.0189251
0.0169994
-0.766694
0.76862
-0.014729
0.0124969
-0.908169
0.910402
-0.00986707
0.007296
-1.07975
1.08232
-0.00428329
0.00134194
-1.28744
1.29038
0.00209096
-0.00542294
-1.53968
1.54302
0.00865599
-0.0117921
-1.53994
1.54307
0.0143316
-0.0168041
-1.28806
1.29053
0.0188189
-0.0207973
-1.08077
1.08274
0.0224363
-0.0241001
-0.909831
0.911495
0.0255266
-0.0270083
-0.769793
0.771275
0.0282787
-0.0293198
-0.655597
0.656638
0.0292689
-0.0273166
-0.546485
0.544533
0.0229453
-0.0159503
-0.392064
0.385069
0.00941942
-0.00389084
-0.192468
0.186939
0.00100322
-0.032182
0.0311788
-0.032128
0.0314977
0.000630303
-0.00638611
0.0111501
-0.260295
0.255531
-0.0165869
0.0201688
-0.432684
0.429102
-0.0217522
0.0215271
-0.553705
0.55393
-0.0202602
0.0186416
-0.654594
0.656212
-0.0167236
0.0148487
-0.770516
0.772391
-0.0126395
0.0104697
-0.912529
0.914699
-0.00791538
0.00542128
-1.08477
1.08727
-0.00250658
-0.000317751
-1.2932
1.29603
0.0036037
-0.00676751
-1.54623
1.54939
0.00980859
-0.0127278
-1.54608
1.549
0.0150691
-0.0173259
-1.2929
1.29516
0.0191418
-0.0209004
-1.08468
1.08644
0.0223446
-0.0238117
-0.913084
0.914551
0.0250751
-0.026386
-0.772664
0.773974
0.0275115
-0.0281365
-0.657459
0.658084
0.0277164
-0.0252037
-0.542317
0.539805
0.020587
-0.0139256
-0.378252
0.371591
0.00811661
-0.00334761
-0.18183
0.177061
0.000867453
-0.0302544
0.029387
-0.0309467
0.0304599
0.000486809
-0.00508887
0.00906042
-0.251188
0.247217
-0.0138655
0.0173041
-0.425598
0.422159
-0.0190757
0.0190436
-0.554098
0.55413
-0.0179761
0.0163932
-0.657877
0.65946
-0.0145004
0.0126435
-0.77425
0.776107
-0.0104563
0.00831349
-0.916771
0.918914
-0.0058
0.00335614
-1.08965
1.09209
-0.000513203
-0.00223229
-1.29875
1.30149
0.00539229
-0.008404
-1.55244
1.55545
0.0112672
-0.0139845
-1.55179
1.5545
0.0161388
-0.0181887
-1.29732
1.29937
0.0198138
-0.0213616
-1.08817
1.08972
0.02262
-0.0239035
-0.915953
0.917237
0.0250179
-0.0261715
-0.775197
0.776351
0.02711
-0.0273563
-0.65851
0.658756
0.0265416
-0.0235549
-0.537072
0.534085
0.0187921
-0.0124582
-0.365113
0.358779
0.00720119
-0.00297281
-0.172596
0.168367
0.000775404
-0.0285758
0.0278004
-0.0300404
0.0296747
0.000365661
-0.00400372
0.00727958
-0.243615
0.24034
-0.0114407
0.014626
-0.418859
0.415674
-0.0164602
0.016585
-0.554131
0.554006
-0.0156049
0.0140979
-0.661079
0.662586
-0.0122042
0.0103335
-0.777959
0.779829
-0.00813022
0.00597921
-0.920965
0.923116
-0.0034696
0.00104248
-1.09443
1.09686
0.00176216
-0.00444854
-1.30414
1.30683
0.00751331
-0.0103985
-1.55835
1.56124
0.0131033
-0.0156296
-1.5571
1.55962
0.0176
-0.0194437
-1.30132
1.30316
0.0208798
-0.0222213
-1.09126
1.09261
0.0233014
-0.0244104
-0.918464
0.919573
0.0253802
-0.0263645
-0.777411
0.778395
0.027046
-0.0270003
-0.658874
0.658829
0.0257635
-0.0223581
-0.530905
0.5275
0.0174953
-0.0114357
-0.352609
0.346549
0.0065811
-0.00272556
-0.164356
0.1605
0.000716709
-0.0270647
0.026348
-0.0293689
0.0291111
0.000257787
-0.00305401
0.0057026
-0.237398
0.234749
-0.00922015
0.012069
-0.412674
0.409825
-0.0138514
0.0140613
-0.553891
0.553681
-0.0131258
0.0116652
-0.664153
0.665613
-0.00974693
0.00783325
-0.781703
0.783617
-0.00557986
0.00338849
-0.925178
0.927369
-0.000846441
-0.00159778
-1.09919
1.10163
0.00440026
-0.00705861
-1.30943
1.31209
0.010055
-0.0128349
-1.56402
1.5668
0.0153972
-0.0177442
-1.56203
1.56437
0.0195386
-0.0211818
-1.30491
1.30655
0.0224301
-0.0235591
-1.09396
1.09509
0.0244519
-0.0253824
-0.92063
0.921561
0.0262091
-0.0270213
-0.779281
0.780093
0.0274156
-0.0270996
-0.658642
0.658326
0.0254156
-0.0216092
-0.523914
0.520108
0.0166492
-0.0107823
-0.340622
0.334755
0.00619723
-0.00257948
-0.156795
0.153177
0.000684548
-0.0256584
0.0249738
-0.0289097
0.0287541
0.000155568
-0.00217608
0.00423657
-0.232413
0.230352
-0.00710621
0.00954897
-0.4072
0.404757
-0.0111729
0.0113904
-0.55353
0.553312
-0.0104684
0.00901769
-0.667168
0.668619
-0.00705023
0.00506558
-0.785538
0.787523
-0.00272733
0.000462927
-0.929472
0.931736
0.0021537
-0.00464955
-1.10399
1.10648
0.00748733
-0.0101488
-1.31466
1.31732
0.0131078
-0.0158053
-1.56948
1.57218
0.0182399
-0.0204151
-1.5666
1.56877
0.022034
-0.0234736
-1.30809
1.30953
0.0245291
-0.0254348
-1.09626
1.09717
0.0261262
-0.0268611
-0.922432
0.923167
0.0275347
-0.028202
-0.780794
0.781461
0.0282852
-0.0275981
-0.657789
0.657102
0.0254748
-0.0212731
-0.516146
0.511944
0.0161943
-0.0104308
-0.328986
0.323222
0.00600139
-0.00251334
-0.149656
0.146168
0.00067337
-0.0243067
0.0236333
-0.0286544
0.0286021
5.22981e-05
-0.00132093
0.00280852
-0.228594
0.227107
-0.0050167
0.00698986
-0.402572
0.400599
-0.00835103
0.00849363
-0.553206
0.553063
-0.00753839
0.00606131
-0.670202
0.671679
-0.0040059
0.00191698
-0.789519
0.791608
0.000544636
-0.00292278
-0.933915
0.936293
0.00565032
-0.00823344
-1.10889
1.11148
0.0111433
-0.01384
-1.31991
1.32261
0.0167907
-0.019424
-1.57479
1.57742
0.0217404
-0.0237459
-1.57082
1.57282
0.0251869
-0.0264174
-1.31085
1.31208
0.0272695
-0.027939
-1.09814
1.09881
0.0284187
-0.0289449
-0.923848
0.924374
0.0294558
-0.0299207
-0.781945
0.78241
0.0297145
-0.0285969
-0.656175
0.655058
0.0259954
-0.0213684
-0.507599
0.502972
0.0161178
-0.0103531
-0.317514
0.311749
0.00597154
-0.00251736
-0.142732
0.139278
0.000680703
-0.0229695
0.0222888
-0.0286057
0.0286631
-5.74069e-05
-0.000442234
0.00135234
-0.225922
0.225012
-0.00287194
0.00431128
-0.398915
0.397476
-0.00530765
0.00529047
-0.553091
0.553108
-0.00424495
0.00268764
-0.67334
0.674897
-0.000510946
-0.00172153
-0.793711
0.795944
0.00435314
-0.00688196
-0.938584
0.941113
0.0097669
-0.0124786
-1.11398
1.11669
0.0155025
-0.0182671
-1.32523
1.328
0.021237
-0.0238221
-1.57996
1.58255
0.0260256
-0.0278561
-1.57469
1.57652
0.0291104
-0.0301234
-1.31317
1.31418
0.0307655
-0.0311932
-1.09957
1.09999
0.0314523
-0.0317546
-0.924845
0.925148
0.0320772
-0.0322698
-0.782577
0.782769
0.0317845
-0.0301257
-0.653699
0.65204
0.0270041
-0.0219046
-0.498211
0.493111
0.0164093
-0.0105306
-0.305993
0.300115
0.0060931
-0.00258475
-0.135835
0.132327
0.000704631
-0.0216105
0.0209059
-0.0287759
0.0289484
-0.000172453
0.000479094
-0.000179139
-0.224419
0.224119
-0.000601606
0.00142775
-0.396357
0.395531
-0.00194859
0.0016895
-0.553361
0.55362
-0.000496932
-0.00120759
-0.676696
0.678401
0.00355981
-0.00598089
-0.798198
0.800619
0.00883166
-0.0115604
-0.943559
0.946288
0.0146557
-0.0175416
-1.11934
1.12222
0.0207247
-0.0235932
-1.3307
1.33357
0.0266145
-0.0291713
-1.58505
1.5876
0.0312686
-0.0329179
-1.57821
1.57986
0.0339743
-0.0347458
-1.31503
1.3158
0.0351591
-0.0353288
-1.1005
1.10067
0.035353
-0.035414
-0.925384
0.925445
0.0355381
-0.0353802
-0.78258
0.782423
0.0345271
-0.032262
-0.65019
0.647925
0.0285543
-0.0229033
-0.487868
0.482217
0.0170674
-0.0109513
-0.294193
0.288077
0.00635535
-0.00270988
-0.128791
0.125145
0.000743416
-0.0201973
0.0194539
-0.0292017
0.0295172
-0.000315533
0.00148382
-0.0018275
-0.22417
0.224513
0.00189156
-0.0017889
-0.395022
0.39492
0.00187471
-0.00248853
-0.554234
0.554848
0.0039091
-0.00580755
-0.680407
0.682305
0.00839317
-0.0110566
-0.803062
0.805725
0.0141867
-0.0171691
-0.948938
0.95192
0.0205304
-0.0236377
-1.12504
1.12815
0.027026
-0.0300319
-1.33638
1.33939
0.0331284
-0.0356647
-1.59007
1.59261
0.0376495
-0.0390943
-1.58134
1.58279
0.039931
-0.0404391
-1.31637
1.31688
0.040603
-0.0404912
-1.10089
1.10078
0.0402541
-0.0400514
-0.925407
0.925205
0.0399715
-0.0393503
-0.781814
0.781193
0.0380437
-0.0350888
-0.645509
0.642554
0.0307039
-0.0243905
-0.476399
0.470085
0.018096
-0.0116086
-0.281862
0.275374
0.0067507
-0.00288828
-0.121436
0.117574
0.000795521
-0.0187011
0.0179056
-0.0299031
0.0303954
-0.000492328
0.00276715
-0.00386203
-0.225246
0.226341
0.00479246
-0.00548754
-0.395139
0.395834
0.00628991
-0.00736626
-0.555936
0.557013
0.00910231
-0.0112694
-0.684581
0.686748
0.0141689
-0.0171435
-0.808415
0.81139
0.0206249
-0.0239245
-0.954828
0.958128
0.0276181
-0.0310015
-1.1312
1.13459
0.0346443
-0.0378193
-1.34234
1.34551
0.0410088
-0.0435234
-1.59504
1.59756
0.0453782
-0.0465981
-1.58405
1.58527
0.0471702
-0.0473974
-1.31714
1.31737
0.0472847
-0.0468572
-1.10067
1.10024
0.0463321
-0.0458459
-0.92485
0.924364
0.0454515
-0.0443816
-0.780128
0.779059
0.0424893
-0.0387081
-0.639466
0.635685
0.0335151
-0.0263911
-0.463569
0.456445
0.0194975
-0.0124941
-0.268729
0.261726
0.00726965
-0.00311395
-0.113614
0.109459
0.000858731
-0.0170964
0.0162377
-0.0309561
0.0316692
-0.000713145
0.00426498
-0.00625038
-0.227849
0.229834
0.00823983
-0.00984258
-0.396912
0.398515
0.01147
-0.0131249
-0.558727
0.560382
0.0153091
-0.0178387
-0.689378
0.691907
0.0211517
-0.0245188
-0.814399
0.817766
0.0284395
-0.0321332
-0.961364
0.965057
0.036235
-0.0399516
-1.13793
1.14164
0.0438948
-0.0472631
-1.34863
1.352
0.0505488
-0.0530202
-1.59996
1.60243
0.054706
-0.0556493
-1.58629
1.58723
0.0559147
-0.0558191
-1.31727
1.31718
0.0554012
-0.0546305
-1.09976
1.09899
0.0537918
-0.0529795
-0.923651
0.922838
0.0521792
-0.0505993
-0.777542
0.775962
0.047978
-0.0432102
-0.631791
0.627023
0.0370444
-0.0289246
-0.449071
0.440951
0.0212679
-0.0135926
-0.254501
0.246826
0.00789722
-0.00337769
-0.105174
0.100654
0.000929695
-0.0153625
0.0144328
-0.0324441
0.0334447
-0.0010006
0.00614435
-0.00918456
-0.232229
0.235269
0.0124467
-0.0151093
-0.400614
0.403276
0.0177055
-0.0200689
-0.562886
0.56525
0.0228467
-0.0258632
-0.695
0.698017
0.0297238
-0.0335911
-0.821182
0.825049
0.0380548
-0.0422235
-0.968698
0.972867
0.0468056
-0.0509036
-1.14532
1.14941
0.0551767
-0.0587398
-1.3553
1.35886
0.0620938
-0.0644709
-1.60475
1.60713
0.0659219
-0.0665117
-1.58793
1.58852
0.0664088
-0.0659181
-1.31663
1.31614
0.065156
-0.0639925
-1.09809
1.09693
0.0627995
-0.0616644
-0.921733
0.920598
0.0603348
-0.0581458
-0.773923
0.771734
0.0546456
-0.0486734
-0.62214
0.616168
0.0413202
-0.0319775
-0.432527
0.423185
0.0233735
-0.0148665
-0.238867
0.23036
0.00860338
-0.00366316
-0.0959818
0.0910416
0.00100294
-0.0134865
0.0124835
-0.0344928
0.0358907
-0.00139788
0.00860052
-0.0129907
-0.238709
0.243099
0.0177447
-0.0216473
-0.406608
0.410511
0.0253856
-0.0286066
-0.568745
0.571966
0.0321518
-0.0358127
-0.701722
0.705383
0.0403822
-0.0448776
-0.828972
0.833468
0.0499977
-0.0547245
-0.976993
0.98172
0.0598531
-0.0643629
-1.15346
1.15797
0.0689612
-0.072681
-1.36232
1.36604
0.0760276
-0.0782165
-1.6093
1.61149
0.0793304
-0.0794626
-1.58881
1.58894
0.0789159
-0.0779048
-1.31507
1.31406
0.0767334
-0.0751419
-1.09553
1.09394
0.0735788
-0.0720264
-0.919067
0.917514
0.0701533
-0.0671994
-0.769048
0.766094
0.0625952
-0.0551357
-0.610063
0.602604
0.0463277
-0.0354936
-0.413481
0.402647
0.0257429
-0.0162501
-0.221516
0.212024
0.00934029
-0.00394596
-0.0859357
0.0805414
0.00107071
-0.0114674
0.0103967
-0.0373022
0.039259
-0.0019568
0.0120124
-0.0181249
-0.247808
0.253921
0.0246804
-0.0300359
-0.415396
0.420751
0.0351253
-0.0393943
-0.576695
0.580964
0.043912
-0.048412
-0.709875
0.714375
0.0538864
-0.0591522
-0.838015
0.843281
0.065046
-0.0703994
-0.986414
0.991767
0.0761005
-0.0809981
-1.16241
1.1673
0.0858457
-0.0896113
-1.36959
1.37335
0.0927904
-0.0946182
-1.61338
1.61521
0.0952224
-0.0947357
-1.58868
1.58819
0.0936313
-0.0920065
-1.31242
1.3108
0.090342
-0.0883047
-1.09197
1.08994
0.0863535
-0.0842347
-0.915427
0.913308
0.0818321
-0.0778508
-0.762514
0.758533
0.0718577
-0.0625573
-0.594978
0.585678
0.0519709
-0.0393411
-0.391405
0.378775
0.0282418
-0.0176337
-0.202161
0.191553
0.0100336
-0.00419044
-0.0749892
0.0691461
0.00112216
-0.00932131
0.00819915
-0.0411903
0.0440171
-0.00282687
0.0169687
-0.0253389
-0.260266
0.268636
0.0341378
-0.0412502
-0.427642
0.434755
0.0479886
-0.0535274
-0.587216
0.592755
0.0593095
-0.0649123
-0.719869
0.725472
0.0715017
-0.0776572
-0.848578
0.854733
0.084377
-0.0903341
-0.997065
1.00302
0.0965121
-0.101654
-1.17204
1.17718
0.106539
-0.11012
-1.37682
1.3804
0.11285
-0.114045
-1.61659
1.61779
0.11389
-0.112564
-1.58719
1.58587
0.110732
-0.108387
-1.30848
1.30613
0.106147
-0.103595
-1.08733
1.08477
0.101226
-0.0984322
-0.910463
0.907669
0.0953842
-0.0900701
-0.753786
0.748472
0.0823384
-0.0707635
-0.576138
0.564563
0.0580263
-0.0432818
-0.365722
0.350978
0.0306544
-0.0188564
-0.180591
0.168793
0.0105807
-0.00435049
-0.0631849
0.0569546
0.00114406
-0.0070865
0.00594244
-0.0467377
0.0510364
-0.00429869
0.0246554
-0.0361015
-0.277241
0.288687
0.0478146
-0.0572548
-0.444379
0.453819
0.0660165
-0.0730212
-0.600923
0.607927
0.0803373
-0.0874383
-0.732088
0.739189
0.0952005
-0.102157
-0.860861
0.867817
0.109532
-0.11587
-1.00882
1.01515
0.122209
-0.127258
-1.18199
1.18704
0.131769
-0.134774
-1.38347
1.38648
0.136618
-0.136796
-1.61833
1.61851
0.135547
-0.133111
-1.58389
1.58145
0.130368
-0.127148
-1.303
1.29978
0.124236
-0.121111
-1.08145
1.07833
0.118239
-0.114715
-0.903998
0.900475
0.110724
-0.103667
-0.742194
0.735136
0.0937322
-0.0793734
-0.552606
0.538247
0.0640977
-0.0469581
-0.335864
0.318724
0.0326886
-0.01972
-0.156752
0.143783
0.0108632
-0.00437575
-0.0506955
0.0442081
0.00112195
-0.004827
0.00370505
-0.0550145
0.0623976
-0.00738301
0.0381517
-0.0540767
-0.300884
0.31681
0.069869
-0.0825265
-0.467254
0.479912
0.0934673
-0.101822
-0.618253
0.626607
0.110628
-0.118985
-0.746913
0.75527
0.12764
-0.134987
-0.874559
0.881906
0.142443
-0.148571
-1.02106
1.02719
0.154399
-0.158716
-1.19143
1.19575
0.16218
-0.163986
-1.38866
1.39046
0.164357
-0.163047
-1.61776
1.61645
0.160336
-0.15649
-1.57821
1.57437
0.152603
-0.148315
-1.29567
1.29138
0.144636
-0.140918
-1.07416
1.07044
0.137393
-0.133038
-0.895833
0.891478
0.127651
-0.118211
-0.72675
0.71731
0.105413
-0.0876498
-0.523224
0.505461
0.0695393
-0.0499106
-0.301377
0.281749
0.0340551
-0.0200914
-0.130868
0.116904
0.0108281
-0.0042564
-0.0378662
0.0312945
0.00105249
-0.00263526
0.00158276
-0.0692769
0.0734132
-0.0041363
0.0292294
-0.0430264
-0.335208
0.349005
0.0570126
-0.0686026
-0.497724
0.509314
0.0789506
-0.0885605
-0.638763
0.648373
0.0992463
-0.109018
-0.763231
0.773003
0.11987
-0.129535
-0.888386
0.898052
0.139817
-0.148937
-1.03237
1.04149
0.15841
-0.166469
-1.19897
1.20702
0.174377
-0.180567
-1.3911
1.39728
0.185881
-0.189085
-1.61391
1.61711
0.190148
-0.18965
-1.56949
1.56899
0.188073
-0.185716
-1.28612
1.28376
0.183698
-0.181281
-1.06524
1.06282
0.178945
-0.174705
-0.88537
0.88113
0.167191
-0.153151
-0.706026
0.691985
0.133935
-0.108313
-0.486754
0.461132
0.0835412
-0.057885
-0.262104
0.236448
0.0383057
-0.0219107
-0.103605
0.0872104
0.0114849
-0.00439219
-0.0252443
0.0181516
0.00106117
-0.000610832
-0.00045034
-0.0805795
0.0787411
0.00183831
0.0074945
-0.0165819
-0.365609
0.374697
0.0272019
-0.0354033
-0.525588
0.533789
0.0436999
-0.0518317
-0.660522
0.668654
0.0616777
-0.0708281
-0.78246
0.79161
0.0805506
-0.0894229
-0.907161
0.916033
0.0988206
-0.106811
-1.05031
1.0583
0.115285
-0.122114
-1.21487
1.2217
0.128734
-0.133595
-1.40312
1.40799
0.137147
-0.138759
-1.61944
1.62106
0.138228
-0.136109
-1.56771
1.56559
0.13291
-0.128805
-1.28064
1.27654
0.125069
-0.120996
-1.05809
1.05402
0.117058
-0.1115
-0.872087
0.866529
0.103464
-0.0909351
-0.673933
0.661405
0.0762088
-0.0584814
-0.433989
0.416262
0.0429879
-0.0286064
-0.211314
0.196932
0.0184723
-0.0104587
-0.0719534
0.0639399
0.00551937
-0.00215036
-0.0114866
0.00811756
0.000467298
0.00155752
-0.00202482
-0.0820265
0.0791248
0.00290172
-0.00173214
-0.00353461
-0.386127
0.391394
0.010778
-0.0166871
-0.546174
0.552083
0.0228168
-0.0299396
-0.678907
0.68603
0.0384436
-0.0463824
-0.799904
0.807843
0.0550414
-0.0627726
-0.924155
0.931886
0.0707035
-0.0777942
-1.06609
1.07318
0.085084
-0.0910172
-1.22805
1.23399
0.0962717
-0.0998495
-1.41211
1.41569
0.102281
-0.102616
-1.62186
1.6222
0.100818
-0.0974321
-1.56275
1.55936
0.0932153
-0.0882082
-1.27205
1.26704
0.0832073
-0.0778872
-1.04806
1.04274
0.0727961
-0.0665096
-0.856816
0.850529
0.059169
-0.0488878
-0.64567
0.635389
0.0383413
-0.0270784
-0.396887
0.385624
0.0186814
-0.0119285
-0.18219
0.175437
0.00770053
-0.00457287
-0.0560428
0.0529151
0.00256405
-0.00100531
-0.00487665
0.0033179
0.000219944
0.00267413
-0.00289407
-0.0807485
0.0779947
0.00275377
-0.00540233
0.00288549
-0.39978
0.402297
0.00179064
-0.00624569
-0.561349
0.565804
0.0114031
-0.0173625
-0.694069
0.700028
0.0246045
-0.0313867
-0.815169
0.821952
0.0387742
-0.0453925
-0.939082
0.9457
0.0525533
-0.0585333
-1.07982
1.0858
0.0648454
-0.0694886
-1.23946
1.24411
0.0738366
-0.0766056
-1.41898
1.42175
0.0779934
-0.0771857
-1.62199
1.62118
0.074687
-0.0706263
-1.55532
1.55126
0.0658005
-0.0597556
-1.26159
1.25555
0.0540827
-0.0479058
-1.03598
1.0298
0.0419122
-0.0354436
-0.840598
0.834129
0.0287481
-0.0209245
-0.622148
0.614324
0.0139766
-0.00803121
-0.373307
0.367362
0.00466359
-0.00266397
-0.167664
0.165665
0.00172769
-0.00124814
-0.0489855
0.0485059
0.000851415
-0.000299972
-0.0016377
0.00108625
5.24326e-05
0.00340099
-0.00345342
-0.0792022
0.0767516
0.00245061
-0.00658057
0.00568975
-0.408841
0.409732
-0.00226129
-0.000933033
-0.573479
0.576673
0.00510642
-0.0104998
-0.706754
0.712147
0.0165628
-0.0224969
-0.828052
0.833986
0.028872
-0.0345916
-0.951853
0.957572
0.0406931
-0.0459653
-1.09162
1.09689
0.0512391
-0.0554084
-1.24857
1.25274
0.0589876
-0.0610954
-1.42409
1.4262
0.061804
-0.060403
-1.62012
1.61872
0.0573719
-0.0526026
-1.54642
1.54165
0.0473529
-0.0410136
-1.24931
1.24297
0.0349253
-0.0280868
-1.02258
1.01574
0.0217974
-0.0151245
-0.824709
0.818036
0.00940467
-0.00341153
-0.603943
0.597949
-0.000892059
0.0033865
-0.359431
0.356936
-0.00386933
0.00327319
-0.161796
0.162393
-0.0023259
0.00127301
-0.0472425
0.0482954
-0.000574152
0.000289655
-0.000640252
0.000924748
-9.108e-05
0.00379024
-0.00369916
-0.0777447
0.075635
0.0021097
-0.00650421
0.00614517
-0.414995
0.415354
-0.00412067
0.00155775
-0.582758
0.585321
0.00246225
-0.00705668
-0.717466
0.722061
0.0122482
-0.0173857
-0.839141
0.844278
0.0230333
-0.0281168
-0.962928
0.968011
0.0336555
-0.0382244
-1.10186
1.10643
0.0428971
-0.0465605
-1.25659
1.26025
0.0495753
-0.0512132
-1.42799
1.42963
0.0514369
-0.0500127
-1.61714
1.61572
0.0466245
-0.0417367
-1.53636
1.53148
0.0362794
-0.0297343
-1.23635
1.22981
0.0236927
-0.0165397
-1.0083
1.00115
0.0100838
-0.00353989
-0.80931
0.802766
-0.00162647
0.00628501
-0.589495
0.584837
-0.00916673
0.0100376
-0.351716
0.350846
-0.00893893
0.0070687
-0.161107
0.162977
-0.00524564
0.00323521
-0.048716
0.0507264
-0.00175992
0.00075217
-0.00139214
0.0023999
-0.00020747
0.00379897
-0.0035915
-0.0766085
0.0749532
0.00165527
-0.00566112
0.00565404
-0.419497
0.419504
-0.00405296
0.00215039
-0.590806
0.592709
0.00158749
-0.00572645
-0.726695
0.730834
0.0106358
-0.0150418
-0.84902
0.853426
0.0199786
-0.0244563
-0.973047
0.977525
0.0296696
-0.0337746
-1.11101
1.11511
0.0378605
-0.0412532
-1.26369
1.26709
0.0443174
-0.0456888
-1.43124
1.43261
0.045815
-0.0441747
-1.61384
1.6122
0.0410253
-0.0358925
-1.52635
1.52121
0.030645
-0.0243219
-1.22308
1.21675
0.0182044
-0.011332
-0.993762
0.98689
0.00493241
0.00158411
-0.794504
0.787987
-0.00618638
0.0102408
-0.577382
0.573328
-0.0125968
0.0128135
-0.347084
0.346868
-0.0113568
0.00910564
-0.16303
0.165282
-0.00688775
0.0044305
-0.0521287
0.0545859
-0.00253334
0.00106958
-0.00342409
0.00488786
-0.000292915
0.00348714
-0.00319423
-0.0759667
0.0746587
0.00130805
-0.00461016
0.00474194
-0.423006
0.422874
-0.00335927
0.00155474
-0.597765
0.59957
0.00201788
-0.00569373
-0.734946
0.738622
0.00987951
-0.0141079
-0.857768
0.861996
0.0186386
-0.0232208
-0.981791
0.986373
0.0276646
-0.0315452
-1.11929
1.12317
0.0357078
-0.0387999
-1.27033
1.27342
0.0413143
-0.0430221
-1.43386
1.43557
0.043228
-0.0417689
-1.61058
1.60912
0.0386802
-0.0340137
-1.51627
1.51161
0.0289836
-0.0228834
-1.21013
1.20403
0.0170746
-0.0104541
-0.979756
0.973135
0.00433147
0.00178493
-0.780364
0.774247
-0.00659591
0.0101846
-0.566447
0.562858
-0.0122265
0.012757
-0.343876
0.343346
-0.0116526
0.00946593
-0.165697
0.167884
-0.00730481
0.0048335
-0.0562772
0.0587486
-0.00285144
0.00122402
-0.00616274
0.00779016
-0.000350388
0.00297107
-0.00262068
-0.0758489
0.0747562
0.00109267
-0.00334959
0.00325636
-0.426111
0.426205
-0.00215821
0.000401416
-0.604116
0.605873
0.00301411
-0.00655007
-0.742574
0.74611
0.0105455
-0.0143478
-0.865995
0.869797
0.0189679
-0.0227334
-0.990359
0.994125
0.0271135
-0.0307804
-1.12718
1.13085
0.0347883
-0.0380345
-1.27647
1.27972
0.0407824
-0.0422184
-1.43701
1.43844
0.0427012
-0.0415779
-1.60757
1.60645
0.0390559
-0.0346208
-1.50682
1.50239
0.0299693
-0.0242368
-1.19807
1.19233
0.018819
-0.0125439
-0.96626
0.959985
0.00688169
-0.000877207
-0.767082
0.761078
-0.003849
0.00751851
-0.55642
0.55275
-0.00958631
0.010341
-0.340534
0.33978
-0.00988703
0.00832624
-0.167943
0.169503
-0.00659984
0.00447852
-0.0602957
0.062417
-0.00270812
0.00119311
-0.00904655
0.0105616
-0.00036712
0.00234888
-0.00198176
-0.0760109
0.075246
0.000764957
-0.00220121
0.0016566
-0.429282
0.429826
-0.000721847
-0.00122002
-0.609652
0.611593
0.00424321
-0.00762018
-0.749658
0.753035
0.0114306
-0.0153446
-0.873445
0.877359
0.0193255
-0.023231
-0.998079
1.00198
0.0275504
-0.0309868
-1.13492
1.13836
0.0350565
-0.0382285
-1.28275
1.28592
0.0410029
-0.0429373
-1.44027
1.4422
0.0438713
-0.0429917
-1.60535
1.60447
0.0406772
-0.0369356
-1.49814
1.4944
0.0328375
-0.0275255
-1.18656
1.18125
0.022439
-0.0168219
-0.953665
0.948047
0.0111866
-0.00565517
-0.754287
0.748756
0.000924199
0.00306681
-0.546762
0.542771
-0.00524116
0.00647187
-0.33661
0.33538
-0.00663339
0.00596231
-0.169209
0.16988
-0.00487632
0.00343342
-0.0634639
0.0649068
-0.00215815
0.000995848
-0.0115652
0.0127275
-0.000308711
0.00172677
-0.00141806
-0.0765955
0.0759918
0.000603741
-0.00122743
0.00077692
-0.432669
0.433119
0.00074361
-0.00260121
-0.615318
0.617176
0.00576561
-0.00899916
-0.7562
0.759433
0.0126461
-0.016144
-0.880924
0.884422
0.020234
-0.0238111
-1.00588
1.00945
0.0280658
-0.0319237
-1.14223
1.14609
0.0356158
-0.039102
-1.28911
1.2926
0.0422799
-0.04429
-1.44402
1.44603
0.0455776
-0.0454626
-1.6038
1.60369
0.0435882
-0.0405037
-1.49056
1.48747
0.0366846
-0.0319365
-1.17607
1.17133
0.0273745
-0.0220417
-0.942069
0.936736
0.0168939
-0.0115319
-0.742294
0.736932
0.00687157
-0.00242223
-0.536913
0.532463
-0.000319161
0.00205621
-0.331788
0.330051
-0.0029658
0.00308454
-0.168957
0.168839
-0.00272868
0.00204574
-0.0652588
0.0659418
-0.00135857
0.000666872
-0.0133296
0.0140213
-0.000218623
0.0012244
-0.00100578
-0.0774603
0.077041
0.000419267
-0.000186566
-0.000466797
-0.436197
0.43685
0.00193601
-0.00410081
-0.620611
0.622775
0.00717192
-0.0102355
-0.76249
0.765554
0.0139629
-0.0173005
-0.887883
0.891221
0.0212239
-0.024917
-1.0135
1.01719
0.0290664
-0.0328818
-1.14978
1.1536
0.0367875
-0.0402925
-1.29599
1.29949
0.0436495
-0.0464006
-1.44832
1.45107
0.0481228
-0.0482992
-1.6035
1.60368
0.0471325
-0.044418
-1.48431
1.4816
0.0412175
-0.0370861
-1.16661
1.16248
0.0326689
-0.0276757
-0.931173
0.92618
0.0228162
-0.0174839
-0.730828
0.725495
0.0128969
-0.00813167