/*--------------------------------*- C++ -*----------------------------------*\
| =========                 |                                                 |
| \\      /  F ield         | OpenFOAM: The Open Source CFD Toolbox           |
|  \\    /   O peration     | Version:  2112                                  |
|   \\  /    A nd           | Website:  www.openfoam.com                      |
|    \\/     M anipulation  |                                                 |
\*---------------------------------------------------------------------------*/
FoamFile
{
    version     2.0;
    format      ascii;
    arch        "LSB;label=32;scalar=64";
    class       volScalarField;
    location    "4";
    object      T;
}
// * * * * * * * * * * * * * * * * * * * * * * * * * * * * * * * * * * * * * //

dimensions      [0 0 0 1 0 0 0];

internalField   nonuniform List<scalar> 
1000
(
5.37126e-50
6.42847e-50
8.74819e-50
1.27804e-49
1.93057e-49
2.95847e-49
4.55976e-49
7.0421e-49
1.0881e-48
1.68099e-48
2.59577e-48
4.00614e-48
6.17909e-48
9.52472e-48
1.46725e-47
2.25882e-47
3.4752e-47
5.34318e-47
8.20994e-47
1.26067e-46
1.93455e-46
2.96673e-46
4.54669e-46
6.96353e-46
1.06581e-45
1.63023e-45
2.49191e-45
3.80655e-45
5.81093e-45
8.8649e-45
1.3515e-44
2.05906e-44
3.13499e-44
4.76996e-44
7.25278e-44
1.10206e-43
1.67346e-43
2.53942e-43
3.85091e-43
5.83579e-43
8.8378e-43
1.3375e-42
2.0228e-42
3.05715e-42
4.61726e-42
6.96879e-42
1.05108e-41
1.58422e-41
2.38615e-41
3.59156e-41
5.40218e-41
8.12001e-41
1.21968e-40
1.83076e-40
2.74611e-40
4.11626e-40
6.16574e-40
9.22922e-40
1.38051e-39
2.06354e-39
3.08234e-39
4.6009e-39
6.86275e-39
1.02293e-38
1.52367e-38
2.2679e-38
3.37326e-38
5.01379e-38
7.44686e-38
1.10527e-37
1.63929e-37
2.42956e-37
3.59823e-37
5.32522e-37
7.87539e-37
1.16384e-36
1.71869e-36
2.53622e-36
3.73991e-36
5.51083e-36
8.1144e-36
1.19393e-35
1.75541e-35
2.57906e-35
3.78638e-35
5.55477e-35
8.14303e-35
1.19285e-34
1.74606e-34
2.55394e-34
3.73283e-34
5.45182e-34
7.95644e-34
1.1603e-33
1.69081e-33
2.46202e-33
3.58229e-33
5.20836e-33
7.56679e-33
1.09848e-32
1.59346e-32
2.30973e-32
3.34539e-32
4.84172e-32
7.00196e-32
1.01182e-31
1.46102e-31
2.108e-31
3.03914e-31
4.37817e-31
6.30226e-31
9.06489e-31
1.30284e-30
1.87102e-30
2.68488e-30
3.84973e-30
5.51562e-30
7.89617e-30
1.12952e-29
1.61447e-29
2.30579e-29
3.29053e-29
4.69208e-29
6.68525e-29
9.51751e-29
1.35388e-28
1.92437e-28
2.73306e-28
3.87844e-28
5.49941e-28
7.79153e-28
1.103e-27
1.5602e-27
2.20509e-27
3.11401e-27
4.39399e-27
6.19501e-27
8.72707e-27
1.22839e-26
1.72762e-26
2.42774e-26
3.40875e-26
4.78221e-26
6.7035e-26
9.38885e-26
1.3139e-25
1.83716e-25
2.56667e-25
3.58285e-25
4.99714e-25
6.96384e-25
9.69638e-25
1.34897e-24
1.87512e-24
2.60427e-24
3.61388e-24
5.01062e-24
6.94126e-24
9.60756e-24
1.32867e-23
1.83589e-23
2.53456e-23
3.4961e-23
4.81827e-23
6.6347e-23
9.128e-23
1.25474e-22
1.72326e-22
2.36467e-22
3.24198e-22
4.4409e-22
6.07785e-22
8.31088e-22
1.13543e-21
1.54986e-21
2.11369e-21
2.88008e-21
3.92086e-21
5.33301e-21
7.24732e-21
9.83998e-21
1.33482e-20
1.8091e-20
2.4497e-20
3.31415e-20
4.4796e-20
6.04945e-20
8.16204e-20
1.10024e-19
1.48178e-19
1.99382e-19
2.68034e-19
3.59997e-19
4.8307e-19
6.47625e-19
8.67439e-19
1.16079e-18
1.55192e-18
2.07293e-18
2.7663e-18
3.68816e-18
4.91267e-18
6.53766e-18
8.69205e-18
1.15456e-17
1.53217e-17
2.03137e-17
2.69069e-17
3.56065e-17
4.70747e-17
6.21779e-17
8.20492e-17
1.08169e-16
1.42468e-16
1.87465e-16
2.46439e-16
3.23657e-16
4.24665e-16
5.56662e-16
7.2899e-16
9.5375e-16
1.24661e-15
1.62782e-15
2.12356e-15
2.7676e-15
3.60347e-15
4.68725e-15
6.09107e-15
7.90762e-15
1.02559e-14
1.32886e-14
1.72013e-14
2.22442e-14
2.87372e-14
3.70892e-14
4.78214e-14
6.15983e-14
7.92659e-14
1.019e-13
1.30868e-13
1.67903e-13
2.15206e-13
2.7556e-13
3.52489e-13
4.50444e-13
5.75045e-13
7.33378e-13
9.34368e-13
1.18924e-12
1.51212e-12
1.92073e-12
2.43728e-12
3.08962e-12
3.91261e-12
4.94978e-12
6.25554e-12
7.89771e-12
9.96082e-12
1.25501e-11
1.57962e-11
1.98616e-11
2.49477e-11
3.13041e-11
3.92397e-11
4.91363e-11
6.14656e-11
7.6809e-11
9.58835e-11
1.19571e-10
1.48955e-10
1.85369e-10
2.30444e-10
2.86181e-10
3.55029e-10
4.3998e-10
5.44689e-10
6.7361e-10
8.32173e-10
1.02698e-09
1.26606e-09
1.55916e-09
1.91808e-09
2.35714e-09
2.89365e-09
3.54851e-09
4.34696e-09
5.31943e-09
6.50254e-09
7.94034e-09
9.68574e-09
1.18022e-08
1.43658e-08
1.74676e-08
2.12164e-08
2.57421e-08
3.11998e-08
3.77739e-08
4.56842e-08
5.51916e-08
6.66058e-08
8.02938e-08
9.66905e-08
1.1631e-07
1.39758e-07
1.67753e-07
2.01137e-07
2.40902e-07
2.88216e-07
3.44448e-07
4.11203e-07
4.90361e-07
5.8412e-07
6.95047e-07
8.26135e-07
9.80874e-07
1.16332e-06
1.3782e-06
1.63097e-06
1.92799e-06
2.27659e-06
2.68528e-06
3.16384e-06
3.72359e-06
4.37755e-06
5.14069e-06
6.03021e-06
7.06584e-06
8.27018e-06
9.6691e-06
1.12922e-05
1.3173e-05
1.53502e-05
1.78674e-05
2.07743e-05
2.41274e-05
2.79905e-05
3.24361e-05
3.7546e-05
4.34126e-05
5.01401e-05
5.78457e-05
6.66611e-05
7.67345e-05
8.82316e-05
0.000101338
0.000116262
0.000133235
0.000152516
0.000174392
0.000199183
0.000227245
0.000258971
0.000294796
0.000335202
0.000380722
0.000431939
0.0004895
0.000554111
0.00062655
0.000707668
0.000798396
0.000899749
0.00101284
0.00113887
0.00127915
0.00143511
0.00160828
0.00180035
0.00201311
0.0022485
0.00250861
0.00279571
0.00311219
0.00346064
0.00384384
0.00426472
0.00472644
0.00523234
0.00578596
0.00639108
0.00705167
0.00777195
0.00855633
0.00940949
0.0103363
0.0113419
0.0124317
0.0136112
0.0148863
0.0162631
0.0177477
0.0193467
0.0210667
0.0229148
0.0248978
0.0270232
0.0292982
0.0317304
0.0343274
0.0370971
0.0400472
0.0431855
0.04652
0.0500586
0.053809
0.057779
0.0619763
0.0664083
0.0710825
0.0760058
0.0811851
0.0866269
0.0923375
0.0983227
0.104588
0.111138
0.117977
0.125109
0.132538
0.140266
0.148295
0.156626
0.16526
0.174197
0.183436
0.192975
0.202812
0.212943
0.223363
0.234069
0.245052
0.256308
0.267828
0.279603
0.291624
0.303881
0.316362
0.329056
0.34195
0.355031
0.368284
0.381696
0.39525
0.408931
0.422722
0.436608
0.45057
0.464591
0.478654
0.492741
0.506833
0.520912
0.534961
0.548962
0.562895
0.576744
0.590491
0.604119
0.617611
0.63095
0.644121
0.657107
0.669894
0.682467
0.694812
0.706917
0.718768
0.730354
0.741663
0.752686
0.763412
0.773831
0.783937
0.79372
0.803175
0.812294
0.821072
0.829504
0.837585
0.845312
0.85268
0.859688
0.866333
0.872612
0.878525
0.884069
0.889245
0.894051
0.898486
0.902551
0.906246
0.909571
0.912525
0.915109
0.917323
0.919168
0.920643
0.921749
0.922487
0.922856
0.922856
0.922487
0.921749
0.920643
0.919168
0.917323
0.915109
0.912525
0.909571
0.906246
0.902551
0.898486
0.894051
0.889245
0.884069
0.878525
0.872612
0.866333
0.859688
0.85268
0.845312
0.837585
0.829504
0.821072
0.812294
0.803175
0.79372
0.783937
0.773831
0.763412
0.752686
0.741663
0.730354
0.718768
0.706917
0.694812
0.682467
0.669894
0.657107
0.644121
0.63095
0.617611
0.604119
0.590491
0.576744
0.562895
0.548962
0.534961
0.520912
0.506833
0.492741
0.478654
0.464591
0.45057
0.436608
0.422722
0.408931
0.39525
0.381696
0.368284
0.355031
0.34195
0.329056
0.316362
0.303881
0.291624
0.279603
0.267828
0.256308
0.245052
0.234069
0.223363
0.212943
0.202812
0.192975
0.183436
0.174197
0.16526
0.156626
0.148295
0.140266
0.132538
0.125109
0.117977
0.111138
0.104588
0.0983227
0.0923375
0.0866269
0.0811851
0.0760058
0.0710825
0.0664083
0.0619763
0.057779
0.053809
0.0500586
0.04652
0.0431855
0.0400472
0.0370971
0.0343274
0.0317304
0.0292982
0.0270232
0.0248978
0.0229148
0.0210667
0.0193467
0.0177477
0.0162631
0.0148863
0.0136112
0.0124317
0.0113419
0.0103363
0.00940949
0.00855633
0.00777195
0.00705167
0.00639108
0.00578596
0.00523234
0.00472644
0.00426472
0.00384384
0.00346064
0.00311219
0.00279571
0.00250861
0.0022485
0.00201311
0.00180035
0.00160828
0.00143511
0.00127915
0.00113887
0.00101284
0.000899749
0.000798396
0.000707668
0.00062655
0.000554111
0.0004895
0.000431939
0.000380722
0.000335202
0.000294796
0.000258971
0.000227245
0.000199183
0.000174392
0.000152516
0.000133235
0.000116262
0.000101338
8.82316e-05
7.67345e-05
6.66611e-05
5.78457e-05
5.01401e-05
4.34126e-05
3.7546e-05
3.24361e-05
2.79905e-05
2.41274e-05
2.07743e-05
1.78674e-05
1.53502e-05
1.3173e-05
1.12922e-05
9.6691e-06
8.27018e-06
7.06584e-06
6.03021e-06
5.14069e-06
4.37755e-06
3.72359e-06
3.16384e-06
2.68528e-06
2.27659e-06
1.92799e-06
1.63097e-06
1.3782e-06
1.16332e-06
9.80874e-07
8.26135e-07
6.95047e-07
5.8412e-07
4.90361e-07
4.11203e-07
3.44448e-07
2.88216e-07
2.40902e-07
2.01137e-07
1.67753e-07
1.39758e-07
1.1631e-07
9.66905e-08
8.02938e-08
6.66058e-08
5.51916e-08
4.56842e-08
3.77739e-08
3.11998e-08
2.57421e-08
2.12164e-08
1.74676e-08
1.43658e-08
1.18022e-08
9.68574e-09
7.94034e-09
6.50254e-09
5.31943e-09
4.34696e-09
3.54851e-09
2.89365e-09
2.35714e-09
1.91808e-09
1.55916e-09
1.26606e-09
1.02698e-09
8.32173e-10
6.7361e-10
5.44689e-10
4.3998e-10
3.55029e-10
2.86181e-10
2.30444e-10
1.85369e-10
1.48955e-10
1.19571e-10
9.58835e-11
7.6809e-11
6.14656e-11
4.91363e-11
3.92397e-11
3.13041e-11
2.49477e-11
1.98616e-11
1.57962e-11
1.25501e-11
9.96082e-12
7.89771e-12
6.25554e-12
4.94978e-12
3.91261e-12
3.08962e-12
2.43728e-12
1.92073e-12
1.51212e-12
1.18924e-12
9.34368e-13
7.33378e-13
5.75045e-13
4.50444e-13
3.52489e-13
2.7556e-13
2.15206e-13
1.67903e-13
1.30868e-13
1.019e-13
7.92659e-14
6.15983e-14
4.78214e-14
3.70892e-14
2.87372e-14
2.22442e-14
1.72013e-14
1.32886e-14
1.02559e-14
7.90762e-15
6.09107e-15
4.68725e-15
3.60347e-15
2.7676e-15
2.12356e-15
1.62782e-15
1.24661e-15
9.5375e-16
7.2899e-16
5.56662e-16
4.24665e-16
3.23657e-16
2.46439e-16
1.87465e-16
1.42468e-16
1.08169e-16
8.20492e-17
6.21779e-17
4.70747e-17
3.56065e-17
2.69069e-17
2.03137e-17
1.53217e-17
1.15456e-17
8.69205e-18
6.53766e-18
4.91267e-18
3.68816e-18
2.7663e-18
2.07293e-18
1.55192e-18
1.16079e-18
8.67439e-19
6.47625e-19
4.8307e-19
3.59997e-19
2.68034e-19
1.99382e-19
1.48178e-19
1.10024e-19
8.16204e-20
6.04945e-20
4.4796e-20
3.31415e-20
2.4497e-20
1.8091e-20
1.33482e-20
9.83998e-21
7.24732e-21
5.33301e-21
3.92086e-21
2.88008e-21
2.11369e-21
1.54986e-21
1.13543e-21
8.31088e-22
6.07785e-22
4.4409e-22
3.24198e-22
2.36467e-22
1.72326e-22
1.25474e-22
9.128e-23
6.6347e-23
4.81827e-23
3.4961e-23
2.53456e-23
1.83589e-23
1.32867e-23
9.60756e-24
6.94126e-24
5.01062e-24
3.61388e-24
2.60427e-24
1.87512e-24
1.34897e-24
9.69638e-25
6.96384e-25
4.99714e-25
3.58285e-25
2.56667e-25
1.83716e-25
1.3139e-25
9.38885e-26
6.7035e-26
4.78221e-26
3.40875e-26
2.42774e-26
1.72762e-26
1.22839e-26
8.72707e-27
6.19501e-27
4.39399e-27
3.11401e-27
2.20509e-27
1.5602e-27
1.103e-27
7.79153e-28
5.49941e-28
3.87844e-28
2.73306e-28
1.92437e-28
1.35388e-28
9.51751e-29
6.68525e-29
4.69208e-29
3.29053e-29
2.30579e-29
1.61447e-29
1.12952e-29
7.89617e-30
5.51562e-30
3.84973e-30
2.68488e-30
1.87102e-30
1.30284e-30
9.06489e-31
6.30226e-31
4.37817e-31
3.03914e-31
2.108e-31
1.46102e-31
1.01182e-31
7.00196e-32
4.84172e-32
3.34539e-32
2.30973e-32
1.59346e-32
1.09848e-32
7.56679e-33
5.20836e-33
3.58229e-33
2.46202e-33
1.69081e-33
1.1603e-33
7.95644e-34
5.45182e-34
3.73283e-34
2.55394e-34
1.74606e-34
1.19285e-34
8.14303e-35
5.55477e-35
3.78638e-35
2.57906e-35
1.75541e-35
1.19393e-35
8.1144e-36
5.51083e-36
3.73991e-36
2.53622e-36
1.71869e-36
1.16384e-36
7.87539e-37
5.32522e-37
3.59823e-37
2.42956e-37
1.63929e-37
1.10527e-37
7.44686e-38
5.01379e-38
3.37326e-38
2.2679e-38
1.52367e-38
1.02293e-38
6.86275e-39
4.6009e-39
3.08234e-39
2.06354e-39
1.38051e-39
9.22922e-40
6.16574e-40
4.11626e-40
2.74611e-40
1.83076e-40
1.21968e-40
8.12001e-41
5.40218e-41
3.59156e-41
2.38615e-41
1.58422e-41
1.05108e-41
6.96879e-42
4.61726e-42
3.05715e-42
2.0228e-42
1.3375e-42
8.8378e-43
5.83579e-43
3.85091e-43
2.53942e-43
1.67346e-43
1.10206e-43
7.25278e-44
4.76996e-44
3.13499e-44
2.05906e-44
1.3515e-44
8.8649e-45
5.81093e-45
3.80655e-45
2.49191e-45
1.63023e-45
1.06581e-45
6.96353e-46
4.54669e-46
2.96673e-46
1.93455e-46
1.26067e-46
8.20994e-47
5.34318e-47
3.4752e-47
2.25882e-47
1.46725e-47
9.52472e-48
6.17909e-48
4.00614e-48
2.59577e-48
1.68099e-48
1.0881e-48
7.0421e-49
4.55976e-49
2.95847e-49
1.93057e-49
1.27804e-49
8.74819e-50
6.42847e-50
5.37126e-50
)
;

boundaryField
{
    sides
    {
        type            zeroGradient;
    }
    empty
    {
        type            empty;
    }
}


// ************************************************************************* //
