/*--------------------------------*- C++ -*----------------------------------*\
| =========                 |                                                 |
| \\      /  F ield         | OpenFOAM: The Open Source CFD Toolbox           |
|  \\    /   O peration     | Version:  2112                                  |
|   \\  /    A nd           | Website:  www.openfoam.com                      |
|    \\/     M anipulation  |                                                 |
\*---------------------------------------------------------------------------*/
FoamFile
{
    version     2.0;
    format      ascii;
    arch        "LSB;label=32;scalar=64";
    class       volScalarField;
    location    "69.5";
    object      p;
}
// * * * * * * * * * * * * * * * * * * * * * * * * * * * * * * * * * * * * * //

dimensions      [0 2 -2 0 0 0 0];

internalField   nonuniform List<scalar> 
8800
(
0.881143
0.833357
0.794671
0.76568
0.744823
0.730002
0.719421
0.711962
0.707173
0.705158
0.706472
0.7107
0.717374
0.726711
0.739506
0.75725
0.782034
0.815979
0.858533
0.917235
0.712385
0.720064
0.727545
0.730856
0.729358
0.724288
0.717814
0.711755
0.707059
0.704254
0.704021
0.706572
0.711095
0.717067
0.723854
0.730146
0.733795
0.733063
0.727649
0.718964
0.690778
0.696939
0.701069
0.704019
0.706076
0.706692
0.705601
0.70352
0.701539
0.700678
0.701691
0.704116
0.706947
0.709151
0.709775
0.708588
0.706255
0.702868
0.698312
0.694552
0.684951
0.687603
0.690359
0.692768
0.694411
0.695585
0.696344
0.696488
0.696231
0.696233
0.697042
0.698259
0.699135
0.699226
0.698636
0.697559
0.695753
0.69319
0.690791
0.689287
0.679548
0.680974
0.682757
0.684796
0.686589
0.687945
0.688954
0.689782
0.69044
0.691063
0.691778
0.692328
0.692469
0.692212
0.691537
0.690305
0.688622
0.686783
0.685481
0.684649
0.674442
0.675363
0.676609
0.678183
0.679827
0.681368
0.682676
0.683778
0.684792
0.685753
0.686518
0.686909
0.686915
0.686512
0.685658
0.684478
0.683167
0.681918
0.6811
0.680549
0.669499
0.670169
0.671136
0.672447
0.673869
0.675345
0.676811
0.678173
0.679429
0.680616
0.681525
0.681967
0.68194
0.681475
0.680702
0.67978
0.678787
0.677877
0.677297
0.67689
0.66467
0.665187
0.665976
0.667116
0.668408
0.669802
0.671279
0.672796
0.67429
0.675718
0.676828
0.677387
0.677431
0.677099
0.676537
0.675842
0.675093
0.674425
0.673997
0.673679
0.659883
0.660294
0.660956
0.661973
0.663195
0.664546
0.666026
0.667634
0.669331
0.671035
0.672402
0.673165
0.673413
0.673308
0.672974
0.672496
0.671956
0.671483
0.671166
0.670907
0.655051
0.655385
0.655958
0.656898
0.658073
0.659413
0.660933
0.662646
0.66454
0.666545
0.668246
0.669317
0.669853
0.670011
0.669915
0.669667
0.669326
0.669015
0.668784
0.668566
0.650083
0.65036
0.650872
0.651767
0.652927
0.654295
0.655894
0.657754
0.659887
0.662243
0.664362
0.66583
0.666712
0.667171
0.667336
0.667322
0.66718
0.667013
0.66685
0.666661
0.644888
0.645121
0.645594
0.646475
0.64766
0.649099
0.65082
0.652882
0.655321
0.658111
0.660743
0.662687
0.663974
0.66478
0.665239
0.665465
0.665528
0.665494
0.665387
0.665218
0.639373
0.639571
0.640025
0.640921
0.642172
0.643728
0.645626
0.647959
0.650786
0.654118
0.657371
0.659881
0.661644
0.662846
0.663636
0.664124
0.664406
0.664499
0.664439
0.664283
0.633434
0.633603
0.634055
0.634995
0.636354
0.638078
0.640221
0.642903
0.646221
0.650223
0.654228
0.657415
0.659739
0.661399
0.662568
0.66337
0.663872
0.664087
0.664068
0.66392
0.626949
0.627093
0.627559
0.628573
0.630085
0.632036
0.634501
0.63763
0.641565
0.646387
0.651301
0.655297
0.658287
0.660487
0.662089
0.663238
0.663991
0.664333
0.664351
0.664206
0.619775
0.619895
0.620388
0.621507
0.623225
0.625474
0.62835
0.632045
0.636744
0.642568
0.64858
0.65354
0.657317
0.660155
0.662268
0.663813
0.66485
0.665324
0.665377
0.665231
0.611723
0.611831
0.612365
0.613623
0.615602
0.618227
0.621628
0.626034
0.631678
0.638724
0.646055
0.652163
0.656869
0.660456
0.663184
0.665197
0.666549
0.667161
0.667245
0.667094
0.602569
0.602668
0.60326
0.604681
0.606994
0.610108
0.614173
0.619467
0.626279
0.634814
0.643726
0.651195
0.656997
0.661465
0.664919
0.667477
0.669186
0.669945
0.670057
0.669898
0.591988
0.592068
0.592749
0.594396
0.597147
0.600885
0.605786
0.612194
0.620452
0.630798
0.641599
0.65067
0.65776
0.663266
0.667546
0.670755
0.672864
0.673774
0.673909
0.673738
0.579601
0.579667
0.580448
0.582406
0.585715
0.590254
0.596225
0.604042
0.614098
0.626645
0.63969
0.650633
0.659212
0.665926
0.671174
0.675126
0.677668
0.678728
0.678879
0.678692
0.564838
0.564893
0.565818
0.568193
0.572243
0.577835
0.585197
0.594818
0.607122
0.622337
0.638025
0.651134
0.661415
0.669507
0.675875
0.680658
0.683656
0.684851
0.685008
0.684802
0.546922
0.546966
0.548105
0.551067
0.556132
0.563147
0.572363
0.584329
0.599455
0.617894
0.63666
0.652233
0.664434
0.674077
0.681671
0.68738
0.690828
0.692131
0.692277
0.69205
0.524674
0.524716
0.526205
0.530053
0.53658
0.545598
0.557356
0.572415
0.591092
0.613391
0.635688
0.654002
0.668316
0.679667
0.688595
0.695264
0.699113
0.70047
0.700585
0.700339
0.49632
0.496382
0.498468
0.503747
0.512552
0.524514
0.539855
0.559024
0.582135
0.608986
0.635247
0.656536
0.673104
0.686266
0.696618
0.704199
0.708337
0.709666
0.709729
0.709465
0.458782
0.458949
0.46226
0.47018
0.482828
0.499298
0.519749
0.544315
0.572847
0.604935
0.635522
0.659934
0.678837
0.693846
0.70563
0.713971
0.718205
0.719402
0.719393
0.719118
0.406161
0.407166
0.413757
0.427116
0.446447
0.469899
0.497401
0.528786
0.563702
0.601591
0.636721
0.664298
0.685525
0.702328
0.715415
0.724242
0.72831
0.729273
0.729186
0.728911
0.329413
0.336832
0.352089
0.375651
0.404937
0.437735
0.473854
0.513084
0.555067
0.59922
0.639181
0.670109
0.693809
0.712525
0.726802
0.735868
0.739606
0.740326
0.740189
0.73995
0.246968
0.264498
0.289214
0.323597
0.363239
0.405513
0.450289
0.49752
0.546915
0.59794
0.643538
0.678494
0.705098
0.72598
0.741518
0.750326
0.753322
0.753752
0.753644
0.753481
0.178217
0.198871
0.23139
0.274966
0.323734
0.374925
0.428094
0.483167
0.53982
0.597494
0.648415
0.687078
0.71625
0.738841
0.754777
0.762953
0.765431
0.765801
0.765751
0.765627
0.121907
0.144232
0.18232
0.23239
0.288369
0.347067
0.407662
0.469931
0.5334
0.597398
0.653355
0.695472
0.726937
0.750842
0.767163
0.775076
0.777326
0.777668
0.777654
0.77756
0.0750634
0.0985706
0.140476
0.195698
0.257472
0.32237
0.38934
0.458008
0.527728
0.597659
0.658412
0.703807
0.737473
0.762779
0.779627
0.787386
0.789602
0.789958
0.789974
0.789904
0.0354095
0.0595666
0.104362
0.163652
0.230301
0.300479
0.372997
0.447369
0.522802
0.598289
0.66363
0.71223
0.748089
0.774783
0.792237
0.80031
0.802548
0.802867
0.802894
0.802842
0.000897408
0.0254661
0.0725303
0.135186
0.205959
0.280736
0.358181
0.437712
0.518428
0.599164
0.668919
0.720649
0.758676
0.786789
0.805103
0.813535
0.815871
0.816199
0.81623
0.816197
-0.0299903
-0.005069
0.0438417
0.109366
0.183704
0.26252
0.344397
0.428658
0.514306
0.600036
0.674066
0.728874
0.769081
0.798631
0.817763
0.826651
0.829174
0.82951
0.829537
0.829517
-0.0582448
-0.0330146
0.0174705
0.0854802
0.162949
0.245359
0.331235
0.419844
0.510125
0.600653
0.678866
0.736706
0.779022
0.81001
0.829948
0.839255
0.841986
0.842376
0.842385
0.842371
-0.0846889
-0.0591086
-0.00721143
0.0629754
0.143246
0.228868
0.318368
0.410993
0.505651
0.600815
0.683146
0.743977
0.788364
0.820714
0.841411
0.851126
0.85402
0.854436
0.854418
0.854397
-0.109714
-0.0837856
-0.0305601
0.0414763
0.124261
0.212771
0.305566
0.401909
0.500698
0.600358
0.686779
0.750599
0.797013
0.83064
0.851992
0.861987
0.865005
0.865432
0.865397
0.865355
-0.13378
-0.107429
-0.0531986
0.0207421
0.10576
0.196869
0.292667
0.392439
0.495122
0.599151
0.68968
0.756539
0.804965
0.839765
0.861606
0.871786
0.87484
0.875248
0.875171
0.875117
-0.157026
-0.130196
-0.0750209
0.00058699
0.0875955
0.18104
0.279557
0.382488
0.488833
0.597108
0.691785
0.761783
0.812257
0.84813
0.870314
0.880519
0.883527
0.883914
0.883803
0.883734
-0.179609
-0.152368
-0.0961567
-0.019108
0.069689
0.16522
0.266185
0.372001
0.48177
0.594148
0.693025
0.766344
0.818989
0.855912
0.878267
0.8883
0.891199
0.891526
0.891397
0.891311
-0.201663
-0.173931
-0.116739
-0.0383936
0.0519928
0.149385
0.252542
0.36097
0.473901
0.590211
0.693341
0.77022
0.825278
0.863279
0.885631
0.895306
0.897961
0.8982
0.898045
0.897949
-0.223255
-0.194925
-0.136848
-0.0572837
0.0345181
0.133542
0.238648
0.349412
0.46523
0.585252
0.692661
0.773393
0.831221
0.87046
0.892649
0.901684
0.903922
0.90403
0.903851
0.903749
-0.24424
-0.215346
-0.156416
-0.0757706
0.0172779
0.117739
0.224544
0.33738
0.455792
0.579268
0.690905
0.775803
0.836866
0.877694
0.899674
0.907703
0.909215
0.909098
0.908911
0.908816
-0.264608
-0.235171
-0.17544
-0.0938186
0.00031415
0.10202
0.210307
0.324936
0.445645
0.572264
0.688004
0.777333
0.842186
0.885183
0.907196
0.913922
0.914166
0.913532
0.913347
0.913313
-0.284429
-0.254377
-0.193914
-0.111408
-0.0163199
0.0864574
0.19601
0.312169
0.434864
0.564285
0.683891
0.777825
0.84704
0.892969
0.915734
0.921313
0.919637
0.917746
0.917384
0.917694
-0.30355
-0.272951
-0.211787
-0.128492
-0.0325739
0.0711262
0.181739
0.299181
0.423554
0.555408
0.678529
0.777081
0.851164
0.900803
0.925483
0.93108
0.927719
0.923464
0.92161
0.921673
-0.322062
-0.290891
-0.229082
-0.145107
-0.0484837
0.0559825
0.167441
0.285916
0.41165
0.545563
0.671783
0.774822
0.854276
0.908259
0.936035
0.943746
0.940798
0.93352
0.926116
0.912738
-0.339901
-0.308183
-0.245914
-0.16145
-0.0643271
0.0407067
0.152716
0.271917
0.398648
0.534155
0.663058
0.770341
0.855925
0.914815
0.946018
0.957683
0.955547
0.941781
0.920866
0.91076
-0.356902
-0.324987
-0.262101
-0.177333
-0.0797502
0.0256355
0.13778
0.257493
0.384832
0.521407
0.652353
0.763069
0.855133
0.919227
0.951396
0.963148
0.962509
0.937056
0.869957
0.840097
-0.372408
-0.342578
-0.27734
-0.192282
-0.0939507
0.0112702
0.122952
0.242872
0.370415
0.507429
0.639563
0.752612
0.850276
0.920648
0.946724
0.953423
0.937904
0.881203
0.811789
0.769319
-0.426965
-0.358076
-0.291104
-0.207428
-0.108601
-0.00388803
0.108158
0.22776
0.355007
0.491731
0.624019
0.738185
0.837229
0.91464
0.915093
0.913334
0.857922
0.784311
0.706504
0.663223
-0.388668
-0.372749
-0.311632
-0.226849
-0.130285
-0.0256015
0.0854202
0.204417
0.330763
0.466258
0.596954
0.71002
0.802266
0.885608
0.867096
0.747171
0.637929
0.561977
0.48707
0.515694
-0.418834
-0.389848
-0.327862
-0.24393
-0.147414
-0.0428485
0.0684608
0.186838
0.312152
0.445919
0.573945
0.682867
0.765291
0.80946
0.756864
0.601863
0.470184
0.376204
0.276145
0.324393
-0.442055
-0.410155
-0.347067
-0.263014
-0.166383
-0.0619288
0.0493006
0.16685
0.290778
0.422172
0.546507
0.649139
0.722421
0.731548
0.620083
0.443044
0.287145
0.165919
0.0333895
0.0652377
-0.464716
-0.431346
-0.367147
-0.282201
-0.185503
-0.0812138
0.0294792
0.14606
0.268393
0.397
0.516621
0.611136
0.668637
0.645905
0.482525
0.282777
0.0900792
-0.0795707
-0.269007
-0.2888
-0.486777
-0.452999
-0.387958
-0.302267
-0.205456
-0.101409
0.0086124
0.124088
0.244548
0.369934
0.484058
0.57025
0.607766
0.547712
0.351413
0.137956
-0.0811739
-0.271653
-0.514146
-0.810041
-0.509128
-0.475369
-0.409832
-0.323694
-0.226729
-0.12288
-0.0134659
0.100857
0.219315
0.341175
0.449413
0.527
0.542483
0.430664
0.23715
0.0245043
-0.181652
-0.355179
-0.42567
-0.504029
-0.532711
-0.498916
-0.433115
-0.346793
-0.249812
-0.146261
-0.0375554
0.0754306
0.191549
0.309317
0.411213
0.477416
0.46734
0.321686
0.135406
-0.0581854
-0.223088
-0.317312
-0.341698
-0.3575
-0.55783
-0.523934
-0.457976
-0.371639
-0.274835
-0.171761
-0.0640133
0.047321
0.160663
0.273662
0.368712
0.420197
0.392118
0.220358
0.0430927
-0.12534
-0.253785
-0.293492
-0.306322
-0.307629
-0.584684
-0.550595
-0.484481
-0.398227
-0.301747
-0.199387
-0.0928596
0.0164774
0.126591
0.234222
0.321466
0.358293
0.309613
0.12679
-0.0413833
-0.192303
-0.269778
-0.286814
-0.288182
-0.287997
-0.613331
-0.578963
-0.512657
-0.426558
-0.330568
-0.229128
-0.1241
-0.0171158
0.089344
0.191079
0.269584
0.29424
0.209062
0.0414179
-0.118359
-0.24287
-0.280051
-0.278347
-0.277399
-0.2768
-0.64349
-0.608865
-0.542406
-0.45655
-0.361213
-0.260933
-0.157705
-0.0534319
0.0489636
0.144345
0.213987
0.221551
0.117863
-0.0376733
-0.179099
-0.25695
-0.267208
-0.2697
-0.270323
-0.270035
-0.674615
-0.639847
-0.573472
-0.48798
-0.393502
-0.294651
-0.193526
-0.0923391
0.00563676
0.0943784
0.155157
0.147486
0.0362762
-0.104567
-0.223461
-0.255317
-0.264113
-0.265571
-0.265314
-0.265005
-0.706245
-0.671375
-0.605405
-0.520459
-0.427095
-0.329965
-0.231287
-0.133551
-0.0403462
0.0418884
0.0922532
0.0773368
-0.0383881
-0.158556
-0.253308
-0.271097
-0.262409
-0.261499
-0.26145
-0.261208
-0.737485
-0.702743
-0.637361
-0.553392
-0.461458
-0.36641
-0.270545
-0.176592
-0.0885068
-0.0124702
0.0280693
0.0131549
-0.103364
-0.198952
-0.255548
-0.264803
-0.261387
-0.260028
-0.259419
-0.259165
-0.766812
-0.732782
-0.66837
-0.585869
-0.495839
-0.403297
-0.310655
-0.220784
-0.138045
-0.0681172
-0.0311218
-0.0574941
-0.155543
-0.234356
-0.239505
-0.257125
-0.260953
-0.259257
-0.258654
-0.258239
-0.792614
-0.759648
-0.697318
-0.616735
-0.529215
-0.439709
-0.350768
-0.265285
-0.187847
-0.124132
-0.087073
-0.125335
-0.201207
-0.25018
-0.27059
-0.266205
-0.265049
-0.264725
-0.264438
-0.263991
-0.812785
-0.781551
-0.722095
-0.644596
-0.560318
-0.47453
-0.389816
-0.309088
-0.236797
-0.179189
-0.144478
-0.180366
-0.23972
-0.289619
-0.308676
-0.291071
-0.281014
-0.278997
-0.277572
-0.276814
-0.825121
-0.796588
-0.740926
-0.667555
-0.587678
-0.506466
-0.426629
-0.351011
-0.283842
-0.23168
-0.199355
-0.225766
-0.26612
-0.322202
-0.305678
-0.293396
-0.28858
-0.285836
-0.28428
-0.284096
-0.827027
-0.802526
-0.751821
-0.683853
-0.609622
-0.534123
-0.459911
-0.389833
-0.327852
-0.280235
-0.244516
-0.260261
-0.266807
-0.310471
-0.294433
-0.282093
-0.276057
-0.274069
-0.273957
-0.27375
-0.816264
-0.796559
-0.752625
-0.691921
-0.624711
-0.556053
-0.488365
-0.424298
-0.367638
-0.323852
-0.281576
-0.271862
-0.232372
-0.224944
-0.234741
-0.249059
-0.260446
-0.265128
-0.266851
-0.266907
-0.790962
-0.776192
-0.741563
-0.690524
-0.631959
-0.571285
-0.510851
-0.453162
-0.402025
-0.362169
-0.314194
-0.283806
-0.209509
-0.115609
-0.155731
-0.229185
-0.264627
-0.278737
-0.2833
-0.284936
-0.753691
-0.74419
-0.71949
-0.679814
-0.63135
-0.579549
-0.52673
-0.475425
-0.429693
-0.394439
-0.363655
-0.336529
-0.31862
-0.314713
-0.356176
-0.357781
-0.352235
-0.347545
-0.346962
-0.347902
-0.711141
-0.705749
-0.69122
-0.662592
-0.624778
-0.581603
-0.536051
-0.490584
-0.448944
-0.418193
-0.395221
-0.417941
-0.518647
-0.695935
-0.705694
-0.575714
-0.461554
-0.409679
-0.39803
-0.395101
-0.673
-0.669739
-0.662855
-0.644197
-0.615109
-0.579202
-0.539774
-0.498463
-0.458793
-0.426904
-0.406407
-0.410502
-0.406941
-0.376951
-0.2781
-0.225183
-0.258036
-0.301778
-0.31337
-0.313488
-0.645611
-0.643606
-0.64009
-0.628762
-0.606095
-0.575279
-0.539559
-0.500071
-0.45895
-0.419398
-0.396782
-0.347871
-0.290137
-0.240356
-0.291712
-0.420199
-0.533221
-0.532998
-0.452664
-0.435175
-0.624736
-0.623976
-0.622809
-0.617245
-0.600287
-0.572581
-0.537679
-0.49759
-0.453073
-0.407584
-0.374705
-0.340624
-0.29185
-0.289767
-0.324638
-0.384692
-0.471438
-0.502393
-0.454623
-0.42771
-0.612665
-0.612387
-0.611805
-0.609338
-0.597467
-0.571224
-0.535274
-0.492581
-0.444259
-0.389419
-0.343486
-0.308827
-0.237417
-0.181921
-0.164886
-0.194192
-0.233423
-0.225306
-0.183534
-0.157905
-0.604382
-0.604306
-0.604011
-0.60342
-0.596082
-0.571506
-0.533621
-0.487308
-0.432553
-0.366121
-0.299703
-0.221459
-0.116913
-0.0154127
0.0416345
0.0844536
0.173467
0.312016
0.429
0.48172
-0.598049
-0.598104
-0.598136
-0.598582
-0.59378
-0.5727
-0.533655
-0.482979
-0.420277
-0.346
-0.25355
-0.153961
0.0392004
0.289269
0.555285
0.793592
1.0158
1.19782
1.30846
1.34826
-0.592795
-0.592649
-0.592069
-0.590763
-0.58917
-0.574735
-0.535913
-0.48029
-0.412232
-0.326999
-0.222576
-0.120448
0.0977165
0.414051
0.793454
1.15887
1.45632
1.6462
1.73481
1.75867
-0.590987
-0.591189
-0.591493
-0.591146
-0.590728
-0.581489
-0.540931
-0.482221
-0.410462
-0.319449
-0.213401
-0.101774
0.0669769
0.39871
0.763605
1.09656
1.36252
1.52097
1.58815
1.60413
-0.591121
-0.592461
-0.596314
-0.604054
-0.611613
-0.59456
-0.548094
-0.490223
-0.41675
-0.323139
-0.220109
-0.115072
0.0119707
0.287074
0.591052
0.853635
1.05483
1.16752
1.21339
1.22314
-0.601936
-0.602969
-0.601476
-0.592804
-0.583186
-0.571875
-0.549568
-0.504327
-0.430316
-0.335645
-0.236761
-0.139903
-0.0455259
0.155474
0.388148
0.578876
0.720821
0.796511
0.825933
0.830054
-0.643571
-0.641965
-0.625585
-0.575696
-0.521706
-0.525231
-0.556935
-0.528208
-0.450564
-0.351878
-0.25653
-0.173343
-0.102336
0.042255
0.203898
0.335091
0.430201
0.478094
0.495608
0.498271
-0.710348
-0.708269
-0.711837
-0.709995
-0.700561
-0.68307
-0.665735
-0.579968
-0.476261
-0.368255
-0.276852
-0.202829
-0.144725
-0.0444697
0.062041
0.142775
0.195208
0.220442
0.229935
0.230485
-0.851111
-0.871235
-0.924437
-0.982388
-0.99564
-0.95349
-0.828073
-0.654124
-0.503361
-0.381044
-0.290595
-0.225974
-0.176173
-0.106058
-0.046497
-0.0053058
0.0163203
0.02608
0.0293599
0.0301354
-0.969577
-0.99657
-1.04735
-1.09039
-1.10088
-1.05055
-0.895342
-0.683164
-0.508368
-0.379923
-0.295567
-0.241753
-0.202913
-0.152869
-0.115984
-0.0969564
-0.0917891
-0.0919405
-0.0891085
-0.087629
-0.912674
-0.934785
-0.972073
-1.00591
-1.01372
-0.96303
-0.805533
-0.621965
-0.468356
-0.355466
-0.285941
-0.247623
-0.22229
-0.183082
-0.152793
-0.136365
-0.129872
-0.126723
-0.123943
-0.123123
-0.660743
-0.680665
-0.716593
-0.755451
-0.771074
-0.72871
-0.6132
-0.489743
-0.384649
-0.30688
-0.260749
-0.241967
-0.229782
-0.194536
-0.160724
-0.137605
-0.123729
-0.116189
-0.112691
-0.11267
-0.303741
-0.316758
-0.342903
-0.377152
-0.404199
-0.404169
-0.373566
-0.327879
-0.282604
-0.243232
-0.219973
-0.216139
-0.212841
-0.177718
-0.143913
-0.118469
-0.10115
-0.0917096
-0.0890203
-0.0898694
-0.00278354
-0.00966554
-0.0274112
-0.0581865
-0.0979294
-0.13532
-0.163046
-0.178372
-0.180512
-0.173219
-0.167454
-0.168047
-0.16406
-0.138158
-0.113373
-0.0946903
-0.0807694
-0.0735345
-0.0718951
-0.0729298
0.162456
0.158619
0.145883
0.11874
0.0751151
0.0210923
-0.029528
-0.0693345
-0.0950191
-0.107279
-0.109343
-0.106464
-0.098133
-0.0858569
-0.0758746
-0.0678264
-0.0610241
-0.0573653
-0.0568904
-0.0580027
0.215791
0.213237
0.203739
0.181826
0.144601
0.0962984
0.0453101
-8.20935e-05
-0.033531
-0.052161
-0.0555195
-0.0469835
-0.0370633
-0.0387851
-0.0422805
-0.0436495
-0.0432614
-0.0430022
-0.0435865
-0.0447794
0.210853
0.209193
0.202579
0.186816
0.159374
0.122425
0.0807571
0.0412104
0.00913054
-0.0100792
-0.0122086
-0.00220105
0.00638723
-0.00384468
-0.0166331
-0.0258691
-0.0315721
-0.0353884
-0.0373612
-0.0383109
0.183579
0.182616
0.178349
0.167838
0.149068
0.122916
0.0916947
0.0606749
0.0345541
0.0189157
0.0182473
0.0267237
0.0304365
0.016602
0.000220799
-0.0133151
-0.0235268
-0.0305519
-0.0333685
-0.0338978
0.150263
0.149826
0.147257
0.140598
0.128316
0.110623
0.0886493
0.0661075
0.0466569
0.0357445
0.0375954
0.0453152
0.0453185
0.0308308
0.0136237
-0.00112867
-0.012817
-0.0207691
-0.0234911
-0.0237205
0.11701
0.116814
0.115406
0.111407
0.10373
0.092279
0.077612
0.0623155
0.0491157
0.0429789
0.0481974
0.0579122
0.0580428
0.0423349
0.0257848
0.0125396
0.0026344
-0.00333993
-0.00527842
-0.00553565
0.0859473
0.085884
0.0851701
0.0829035
0.0783172
0.0712241
0.0619286
0.0521531
0.0440238
0.0416575
0.0491083
0.062181
0.0655352
0.0482377
0.0334108
0.0239424
0.0178264
0.014949
0.0138199
0.0133795
0.0570605
0.0571067
0.0568275
0.0557228
0.0532797
0.0492592
0.0438762
0.0381465
0.0335642
0.0330889
0.0394999
0.0499351
0.052102
0.0394236
0.0309682
0.0276223
0.0257467
0.0254959
0.0248633
0.0241913
0.0304198
0.030513
0.0304566
0.0301088
0.0289962
0.0271545
0.0245593
0.0216818
0.0195051
0.0194903
0.0214352
0.0198456
0.0181998
0.0163972
0.0166801
0.0194296
0.0222312
0.0227726
0.0220941
0.0212721
0.00553392
0.005601
0.0055759
0.00570069
0.00593321
0.00586315
0.00545743
0.00495114
0.00446632
0.00367665
0.00299904
2.19546e-05
-7.48222e-05
0.000730137
0.00380748
0.00440359
0.00304849
0.00296405
0.0035814
0.00378266
-0.0439867
0.121565
0.314459
0.482711
0.616562
0.721234
0.807368
0.880774
0.914461
0.891254
0.254595
0.374155
0.502625
0.61338
0.706408
0.783111
0.845167
0.889284
0.911371
0.923589
0.470623
0.552498
0.640258
0.717563
0.783928
0.839417
0.883571
0.915882
0.939331
0.957409
0.629578
0.688263
0.748935
0.805392
0.854383
0.896013
0.930252
0.957617
0.980247
0.998604
0.753715
0.796325
0.841835
0.885168
0.923479
0.956964
0.985661
1.00959
1.02987
1.04774
0.857223
0.889805
0.927615
0.962866
0.995252
1.02431
1.04973
1.07112
1.0889
1.10627
0.949268
0.977792
1.01156
1.04353
1.07333
1.10038
1.12404
1.1437
1.15916
1.17624
1.03755
1.06665
1.10054
1.13248
1.162
1.18851
1.21132
1.22977
1.24311
1.26014
1.13269
1.16583
1.2024
1.23592
1.26591
1.29205
1.31397
1.33122
1.34307
1.36047
1.24758
1.28536
1.32396
1.35817
1.38748
1.4122
1.43255
1.44843
1.45988
1.47795
1.39245
1.43097
1.46708
1.49775
1.52341
1.54548
1.56453
1.58004
1.59246
1.61046
1.56748
1.5991
1.62526
1.64769
1.66766
1.68637
1.70407
1.72055
1.73589
1.75395
1.75607
1.77327
1.7883
1.80452
1.82042
1.83494
1.84814
1.86207
1.8796
1.89976
1.93778
1.94731
1.95885
1.96966
1.97894
1.98852
1.9993
2.01066
2.02202
2.03737
2.145
2.14867
2.13372
2.11891
2.11263
2.1183
2.13678
2.16709
2.19926
2.22592
2.45133
2.31646
2.23982
2.19743
2.18
2.18397
2.21137
2.26778
2.3704
2.59476
0.771739
0.769612
0.765129
0.756508
0.744289
0.732167
0.721949
0.71407
0.708474
0.705251
0.704934
0.707708
0.71284
0.720082
0.729484
0.741033
0.75369
0.764729
0.770843
0.773899
0.696183
0.70203
0.708365
0.712862
0.715337
0.715021
0.712294
0.708501
0.705015
0.702787
0.70268
0.704915
0.708607
0.712917
0.716738
0.718631
0.717702
0.714226
0.709066
0.702445
0.687741
0.690038
0.693444
0.696444
0.698525
0.70003
0.700798
0.7005
0.6995
0.698653
0.698871
0.700339
0.702185
0.703514
0.70371
0.702832
0.701291
0.698961
0.695702
0.692784
0.682206
0.683292
0.685128
0.687511
0.689542
0.69098
0.692015
0.692787
0.693218
0.69348
0.69402
0.694872
0.695505
0.695598
0.695204
0.69437
0.69291
0.690834
0.688753
0.687372
0.676971
0.677634
0.678744
0.680455
0.682245
0.683889
0.685201
0.68624
0.687157
0.687993
0.688778
0.689382
0.689616
0.68948
0.688935
0.687897
0.686482
0.684948
0.683637
0.682859
0.671955
0.672415
0.673204
0.674508
0.676005
0.677536
0.67902
0.680345
0.68152
0.682628
0.683609
0.684238
0.684431
0.684194
0.683524
0.682555
0.681446
0.680325
0.679418
0.678902
0.667076
0.66742
0.668034
0.669109
0.670414
0.671804
0.673264
0.674741
0.676159
0.677501
0.678688
0.679452
0.679687
0.679456
0.67889
0.67814
0.67731
0.676458
0.675795
0.675418
0.662279
0.662546
0.663042
0.663959
0.665141
0.666455
0.667875
0.6694
0.670991
0.672583
0.674021
0.674977
0.675349
0.675283
0.674932
0.674406
0.673783
0.673163
0.672682
0.672395
0.657481
0.657693
0.658106
0.658913
0.660017
0.661286
0.6627
0.664276
0.666007
0.667846
0.669584
0.670817
0.67144
0.671626
0.671513
0.671214
0.670803
0.670379
0.670039
0.669815
0.652592
0.652762
0.653117
0.653852
0.654911
0.656162
0.657608
0.659274
0.661171
0.663276
0.665374
0.66698
0.66794
0.668424
0.668574
0.668513
0.668321
0.668074
0.667852
0.667674
0.647522
0.64766
0.647972
0.648664
0.649709
0.650987
0.652504
0.654304
0.656421
0.658851
0.661386
0.663456
0.664821
0.665653
0.666102
0.666297
0.666322
0.66625
0.666128
0.665985
0.64218
0.64229
0.642576
0.643248
0.644314
0.645665
0.647298
0.649285
0.65169
0.654531
0.657606
0.660233
0.662077
0.663312
0.664101
0.664575
0.664832
0.664933
0.664899
0.664782
0.636467
0.636554
0.636823
0.637502
0.638624
0.64009
0.641894
0.644138
0.646909
0.650268
0.654004
0.6573
0.659712
0.661415
0.662588
0.663391
0.663904
0.664172
0.664217
0.664121
0.630271
0.630337
0.6306
0.631307
0.632523
0.634152
0.636191
0.63877
0.64201
0.646012
0.650552
0.654654
0.65774
0.659995
0.661612
0.662783
0.663583
0.664031
0.664151
0.664072
0.62346
0.623506
0.62377
0.624528
0.625879
0.627727
0.630074
0.633081
0.636912
0.641707
0.647226
0.652294
0.656182
0.65909
0.66123
0.662816
0.663944
0.66459
0.664783
0.664717
0.61588
0.615904
0.61617
0.617003
0.618531
0.620663
0.623405
0.626957
0.631525
0.637294
0.643999
0.650225
0.655063
0.658739
0.661501
0.663583
0.665083
0.665942
0.666208
0.666152
0.607304
0.607317
0.607597
0.60853
0.610295
0.61277
0.61602
0.620259
0.625744
0.632709
0.640849
0.648456
0.65442
0.658999
0.662493
0.665173
0.667099
0.668189
0.668529
0.668479
0.597452
0.597436
0.597767
0.598843
0.600897
0.603834
0.607726
0.612827
0.619453
0.627887
0.637758
0.647006
0.654297
0.659942
0.664294
0.667668
0.670088
0.671433
0.671845
0.671798
0.586009
0.585969
0.586348
0.587618
0.590042
0.593572
0.598278
0.60447
0.612522
0.622761
0.634714
0.645901
0.654741
0.661633
0.666994
0.671164
0.674153
0.675766
0.676247
0.676197
0.572483
0.572415
0.572874
0.574398
0.577309
0.581609
0.587371
0.594961
0.604812
0.617271
0.631719
0.64518
0.655809
0.664129
0.670668
0.675756
0.679369
0.681258
0.681796
0.681737
0.556206
0.556109
0.556697
0.558575
0.562139
0.567469
0.57463
0.584044
0.596184
0.61138
0.628796
0.644887
0.657557
0.667502
0.675365
0.68149
0.685779
0.687932
0.688508
0.688434
0.536225
0.536102
0.536894
0.539292
0.543775
0.550536
0.559608
0.571451
0.586531
0.605094
0.626008
0.645096
0.660053
0.671803
0.681112
0.688391
0.693367
0.695743
0.696327
0.69623
0.511093
0.510955
0.512086
0.515288
0.521167
0.530024
0.541807
0.556954
0.575828
0.598504
0.623477
0.645909
0.663352
0.677059
0.687942
0.696426
0.702035
0.704553
0.705102
0.704975
0.478461
0.478346
0.480096
0.484698
0.492896
0.505027
0.520789
0.540471
0.564198
0.591811
0.621392
0.647454
0.667528
0.683285
0.695797
0.705477
0.711574
0.714103
0.714567
0.714405
0.434109
0.434163
0.43728
0.444799
0.457304
0.474775
0.496435
0.522232
0.552001
0.585364
0.620014
0.64988
0.672644
0.690469
0.704596
0.715335
0.721645
0.724003
0.724335
0.72414
0.370132
0.371372
0.378998
0.393033
0.413426
0.439398
0.469367
0.502953
0.539868
0.579631
0.619617
0.653324
0.678721
0.698529
0.71409
0.725548
0.731752
0.733699
0.733857
0.733646
0.294341
0.296165
0.310768
0.334884
0.366317
0.402317
0.441333
0.483191
0.527723
0.574473
0.620547
0.658877
0.687542
0.709751
0.726894
0.73896
0.744788
0.746383
0.746491
0.74636
0.2162
0.222513
0.244077
0.278548
0.320465
0.366207
0.414223
0.464392
0.516602
0.570418
0.622694
0.665718
0.697614
0.72217
0.741058
0.75312
0.758078
0.759156
0.75921
0.759152
0.152248
0.160922
0.187084
0.228645
0.278776
0.332809
0.388933
0.446876
0.506406
0.56701
0.625197
0.672599
0.707454
0.73397
0.753655
0.765557
0.770125
0.771104
0.771202
0.771204
0.100243
0.109518
0.139262
0.186103
0.24243
0.303145
0.366124
0.430928
0.497139
0.564099
0.62789
0.67943
0.717023
0.745323
0.765929
0.777928
0.782247
0.783137
0.783282
0.783335
0.0567679
0.0663241
0.0985327
0.149396
0.210809
0.277069
0.345864
0.416675
0.488907
0.561745
0.630834
0.686353
0.726609
0.756725
0.778333
0.790466
0.794708
0.795775
0.795958
0.796051
0.0194463
0.0291045
0.0631519
0.117233
0.182858
0.253854
0.327726
0.403866
0.481565
0.559865
0.633992
0.693364
0.736251
0.768152
0.790779
0.803436
0.807956
0.809052
0.80923
0.809339
-0.0134143
-0.00373556
0.0317159
0.0885099
0.157669
0.232753
0.311125
0.392076
0.474812
0.558241
0.637189
0.700305
0.745783
0.77949
0.803299
0.816566
0.821365
0.82256
0.822733
0.82282
-0.0431181
-0.0334193
0.00317787
0.0623134
0.134504
0.213174
0.295561
0.380893
0.468297
0.556579
0.640179
0.70697
0.755008
0.790527
0.81542
0.829372
0.8345
0.835754
0.835907
0.835975
-0.0705741
-0.0608482
-0.0232697
0.0379299
0.112799
0.194653
0.28064
0.369968
0.46172
0.554631
0.642766
0.71317
0.763717
0.800955
0.826964
0.841498
0.847
0.848309
0.848428
0.848466
-0.0963671
-0.0865906
-0.0481134
0.0148338
0.0921227
0.176825
0.26606
0.359049
0.454865
0.5522
0.644776
0.718772
0.771794
0.810697
0.837705
0.852766
0.858544
0.859887
0.859974
0.859976
-0.120993
-0.111104
-0.0717374
-0.00730732
0.0721819
0.159432
0.251611
0.347955
0.447565
0.549128
0.64608
0.723696
0.779192
0.819701
0.847624
0.863041
0.868958
0.870323
0.870385
0.870356
-0.14475
-0.134662
-0.0945693
-0.0286603
0.0527766
0.142302
0.237143
0.336557
0.439694
0.545306
0.646592
0.727893
0.785913
0.827974
0.856639
0.872285
0.878242
0.879558
0.879605
0.879547
-0.167755
-0.157479
-0.116714
-0.0493802
0.0337725
0.125342
0.222571
0.324777
0.431185
0.540646
0.646226
0.731331
0.79199
0.835621
0.864898
0.880601
0.886447
0.88771
0.887711
0.887637
-0.190208
-0.179669
-0.138168
-0.0695836
0.0151022
0.108494
0.207858
0.312588
0.422002
0.535096
0.644907
0.733976
0.797491
0.842793
0.872571
0.888127
0.893738
0.894875
0.894832
0.894736
-0.212068
-0.201275
-0.159093
-0.0893285
-0.00325671
0.0917491
0.193014
0.299999
0.41214
0.528621
0.642574
0.735778
0.80247
0.849646
0.879875
0.895058
0.90024
0.901176
0.901075
0.900961
-0.233405
-0.222337
-0.179434
-0.108615
-0.0213015
0.0751221
0.17806
0.287047
0.40163
0.521222
0.639169
0.736668
0.806932
0.856348
0.887092
0.901631
0.906068
0.906676
0.906509
0.906391
-0.254086
-0.242806
-0.199187
-0.127409
-0.0390019
0.0586692
0.163048
0.273788
0.39053
0.512934
0.634649
0.736557
0.81083
0.863011
0.894573
0.908286
0.911539
0.911512
0.911231
0.91114
-0.274246
-0.262648
-0.218355
-0.145704
-0.0563372
0.0424187
0.148058
0.260291
0.378909
0.503819
0.629003
0.735328
0.814031
0.869636
0.90265
0.915717
0.917341
0.916018
0.91537
0.915351
-0.293733
-0.281843
-0.236918
-0.163468
-0.0732366
0.0264479
0.133163
0.246665
0.366868
0.493926
0.622252
0.732854
0.816336
0.876053
0.911432
0.924726
0.924839
0.921417
0.919334
0.918778
-0.312615
-0.300445
-0.25483
-0.180658
-0.089672
0.0108197
0.118441
0.232985
0.35451
0.483382
0.614444
0.729007
0.817482
0.881893
0.920533
0.935598
0.935783
0.93048
0.92427
0.916557
-0.330815
-0.318412
-0.272185
-0.197428
-0.105849
-0.00472927
0.103571
0.218871
0.341413
0.471721
0.605094
0.723293
0.817058
0.886948
0.929506
0.947987
0.950856
0.944827
0.93359
0.929215
-0.348286
-0.335669
-0.288972
-0.213756
-0.121779
-0.0201962
0.0885603
0.2043
0.327523
0.458809
0.59398
0.715284