/*--------------------------------*- C++ -*----------------------------------*\
| =========                 |                                                 |
| \\      /  F ield         | OpenFOAM: The Open Source CFD Toolbox           |
|  \\    /   O peration     | Version:  2112                                  |
|   \\  /    A nd           | Website:  www.openfoam.com                      |
|    \\/     M anipulation  |                                                 |
\*---------------------------------------------------------------------------*/
FoamFile
{
    version     2.0;
    format      ascii;
    arch        "LSB;label=32;scalar=64";
    class       surfaceScalarField;
    location    "69.5";
    object      phi;
}
// * * * * * * * * * * * * * * * * * * * * * * * * * * * * * * * * * * * * * //

dimensions      [0 3 -1 0 0 0 0];

oriented        oriented;

internalField   nonuniform List<scalar> 
17370
(
-0.0916061
0.0960093
0.284608
-0.0775945
0.0594198
0.36495
-0.0430418
0.0316216
0.427588
-0.0223174
0.0162646
0.505305
-0.0116714
0.00879753
0.602276
-0.0065863
0.00510126
0.720543
-0.00386421
0.00298383
0.863787
-0.0022108
0.00163245
1.03603
-0.00110064
0.000679299
1.24292
-0.000267388
-0.000127693
1.49159
0.000516751
-0.000931272
1.49161
0.00133718
-0.0018424
1.2432
0.00239164
-0.0031319
1.03638
0.0039868
-0.00520415
0.864124
0.00667766
-0.00887902
0.721259
0.0117421
-0.0163194
0.603792
0.0223555
-0.0316413
0.508725
0.0430415
-0.0594078
0.432534
0.0775869
-0.0960026
0.365191
0.0916214
0.197389
-0.127093
0.0880258
0.0390673
-0.364358
0.354033
-0.0714724
0.0817972
-0.446654
0.454258
-0.0791665
0.0715626
-0.521012
0.529113
-0.0637072
0.0556058
-0.612992
0.620763
-0.0482169
0.0404457
-0.727165
0.733688
-0.0338322
0.0273094
-0.867582
0.872437
-0.0221036
0.0172491
-1.03857
1.04191
-0.0135485
0.0102068
-1.24472
1.24713
-0.00765363
0.00524475
-1.49284
1.49486
-0.00327762
0.00126007
-1.49269
1.49452
0.00056176
-0.00238393
-1.2441
1.24602
0.0043599
-0.00627354
-1.03761
1.04008
0.00860922
-0.0110854
-0.866186
0.869809
0.0143381
-0.0179614
-0.724592
0.729744
0.0227439
-0.0278956
-0.609062
0.61563
0.0343666
-0.040934
-0.515122
0.522455
0.0486515
-0.0559846
-0.43988
0.447654
0.064003
-0.0717771
-0.374704
0.377355
0.0792654
-0.0819162
-0.256893
0.224429
0.0715655
-0.0391017
-0.0688161
0.0592068
0.00960928
-0.0520933
0.0589153
-0.374843
0.368021
-0.0580642
0.0542193
-0.453951
0.457796
-0.0487299
0.0441681
-0.527623
0.532185
-0.039615
0.0357158
-0.620808
0.624707
-0.0314985
0.0274989
-0.734667
0.738667
-0.0231369
0.0192446
-0.873964
0.877856
-0.0151939
0.0117317
-1.04337
1.04683
-0.00820645
0.0051687
-1.24866
1.2517
-0.00195597
-0.00102927
-1.49695
1.49993
0.00399201
-0.00714304
-1.49742
1.50057
0.0100897
-0.0134894
-1.25006
1.25346
0.0168209
-0.0207199
-1.04564
1.04954
0.0244787
-0.0287099
-0.877126
0.881357
0.0326042
-0.0367173
-0.738971
0.743085
0.0405303
-0.0449983
-0.62596
0.630428
0.049489
-0.0549087
-0.535008
0.540427
0.0586725
-0.0594281
-0.458067
0.458822
0.0524727
-0.0320752
-0.336749
0.316352
0.00967682
-0.068653
0.0589761
-0.0534204
0.0493121
0.00410838
-0.0332223
0.0436364
-0.358581
0.348167
-0.0473043
0.046712
-0.459593
0.460185
-0.0437784
0.0405613
-0.536146
0.539363
-0.0368788
0.0335186
-0.628412
0.631772
-0.0298782
0.0266305
-0.742053
0.7453
-0.0231699
0.0199651
-0.881357
0.884562
-0.0163637
0.0130044
-1.05027
1.05363
-0.00929699
0.00588524
-1.25496
1.25837
-0.00208771
-0.00153329
-1.50329
1.50691
0.00512184
-0.00882541
-1.50406
1.50776
0.0121088
-0.0156386
-1.25701
1.26054
0.0188129
-0.0221982
-1.05324
1.05663
0.0252123
-0.0284852
-0.884958
0.888231
0.0315814
-0.035072
-0.746759
0.75025
0.0383049
-0.0418549
-0.634541
0.638091
0.0449572
-0.047762
-0.544564
0.547369
0.0482208
-0.0443674
-0.456929
0.453076
0.0337259
-0.0163949
-0.297021
0.27969
0.00418322
-0.053122
0.0489388
-0.0461462
0.0435946
0.00255157
-0.0230193
0.0333543
-0.337588
0.327253
-0.0390748
0.0400145
-0.459943
0.459003
-0.0387547
0.0364198
-0.542025
0.54436
-0.0337693
0.0312147
-0.634747
0.637301
-0.028228
0.0253707
-0.748394
0.751251
-0.0221225
0.019099
-0.887627
0.890651
-0.0157373
0.0125933
-1.05681
1.05995
-0.00902578
0.00561666
-1.26178
1.26519
-0.0016981
-0.00210427
-1.51064
1.51445
0.00586446
-0.00965554
-1.51154
1.51533
0.0128936
-0.0162274
-1.26399
1.26732
0.0191283
-0.0222079
-1.05983
1.06291
0.0249798
-0.0279752
-0.891415
0.89441
0.0306247
-0.0334043
-0.753417
0.756197
0.0357845
-0.0382581
-0.641034
0.643508
0.0404418
-0.0415031
-0.549193
0.550255
0.0403565
-0.034334
-0.447936
0.441913
0.0236667
-0.010395
-0.264481
0.251209
0.00264445
-0.045689
0.0430445
-0.0414806
0.0396852
0.00179542
-0.0169091
0.0261744
-0.317401
0.308136
-0.0327505
0.0348561
-0.457454
0.455348
-0.0344084
0.0326987
-0.546398
0.548108
-0.0304585
0.0283183
-0.639622
0.641762
-0.0258663
0.0234743
-0.753862
0.756254
-0.0206445
0.0178842
-0.893521
0.896281
-0.0146849
0.0116369
-1.06301
1.06606
-0.00815793
0.0048309
-1.26852
1.27184
-0.00098148
-0.00277114
-1.51822
1.52197
0.00646925
-0.0101575
-1.51906
1.52275
0.0132675
-0.0164508
-1.27058
1.27377
0.0191911
-0.0220295
-1.06593
1.06877
0.0244641
-0.0269656
-0.89718
0.899682
0.0290889
-0.031275
-0.758622
0.760809
0.0331928
-0.0352048
-0.645721
0.647733
0.0366946
-0.0368711
-0.550821
0.550997
0.0344475
-0.0274292
-0.435297
0.428279
0.0177181
-0.00750034
-0.239606
0.229389
0.00190918
-0.0408277
0.0389185
-0.0381408
0.0367951
0.00134566
-0.0129026
0.0208759
-0.299519
0.291545
-0.027616
0.0305171
-0.452811
0.44991
-0.0307056
0.0295652
-0.549558
0.550698
-0.0275501
0.0256075
-0.643832
0.645774
-0.0233769
0.0212181
-0.758513
0.760671
-0.0186907
0.0162047
-0.898848
0.901334
-0.0132654
0.0103929
-1.06897
1.07185
-0.00704575
0.00381527
-1.27509
1.27832
-6.9966e-05
-0.00356669
-1.52564
1.52928
0.00713599
-0.0106783
-1.52636
1.5299
0.0136369
-0.0166133
-1.27687
1.27984
0.0190996
-0.0215857
-1.07149
1.07397
0.0236647
-0.0257808
-0.901976
0.904092
0.0276006
-0.0294932
-0.762832
0.764725
0.0311544
-0.0328955
-0.649587
0.651328
0.0337152
-0.0331485
-0.550804
0.550237
0.0297927
-0.0224462
-0.421039
0.413692
0.0139001
-0.00580491
-0.220333
0.212237
0.00148442
-0.0372486
0.0357641
-0.0356205
0.0345863
0.00103418
-0.0100698
0.0168126
-0.28421
0.277468
-0.023296
0.026654
-0.446758
0.4434
-0.0274147
0.0267038
-0.551614
0.552325
-0.0249192
0.023118
-0.647683
0.649484
-0.0210348
0.019009
-0.762763
0.764789
-0.016626
0.0142881
-0.903684
0.906022
-0.0115386
0.00884328
-1.07457
1.07726
-0.00567386
0.00258289
-1.28144
1.28453
0.0010222
-0.00452407
-1.53282
1.53633
0.00794163
-0.0112969
-1.53333
1.53669
0.0140506
-0.0167613
-1.2827
1.28541
0.0189807
-0.0211712
-1.07636
1.07855
0.0230056
-0.0248783
-0.906095
0.907968
0.0264835
-0.0281472
-0.766491
0.768155
0.0295996
-0.031007
-0.652922
0.654329
0.0313185
-0.030021
-0.54932
0.548022
0.0260365
-0.0187548
-0.406352
0.39907
0.0112924
-0.00468397
-0.204955
0.198347
0.00120296
-0.0344368
0.0332338
-0.0336785
0.032875
0.000803536
-0.00796856
0.0136324
-0.271292
0.265628
-0.019633
0.0231902
-0.43993
0.436372
-0.0244285
0.0239629
-0.55294
0.553406
-0.0224484
0.0207554
-0.651278
0.652971
-0.0187673
0.0168299
-0.766768
0.768706
-0.0145466
0.0123025
-0.908252
0.910496
-0.0096595
0.00707624
-1.07983
1.08241
-0.00405083
0.0010986
-1.28751
1.29046
0.00234338
-0.0056813
-1.53972
1.54306
0.00891705
-0.0120536
-1.53991
1.54305
0.0145909
-0.0170572
-1.288
1.29046
0.019058
-0.0210146
-1.08069
1.08265
0.0226402
-0.0242972
-0.909746
0.911403
0.0257181
-0.0271898
-0.769714
0.771186
0.0284475
-0.0294737
-0.655528
0.656554
0.0294121
-0.0274412
-0.546392
0.544421
0.0230464
-0.0160213
-0.391912
0.384887
0.00946336
-0.00391055
-0.192317
0.186764
0.00100874
-0.0321403
0.0311316
-0.0321691
0.0315439
0.00062524
-0.00634848
0.0110893
-0.260452
0.255711
-0.0164986
0.0200571
-0.43281
0.429252
-0.0216189
0.0213776
-0.55379
0.554031
-0.0200945
0.0184631
-0.654678
0.656309
-0.0165306
0.014642
-0.770615
0.772504
-0.0124171
0.0102324
-0.912639
0.914824
-0.00766101
0.00515106
-1.08488
1.08739
-0.00221914
-0.000619727
-1.2933
1.29614
0.00391713
-0.00708891
-1.54628
1.54945
0.0101342
-0.013055
-1.54605
1.54897
0.0153955
-0.0176483
-1.29283
1.29508
0.0194502
-0.0211844
-1.08458
1.08632
0.022614
-0.0240735
-0.912973
0.914433
0.0253292
-0.0266261
-0.772562
0.773859
0.0277359
-0.0283405
-0.657364
0.657968
0.0279059
-0.0253665
-0.54218
0.539641
0.0207173
-0.014016
-0.378033
0.371332
0.00817216
-0.0033724
-0.181626
0.176826
0.000874391
-0.0302002
0.0293258
-0.0309981
0.0305172
0.000480874
-0.00504468
0.00898878
-0.251393
0.247449
-0.0137607
0.0171703
-0.425772
0.422362
-0.0189144
0.0188619
-0.554215
0.554267
-0.0177743
0.0161767
-0.657986
0.659583
-0.0142668
0.012393
-0.774379
0.776253
-0.0101861
0.00802433
-0.916916
0.919077
-0.0054893
0.00302546
-1.0898
1.09226
-0.000163472
-0.00260238
-1.29888
1.30164
0.0057803
-0.00880386
-1.55251
1.55553
0.0116739
-0.0143938
-1.55176
1.55448
0.0165469
-0.0185916
-1.29723
1.29927
0.020199
-0.0217171
-1.08805
1.08957
0.022961
-0.0242398
-0.91581
0.917089
0.0253469
-0.0264839
-0.775067
0.776204
0.027401
-0.0276245
-0.658378
0.658602
0.026787
-0.0237644
-0.536874
0.533852
0.0189582
-0.0125722
-0.364806
0.35842
0.00727062
-0.00300352
-0.172325
0.168058
0.000783887
-0.028506
0.0277222
-0.0301036
0.0297449
0.000358737
-0.00395216
0.00719584
-0.243876
0.240632
-0.0113176
0.0144677
-0.419092
0.415942
-0.0162675
0.0163659
-0.554287
0.554189
-0.0153615
0.0138353
-0.661219
0.662746
-0.0119207
0.0100295
-0.778125
0.780016
-0.00780246
0.00562817
-0.921152
0.923326
-0.00309177
0.00064128
-1.09463
1.09708
0.00219309
-0.00490391
-1.30432
1.30703
0.00799183
-0.0108942
-1.55846
1.56136
0.0136108
-0.0161436
-1.55708
1.55961
0.0181146
-0.019954
-1.30121
1.30305
0.0213694
-0.0226755
-1.09112
1.09242
0.0237392
-0.0248442
-0.918286
0.919391
0.0258073
-0.0267758
-0.777248
0.778216
0.0274319
-0.0273653
-0.658696
0.658629
0.0260818
-0.0226266
-0.530625
0.527169
0.017706
-0.0115788
-0.352189
0.346062
0.00666769
-0.00276354
-0.164002
0.160098
0.000727116
-0.0269759
0.0262488
-0.0294461
0.0291963
0.000249763
-0.00299427
0.00560541
-0.237724
0.235113
-0.00907684
0.0118836
-0.412979
0.410172
-0.0136243
0.0138021
-0.554098
0.55392
-0.0128378
0.0113546
-0.664332
0.665816
-0.00941198
0.00747366
-0.781914
0.783852
-0.00519018
0.00296893
-0.925416
0.927637
-0.000394506
-0.00208327
-1.09944
1.10191
0.00492206
-0.0076117
-1.30965
1.31234
0.0106395
-0.0134439
-1.56416
1.56697
0.016024
-0.0183815
-1.56202
1.56437
0.0201787
-0.021819
-1.30478
1.30642
0.0230421
-0.0241298
-1.09378
1.09487
0.0250081
-0.0259376
-0.920411
0.92134
0.0267574
-0.0275553
-0.779077
0.779875
0.0279203
-0.0275619
-0.658417
0.658058
0.0258232
-0.0219457
-0.523524
0.519647
0.0169101
-0.0109579
-0.340057
0.334104
0.00630261
-0.0026253
-0.156336
0.152658
0.000696963
-0.0255464
0.0248494
-0.0290031
0.0288568
0.00014631
-0.00210734
0.00412467
-0.232816
0.230798
-0.00694088
0.00933408
-0.40759
0.405197
-0.0109073
0.011085
-0.5538
0.553622
-0.010127
0.00864798
-0.667397
0.668876
-0.00665035
0.0046352
-0.785804
0.787819
-0.00226042
-3.79935e-05
-0.929776
0.932075
0.00269983
-0.00523682
-1.10431
1.10684
0.00811878
-0.0108194
-1.31496
1.31766
0.013818
-0.0165462
-1.56968
1.57241
0.0190038
-0.0211941
-1.5666
1.56879
0.0228218
-0.0242652
-1.30794
1.30938
0.0252927
-0.0261492
-1.09605
1.09691
0.0268278
-0.0275646
-0.922168
0.922905
0.0282309
-0.0288845
-0.780548
0.781202
0.028932
-0.0281911
-0.657491
0.65675
0.0259938
-0.0216981
-0.515606
0.51131
0.0165214
-0.0106491
-0.328234
0.322362
0.00613142
-0.00256934
-0.149068
0.145506
0.000688362
-0.0241667
0.0234784
-0.0287668
0.028725
4.17249e-05
-0.0012426
0.00268081
-0.229085
0.227646
-0.00482794
0.00674385
-0.403063
0.401147
-0.00804536
0.00814054
-0.553555
0.55346
-0.00714227
0.00563045
-0.670493
0.672005
-0.00353958
0.00141345
-0.789851
0.791977
0.00109505
-0.00351798
-0.934298
0.936721
0.00629925
-0.0089335
-1.1093
1.11194
0.0119001
-0.0146475
-1.32029
1.32304
0.0176503
-0.0203256
-1.57506
1.57774
0.0226748
-0.024703
-1.57085
1.57288
0.0261591
-0.0273989
-1.31069
1.31193
0.0282209
-0.0288426
-1.09789
1.09851
0.0293155
-0.0298465
-0.923535
0.924066
0.0303445
-0.0307882
-0.78165
0.782094
0.0305447
-0.0293329
-0.655796
0.654584
0.0266439
-0.0218981
-0.506859
0.502113
0.0165227
-0.0106209
-0.316524
0.310622
0.00612954
-0.00258461
-0.141983
0.138438
0.000698448
-0.0227958
0.0220973
-0.02874
0.028807
-6.7037e-05
-0.000358925
0.00121135
-0.226511
0.225659
-0.00266125
0.00403425
-0.399522
0.398149
-0.00495978
0.00488563
-0.553536
0.55361
-0.00378757
0.00218874
-0.673709
0.675308
3.20393e-05
-0.00230838
-0.794127
0.796403
0.00499614
-0.007582
-0.939063
0.941649
0.0105338
-0.0133092
-1.1145
1.11727
0.0164047
-0.0192349
-1.32573
1.32856
0.0222747
-0.0249192
-1.58033
1.58298
0.027172
-0.0290398
-1.57477
1.57664
0.0303194
-0.0313466
-1.31301
1.31404
0.0319575
-0.0323355
-1.09929
1.09967
0.0325934
-0.032905
-0.924485
0.924796
0.033211
-0.0333638
-0.782226
0.782379
0.0328169
-0.0310547
-0.653175
0.651413
0.0278211
-0.0225669
-0.497207
0.491953
0.0169109
-0.0108586
-0.304704
0.298651
0.00628453
-0.00266515
-0.134889
0.13127
0.000725534
-0.0213969
0.0206714
-0.0289382
0.0291216
-0.000183322
0.000563779
-0.000330134
-0.225118
0.224884
-0.000369752
0.00112152
-0.397094
0.396343
-0.00156222
0.0012352
-0.55392
0.554247
1.14208e-05
-0.00177444
-0.677157
0.67892
0.00418707
-0.00666552
-0.798714
0.801192
0.00958599
-0.0123845
-0.944158
0.946956
0.0155615
-0.0185258
-1.11999
1.12295
0.0217979
-0.0247486
-1.33134
1.33429
0.0278584
-0.0304917
-1.58555
1.58818
0.0326541
-0.0343566
-1.57836
1.58007
0.0354546
-0.0362546
-1.31487
1.31567
0.0366425
-0.0367631
-1.1002
1.10032
0.0367895
-0.0368657
-0.924977
0.925053
0.0369738
-0.0367493
-0.782162
0.781938
0.035814
-0.0334292
-0.649485
0.647101
0.0295768
-0.0237243
-0.486518
0.480666
0.0176823
-0.0113479
-0.292523
0.286189
0.00658355
-0.00280406
-0.127605
0.123825
0.000767372
-0.019937
0.0191697
-0.0293892
0.0297211
-0.000331899
0.00159911
-0.00200696
-0.224994
0.225402
0.0021583
-0.00213759
-0.395914
0.395893
0.00231532
-0.00300923
-0.554929
0.555622
0.00449746
-0.00645614
-0.680985
0.682944
0.00910882
-0.0118405
-0.8037
0.806432
0.0150555
-0.0181237
-0.949682
0.95275
0.0215865
-0.0247916
-1.12586
1.12907
0.0282915
-0.031401
-1.3372
1.34031
0.0346102
-0.0372452
-1.59074
1.59338
0.0393157
-0.0408352
-1.5816
1.58312
0.0417294
-0.0422925
-1.31624
1.3168
0.0424455
-0.0422837
-1.10058
1.10041
0.0420528
-0.0418758
-0.92496
0.924782
0.0417784
-0.0410732
-0.7813
0.780595
0.0396642
-0.0365513
-0.644569
0.641457
0.031972
-0.0253949
-0.474596
0.468019
0.0188381
-0.0120791
-0.279716
0.272957
0.00701667
-0.00299559
-0.119962
0.115941
0.000822028
-0.0183876
0.0175656
-0.0301229
0.0306345
-0.000511579
0.00289757
-0.0040741
-0.226211
0.227388
0.00509816
-0.00588354
-0.396197
0.396983
0.00678471
-0.00794581
-0.556793
0.557954
0.00976028
-0.0119977
-0.685295
0.687533
0.0149797
-0.0180396
-0.809201
0.812261
0.0216258
-0.0250303
-0.955751
0.959156
0.0288476
-0.0323507
-1.13223
1.13573
0.0361316
-0.0394369
-1.34338
1.34669
0.0427703
-0.045413
-1.59593
1.59858
0.0473809
-0.0487005
-1.58447
1.58579
0.0493557
-0.0496641
-1.31708
1.31738
0.049558
-0.0490886
-1.10036
1.09989
0.0485818
-0.0481367
-0.924372
0.923927
0.04771
-0.0465422
-0.7795
0.778332
0.0445038
-0.0405225
-0.638205
0.634224
0.0350743
-0.0276078
-0.461175
0.453709
0.0203815
-0.0130423
-0.265992
0.258653
0.00757243
-0.00323249
-0.1118
0.10746
0.000886852
-0.0167245
0.0158377
-0.0312139
0.0319498
-0.000735908
0.00441399
-0.00648322
-0.228971
0.23104
0.00857642
-0.0102795
-0.398155
0.399858
0.012012
-0.0137593
-0.559765
0.561512
0.0160333
-0.0186497
-0.690253
0.692869
0.0220684
-0.0255406
-0.815366
0.818838
0.0295885
-0.0334081
-0.962503
0.966323
0.0376584
-0.0415202
-1.1392
1.14307
0.0456324
-0.0491618
-1.34995
1.35348
0.0526287
-0.0552662
-1.60113
1.60377
0.0571021
-0.0581798
-1.5869
1.58798
0.0585567
-0.0585667
-1.31731
1.31732
0.0581785
-0.0573799
-1.0995
1.0987
0.0565716
-0.0558224
-0.923169
0.92242
0.0549892
-0.053292
-0.776809
0.775112
0.0504821
-0.0454412
-0.630095
0.625054
0.0389331
-0.0303683
-0.44591
0.437345
0.0222937
-0.0142102
-0.251036
0.242952
0.00822749
-0.00350148
-0.102968
0.0982418
0.000957241
-0.0149293
0.013972
-0.0327463
0.0337724
-0.00102612
0.00630791
-0.00943926
-0.233516
0.236648
0.0128146
-0.0155839
-0.402057
0.404826
0.0182942
-0.0207544
-0.564127
0.566587
0.0236338
-0.0267522
-0.696075
0.699193
0.0307413
-0.0347381
-0.822365
0.826362
0.0393556
-0.0436762
-0.970098
0.974418
0.0484384
-0.0527128
-1.1469
1.15118
0.0571914
-0.0609516
-1.35696
1.36072
0.0645295
-0.0671155
-1.60628
1.60887
0.0687601
-0.0695303
-1.58882
1.58959
0.069571
-0.0692216
-1.31681
1.31646
0.0685275
-0.0673603
-1.0979
1.09674
0.0662127
-0.0651684
-0.921297
0.920253
0.0638057
-0.0614841
-0.773066
0.770745
0.0577233
-0.0513726
-0.619853
0.613502
0.043561
-0.0336451
-0.428372
0.418456
0.0245234
-0.0155311
-0.234521
0.225529
0.0089426
-0.00378218
-0.0933406
0.0881802
0.00102669
-0.0129938
0.0119671
-0.0348448
0.036273
-0.0014282
0.0087866
-0.0132766
-0.240175
0.244665
0.018151
-0.0221637
-0.40827
0.412283
0.026019
-0.0293441
-0.570209
0.573534
0.0330052
-0.0367861
-0.703027
0.706808
0.0415107
-0.0461623
-0.830416
0.835068
0.0514674
-0.0563766
-0.978708
0.983617
0.0617205
-0.0664415
-1.15542
1.16014
0.0712872
-0.0752459
-1.3644
1.36836
0.0788658
-0.0813122
-1.61128
1.61373
0.0826685
-0.0830315
-1.59007
1.59043
0.082672
-0.0818707
-1.31548
1.31468
0.0808093
-0.0792525
-1.09549
1.09393
0.0777778
-0.0763166
-0.918726
0.917264
0.0744385
-0.07127
-0.768032
0.764864
0.0663112
-0.0583266
-0.606956
0.598972
0.0489065
-0.0373415
-0.408049
0.396484
0.0269631
-0.0169126
-0.216129
0.206079
0.00965367
-0.00404329
-0.0828372
0.0772268
0.0010856
-0.0109244
0.00983879
-0.0377126
0.0397064
-0.00199382
0.0122257
-0.0184476
-0.249466
0.255688
0.0251257
-0.0305923
-0.417292
0.422759
0.0358039
-0.0401905
-0.5784
0.582787
0.0448391
-0.0494815
-0.711452
0.716095
0.0551473
-0.0606014
-0.839772
0.845226
0.0667123
-0.0722781
-0.988504
0.99407
0.0782305
-0.0833757
-1.1648
1.16994
0.0885151
-0.0925653
-1.37217
1.37622
0.0960748
-0.0982192
-1.61591
1.61805
0.0991269
-0.0989342
-1.59042
1.59022
0.0980782
-0.0967168
-1.31317
1.31181
0.0952318
-0.0932645
-1.09218
1.09021
0.0914191
-0.0894163
-0.915162
0.913159
0.0870029
-0.0827256
-0.761209
0.756932
0.076254
-0.066218
-0.590732
0.580696
0.0548145
-0.0412663
-0.384352
0.370804
0.0294293
-0.0182133
-0.195588
0.184372
0.0102689
-0.00424283
-0.0714512
0.0654251
0.00112187
-0.00874778
0.00762591
-0.0416704
0.0445422
-0.00287179
0.0172186
-0.0257038
-0.262133
0.270618
0.0346245
-0.0418512
-0.429789
0.437015
0.0487066
-0.0543622
-0.589191
0.594846
0.0603151
-0.066104
-0.721767
0.727556
0.0729079
-0.0792756
-0.850705
0.857073
0.0862461
-0.0924502
-0.999593
1.0058
0.0989209
-0.104351
-1.17495
1.18038
0.109575
-0.113491
-1.38
1.38392
0.116612
-0.118191
-1.61979
1.62137
0.11841
-0.117452
-1.58954
1.58859
0.115941
-0.113936
-1.30967
1.30766
0.111964
-0.109552
-1.08788
1.08547
0.107325
-0.104654
-0.910333
0.907662
0.101536
-0.0957932
-0.752012
0.746269
0.0873866
-0.0747833
-0.570304
0.5577
0.0609639
-0.045092
-0.356652
0.34078
0.0316391
-0.0192335
-0.172737
0.160332
0.0106674
-0.00432932
-0.0592878
0.0529497
0.00112149
-0.00651526
0.00539377
-0.0473018
0.0516601
-0.00435823
0.0249539
-0.0365223
-0.279334
0.290902
0.0483646
-0.0579274
-0.4468
0.456363
0.0668164
-0.0739428
-0.603186
0.610312
0.081443
-0.0887596
-0.734342
0.741659
0.0967693
-0.10397
-0.863421
0.870622
0.111633
-0.118255
-1.01185
1.01848
0.124927
-0.130302
-1.18549
1.19087
0.135201
-0.138589
-1.38735
1.39074
0.140889
-0.141516
-1.62234
1.62297
0.140717
-0.138743
-1.587
1.58503
0.136404
-0.133628
-1.30479
1.30202
0.13108
-0.128188
-1.08249
1.07959
0.125458
-0.122122
-0.904062
0.900726
0.11796
-0.110228
-0.739655
0.731923
0.0992905
-0.0834993
-0.544571
0.52878
0.0668183
-0.0483475
-0.324357
0.305886
0.0332257
-0.0197408
-0.147638
0.134153
0.0107197
-0.00425139
-0.0466058
0.0401375
0.00107075
-0.00430458
0.00323383
-0.0556894
0.0631688
-0.0074794
0.0385523
-0.0546105
-0.303234
0.319292
0.0705351
-0.0833189
-0.469963
0.482747
0.0943898
-0.102891
-0.620824
0.629325
0.111895
-0.12049
-0.749576
0.758171
0.129433
-0.137053
-0.877611
0.885232
0.144824
-0.15126
-1.02468
1.03111
0.157451
-0.162126
-1.19561
1.20029
0.166019
-0.168257
-1.39333
1.39557
0.169154
-0.168374
-1.62272
1.62194
0.166199
-0.162906
-1.58228
1.57899
0.159518
-0.155795
-1.29827
1.29454
0.152595
-0.149222
-1.07583
1.07246
0.145907
-0.141683
-0.896097
0.891874
0.135931
-0.12542
-0.722928
0.712417
0.111146
-0.0914521
-0.512159
0.492465
0.0716248
-0.0505092
-0.287073
0.265957
0.0338758
-0.0196053
-0.120703
0.106433
0.0103842
-0.00400794
-0.033845
0.0274688
0.000970904
-0.00221965
0.00124874
-0.0701322
0.0743205
-0.00418832
0.0295344
-0.0434469
-0.337858
0.351771
0.0575621
-0.0692557
-0.500733
0.512426
0.0797441
-0.0895291
-0.641699
0.651484
0.100479
-0.110507
-0.766341
0.776369
0.121664
-0.131638
-0.891978
0.901952
0.142298
-0.151807
-1.03661
1.04612
0.161765
-0.170329
-1.20388
1.21244
0.178876
-0.185745
-1.39666
1.40353
0.191936
-0.19609
-1.61997
1.62413
0.198182
-0.198816
-1.57471
1.57535
0.198308
-0.197206
-1.28975
1.28865
0.196364
-0.195086
-1.06771
1.06643
0.193411
-0.189154
-0.885687
0.88143
0.181024
-0.164977
-0.700063
0.684016
0.143031
-0.114018
-0.471666
0.442653
0.0864701
-0.0586561
-0.244868
0.217054
0.0380439
-0.0212909
-0.0928648
0.0761118
0.0109308
-0.00407426
-0.021611
0.0147544
0.000948355
-0.00036221
-0.000586145
-0.0815694
0.0797144
0.00185505
0.0076133
-0.016809
-0.368523
0.377719
0.0275475
-0.0358499
-0.528843
0.537146
0.0442877
-0.0525946
-0.663848
0.672155
0.0626725
-0.0720641
-0.786067
0.795458
0.0820796
-0.09125
-0.911377
0.920548
0.101013
-0.10938
-1.05534
1.06371
0.118327
-0.125654
-1.22082
1.22815
0.132912
-0.138462
-1.4101
1.41565
0.142917
-0.145533
-1.6275
1.63011
0.146124
-0.145273
-1.57533
1.57448
0.143277
-0.140572
-1.28671
1.284
0.13819
-0.135612
-1.06259
1.06001
0.132717
-0.127318
-0.872714
0.867315
0.118467
-0.103801
-0.66381
0.649144
0.0863672
-0.0654639
-0.412005
0.391102
0.047518
-0.0311702
-0.189936
0.173588
0.0198781
-0.0111039
-0.0605173
0.0517432
0.00576204
-0.00217477
-0.00825061
0.00466335
0.000449039
0.00160999
-0.00205903
-0.0830352
0.0800926
0.0029426
-0.00173184
-0.00361572
-0.38925
0.394597
0.0109557
-0.0169652
-0.549668
0.555678
0.0232151
-0.0304891
-0.682609
0.689883
0.0392061
-0.0473581
-0.803966
0.812118
0.0562755
-0.0642706
-0.928963
0.936958
0.0725272
-0.0799586
-1.07188
1.07931
0.087679
-0.0940703
-1.23501
1.2414
0.0999154
-0.104138
-1.42049
1.42471
0.107433
-0.108748
-1.63198
1.63329
0.108069
-0.105967
-1.57299
1.57089
0.102979
-0.0993862
-1.28088
1.27728
0.0957352
-0.0919184
-1.055
1.05118
0.0879459
-0.0820888
-0.857796
0.851939
0.0739284
-0.061727
-0.631396
0.619194
0.0489852
-0.0353137
-0.368645
0.354973
0.0250137
-0.0164688
-0.157104
0.148559
0.0108002
-0.00638936
-0.0431966
0.0387858
0.00351913
-0.00132532
-0.00121733
-0.000976476
0.000307282
0.00272556
-0.00303284
-0.0817208
0.0789219
0.00279896
-0.00549206
0.00293773
-0.403061
0.405615
0.00181277
-0.00635787
-0.565047
0.569592
0.0116132
-0.0176938
-0.698084
0.704164
0.025111
-0.0320722
-0.819636
0.826597
0.0396766
-0.0465157
-0.944409
0.951249
0.0539513
-0.0602182
-1.08628
1.09255
0.0668979
-0.0719335
-1.24733
1.25237
0.0767955
-0.0801308
-1.42865
1.43198
0.0822805
-0.0823415
-1.63408
1.63414
0.0808425
-0.0779436
-1.56815
1.56525
0.0742414
-0.0694923
-1.27322
1.26847
0.0650403
-0.0601973
-1.04549
1.04064
0.0552266
-0.0494157
-0.841801
0.83599
0.0421729
-0.0329166
-0.604345
0.595089
0.0243982
-0.0166138
-0.340199
0.332414
0.0115853
-0.00789513
-0.139265
0.135575
0.00554758
-0.0036414
-0.0339343
0.0320282
0.00214777
-0.00089985
0.00319256
-0.00444048
0.000234567
0.00359185
-0.00382642
-0.0801175
0.0776118
0.00250571
-0.00674961
0.00586187
-0.412204
0.413092
-0.00238215
-0.000868742
-0.577344
0.580595
0.0051162
-0.01061
-0.711018
0.716512
0.0168082
-0.022884
-0.832853
0.838929
0.0294302
-0.0353239
-0.95761
0.963504
0.0416427
-0.0471441
-1.09864
1.10414
0.052711
-0.0571959
-1.25721
1.26169
0.0611873
-0.0637507
-1.43488
1.43744
0.0650727
-0.064373
-1.63391
1.63321
0.0621593
-0.0583518
-1.56152
1.55771
0.0540356
-0.0487563
-1.26344
1.25816
0.0436414
-0.0378639
-1.03435
1.02857
0.0324367
-0.0265452
-0.826187
0.820295
0.0205305
-0.0136392
-0.583648
0.576756
0.00840037
-0.00468279
-0.323198
0.31948
0.00296079
-0.0021925
-0.130605
0.129837
0.00186734
-0.00151808
-0.0294638
0.0291145
0.00101224
-0.000488914
0.00588935
-0.00641268
0.000149707
0.00429667
-0.00444637
-0.078579
0.0764076
0.00217138
-0.00674044
0.00641997
-0.418369
0.418689
-0.00437626
0.00177218
-0.586722
0.589326
0.00227847
-0.00694935
-0.72192
0.726591
0.0122381
-0.0174814
-0.844206
0.849449
0.0232562
-0.0284678
-0.96902
0.974231
0.0341665
-0.0389025
-1.10932
1.11406
0.0437891
-0.0476824
-1.26583
1.26972
0.050998
-0.0529693
-1.43965
1.44162
0.0536436
-0.0527426
-1.6323
1.6314
0.0499687
-0.0458066
-1.55332
1.54916
0.0410443
-0.0352721
-1.2525
1.24673
0.0299311
-0.0235113
-1.02186
1.01545
0.017658
-0.0117784
-0.811185
0.805305
0.00652856
-0.00136646
-0.567871
0.562709
-0.00175755
0.00310769
-0.313589
0.312239
-0.00279065
0.00193686
-0.127586
0.12844
-0.00114712
0.000399753
-0.0283317
0.0290791
-7.89966e-05
-5.54066e-05
0.00704799
-0.00691358
4.41651e-05
0.00476093
-0.0048051
-0.0773429
0.0756238
0.00171919
-0.00594969
0.0060155
-0.42281
0.422744
-0.00442242
0.00251134
-0.59482
0.596731
0.00122314
-0.00542195
-0.731274
0.735473
0.0103938
-0.0148695
-0.854279
0.858754
0.0198914
-0.0244539
-0.979383
0.983945
0.0297746
-0.0339883
-1.11878
1.123
0.0382115
-0.0417529
-1.27337
1.27691
0.0450133
-0.0465985
-1.44353
1.44512
0.0470157
-0.0457127
-1.63
1.62869
0.0429574
-0.0382748
-1.54465
1.53997
0.0334568
-0.0276077
-1.24064
1.23479
0.0219066
-0.0154508
-1.00853
1.00207
0.00939918
-0.00322599
-0.796752
0.790579
-0.00115237
0.00524868
-0.55516
0.551064
-0.00749374
0.00761889
-0.30828
0.308155
-0.00652475
0.00496085
-0.127972
0.129536
-0.00345286
0.00196407
-0.0294492
0.030938
-0.00100867
0.0003443
0.00682776
-0.00616338
-5.86112e-05
0.00492725
-0.00486863
-0.076589
0.0752174
0.00137158
-0.00493427
0.00516684
-0.426192
0.42596
-0.00381758
0.00202487
-0.601768
0.603561
0.00151188
-0.00521779
-0.739601
0.743307
0.00943308
-0.0137034
-0.863153
0.867424
0.0182839
-0.0229167
-0.988283
0.992916
0.0274171
-0.0313545
-1.12727
1.1312
0.0355884
-0.0387534
-1.28027
1.28344
0.0413613
-0.0431759
-1.44654
1.44835
0.0435233
-0.0422237
-1.62735
1.62605
0.0393138
-0.0348548
-1.53538
1.53092
0.0300296
-0.0241506
-1.22852
1.22264
0.0185174
-0.0120463
-0.995143
0.988672
0.00605073
-2.66256e-05
-0.782812
0.776788
-0.00431024
0.00779126
-0.544336
0.540855
-0.00962797
0.00962303
-0.30523
0.305235
-0.00832371
0.00642365
-0.129761
0.131661
-0.00470766
0.00289925
-0.0319668
0.0337752
-0.00160125
0.000629494
0.00554163
-0.00456987
-0.0001409
0.00481975
-0.00467885
-0.076354
0.0751984
0.00115553
-0.00369331
0.00371957
-0.429118
0.429092
-0.00269015
0.000953138
-0.608056
0.609793
0.00240263
-0.00594152
-0.747247
0.750786
0.00994189
-0.0137596
-0.87145
0.875268
0.0184002
-0.0221794
-0.996936
1.00072
0.0265742
-0.030251
-1.13526
1.13893
0.0342698
-0.0375255
-1.28654
1.28979
0.0402833
-0.0417277
-1.44986
1.45131
0.0422234
-0.0411117
-1.62461
1.62349
0.0386087
-0.0342081
-1.52627
1.52187
0.0296055
-0.0239044
-1.21681
1.21111
0.0184636
-0.0121064
-0.981784
0.975427
0.00637346
-0.000358811
-0.769396
0.763382
-0.00399258
0.00731582
-0.534606
0.531283
-0.00919218
0.00943951
-0.302772
0.302524
-0.0085483
0.0068986
-0.132019
0.133669
-0.00526707
0.00340225
-0.0350416
0.0369064
-0.00197152
0.000841584
0.00366182
-0.00253189
-0.000218946
0.00452482
-0.00430587
-0.0763935
0.0755727
0.000820878
-0.00255174
0.00212947
-0.432066
0.432489
-0.00126282
-0.000539071
-0.613532
0.615334
0.00354827
-0.00691517
-0.754313
0.75768
0.0107092
-0.0146187
-0.878918
0.882827
0.0185904
-0.0224832
-1.00467
1.00856
0.0267812
-0.0301873
-1.143
1.14641
0.034219
-0.0373458
-1.2928
1.29593
0.0400585
-0.0419257
-1.45311
1.45498
0.042769
-0.0417866
-1.62236
1.62138
0.0393707
-0.0355352
-1.5176
1.51376
0.0313531
-0.0259056
-1.20527
1.19983
0.0206365
-0.0147743
-0.968904
0.963042
0.00892129
-0.0032554
-0.756264
0.750598
-0.00134117
0.00483725
-0.525335
0.521839
-0.00666371
0.00747494
-0.29994
0.299129
-0.00715616
0.0061169
-0.133819
0.134858
-0.00481911
0.00324552
-0.0380462
0.0396198
-0.00195087
0.000895632
0.00153358
-0.000478343
-0.000251127
0.00408705
-0.00383592
-0.0768525
0.0762001
0.000652476
-0.00158175
0.0012388
-0.435198
0.435541
7.60575e-05
-0.00190391
-0.618987
0.620815
0.00502929
-0.00823157
-0.760806
0.764009
0.0118438
-0.0153183
-0.886374
0.889848
0.0193791
-0.0229187
-1.01243
1.01597
0.0271223
-0.030922
-1.15024
1.15404
0.034533
-0.0379324
-1.29906
1.30246
0.040993
-0.0428707
-1.4567
1.45858
0.0439855
-0.0436854
-1.62058
1.62028
0.0416131
-0.0383128
-1.50978
1.50648
0.0342826
-0.0292704
-1.19443
1.18942
0.0244305
-0.0187621
-0.956734
0.951066
0.0133215
-0.00773407
-0.743734
0.738147
0.00304676
0.000963801
-0.515886
0.511876
-0.00321658
0.00448213
-0.296279
0.295014
-0.00486701
0.00446588
-0.134524
0.134925
-0.003713
0.00264195
-0.0403935
0.0414646
-0.0016631
0.000796704
-0.00040276
0.00126916
-0.000239801
0.00361589
-0.00337609
-0.0776005
0.0771304
0.000470101
-0.000522476
7.90531e-05
-0.438501
0.438945
0.00133223
-0.00340215
-0.624171
0.62624
0.00641146
-0.00943479
-0.767011
0.770034
0.0131155
-0.0164147
-0.893276
0.896575
0.0202905
-0.0239286
-1.01997
1.02361
0.0280029
-0.0317353
-1.15766
1.16139
0.0355298
-0.0389132
-1.30574
1.30912
0.0421077
-0.0446815
-1.4607
1.46328
0.0461683
-0.0460883
-1.61987
1.61979
0.0446374
-0.0415967
-1.50305
1.5
0.0380981
-0.033649
-1.18438
1.17993
0.0289264
-0.0235764
-0.945133
0.939783
0.0183913
-0.0127841
-0.731628
0.72602