/*--------------------------------*- C++ -*----------------------------------*\
| =========                 |                                                 |
| \\      /  F ield         | OpenFOAM: The Open Source CFD Toolbox           |
|  \\    /   O peration     | Version:  2112                                  |
|   \\  /    A nd           | Website:  www.openfoam.com                      |
|    \\/     M anipulation  |                                                 |
\*---------------------------------------------------------------------------*/
FoamFile
{
    version     2.0;
    format      ascii;
    arch        "LSB;label=32;scalar=64";
    class       volVectorField;
    location    "69.5";
    object      U;
}
// * * * * * * * * * * * * * * * * * * * * * * * * * * * * * * * * * * * * * //

dimensions      [0 1 -1 0 0 0 0];

internalField   nonuniform List<vector> 
8800
(
(0.980136 -0.0915201 0)
(1.00234 -0.0587303 0)
(0.999585 -0.0321284 0)
(0.999987 -0.0165209 0)
(1.00009 -0.00883985 0)
(1.00011 -0.00509446 0)
(1.00007 -0.00299008 0)
(1.00003 -0.00167881 0)
(0.999998 -0.000776735 0)
(1.00007 -7.71837e-05 0)
(0.999976 0.000632477 0)
(0.999987 0.00139072 0)
(1.00003 0.00241306 0)
(1.00005 0.00401003 0)
(1.00004 0.00675298 0)
(1 0.0120531 0)
(0.999808 0.0230951 0)
(0.999034 0.0431552 0)
(1.00724 0.0790247 0)
(0.775026 0.0478395 0)
(0.358999 -0.0147479 0)
(1.04651 -0.0724765 0)
(1.08848 -0.0660124 0)
(1.04945 -0.0509034 0)
(1.02556 -0.0376796 0)
(1.01278 -0.0258709 0)
(1.0066 -0.0166709 0)
(1.00365 -0.0101767 0)
(1.00219 -0.00554127 0)
(1.00151 -0.0019428 0)
(1.00137 0.00127177 0)
(1.00171 0.00458403 0)
(1.0027 0.00847194 0)
(1.00476 0.013773 0)
(1.00898 0.0214421 0)
(1.01794 0.0319281 0)
(1.03579 0.0446954 0)
(1.06742 0.0581329 0)
(1.09468 0.0699493 0)
(0.845606 0.0555092 0)
(0.217822 -0.0013795 0)
(1.0757 -0.0506298 0)
(1.09943 -0.0489076 0)
(1.06441 -0.0399854 0)
(1.03995 -0.0325195 0)
(1.02386 -0.025297 0)
(1.01406 -0.0180673 0)
(1.00853 -0.0114355 0)
(1.00566 -0.00566929 0)
(1.00447 -0.000371177 0)
(1.00477 0.00474342 0)
(1.00661 0.010032 0)
(1.01057 0.0159881 0)
(1.01789 0.0227251 0)
(1.03048 0.0298173 0)
(1.05046 0.0368944 0)
(1.08003 0.0446613 0)
(1.10563 0.0519744 0)
(0.943207 0.0410264 0)
(0.217143 0.00140702 0)
(0.176702 -0.000627556 0)
(1.01948 -0.0354342 0)
(1.10576 -0.0413646 0)
(1.07803 -0.0363382 0)
(1.05252 -0.0302819 0)
(1.0353 -0.0243915 0)
(1.02342 -0.0185806 0)
(1.01559 -0.0125668 0)
(1.01096 -0.00645624 0)
(1.0089 -0.000207447 0)
(1.0094 0.00595432 0)
(1.01247 0.0118686 0)
(1.01845 0.0176172 0)
(1.02805 0.0231648 0)
(1.04222 0.0286979 0)
(1.06303 0.0344634 0)
(1.09382 0.0403341 0)
(1.09436 0.0418397 0)
(0.83004 0.0228025 0)
(0.175543 0.000649661 0)
(0.154822 -0.000461233 0)
(0.958348 -0.0256535 0)
(1.1045 -0.0350519 0)
(1.08817 -0.0325873 0)
(1.06137 -0.0280653 0)
(1.04333 -0.0230845 0)
(1.03092 -0.017762 0)
(1.02229 -0.012199 0)
(1.01671 -0.00626846 0)
(1.01402 0.000200202 0)
(1.01463 0.00666419 0)
(1.01839 0.0125337 0)
(1.0252 0.0178243 0)
(1.03533 0.022796 0)
(1.05003 0.0275996 0)
(1.07195 0.0320191 0)
(1.10092 0.035876 0)
(1.06954 0.0340556 0)
(0.742243 0.0144866 0)
(0.153083 0.000486042 0)
(0.140174 -0.000332952 0)
(0.901451 -0.0192809 0)
(1.09697 -0.0301403 0)
(1.09635 -0.0292405 0)
(1.06912 -0.0254388 0)
(1.05028 -0.0213309 0)
(1.03729 -0.0166059 0)
(1.02827 -0.0113301 0)
(1.02229 -0.00558213 0)
(1.01925 0.000792181 0)
(1.01982 0.00716976 0)
(1.02378 0.012816 0)
(1.03083 0.017767 0)
(1.04132 0.0221924 0)
(1.05664 0.0261134 0)
(1.07943 0.0296025 0)
(1.10317 0.0322907 0)
(1.03763 0.028243 0)
(0.675257 0.0103489 0)
(0.137722 0.000362432 0)
(0.129478 -0.000251294 0)
(0.851717 -0.0148761 0)
(1.0847 -0.0260229 0)
(1.10208 -0.0263395 0)
(1.07599 -0.0229951 0)
(1.05664 -0.0193137 0)
(1.04322 -0.0150869 0)
(1.03383 -0.0101922 0)
(1.02756 -0.00466238 0)
(1.02429 0.0015293 0)
(1.02472 0.00769088 0)
(1.02869 0.013052 0)
(1.03588 0.0175756 0)
(1.04665 0.0213911 0)
(1.06233 0.0247106 0)
(1.08556 0.0277166 0)
(1.10232 0.0294971 0)
(1.00278 0.0237309 0)
(0.623 0.00795639 0)
(0.126155 0.000287134 0)
(0.12134 -0.000192252 0)
(0.809386 -0.0116829 0)
(1.0695 -0.0224108 0)
(1.10567 -0.0236844 0)
(1.08228 -0.0207883 0)
(1.06248 -0.01733 0)
(1.04879 -0.0133813 0)
(1.03913 -0.00880366 0)
(1.03258 -0.00354349 0)
(1.02906 0.00241865 0)
(1.02932 0.00831258 0)
(1.03322 0.0133189 0)
(1.04047 0.0173795 0)
(1.05132 0.0207148 0)
(1.06724 0.0236359 0)
(1.09085 0.0263199 0)
(1.09858 0.0271852 0)
(0.967453 0.0201913 0)
(0.580975 0.00640048 0)
(0.116957 0.000235777 0)
(0.115047 -0.000147378 0)
(0.773742 -0.0092904 0)
(1.05278 -0.0192267 0)
(1.10808 -0.0212261 0)
(1.0882 -0.0187071 0)
(1.06799 -0.0154058 0)
(1.05403 -0.0116211 0)
(1.04418 -0.00724043 0)
(1.0374 -0.00221448 0)
(1.0336 0.00349073 0)
(1.03363 0.00907617 0)
(1.03739 0.0137029 0)
(1.04457 0.0173557 0)
(1.05542 0.0203077 0)
(1.07157 0.0228962 0)
(1.09487 0.0252274 0)
(1.09199 0.0252801 0)
(0.933006 0.0174609 0)
(0.546166 0.00533719 0)
(0.109376 0.000200197 0)
(0.11015 -0.000111853 0)
(0.743861 -0.00743423 0)
(1.03562 -0.016399 0)
(1.10955 -0.0189099 0)
(1.09383 -0.0166991 0)
(1.07332 -0.0134938 0)
(1.05908 -0.00980276 0)
(1.04903 -0.00554113 0)
(1.04202 -0.00068061 0)
(1.03793 0.00478046 0)
(1.03766 0.0100455 0)
(1.04118 0.0143116 0)
(1.04822 0.0176002 0)
(1.05905 0.0202009 0)
(1.07541 0.0224967 0)
(1.09758 0.0244484 0)
(1.08292 0.0237285 0)
(0.900013 0.015391 0)
(0.516501 0.0045984 0)
(0.102914 0.000175813 0)
(0.10636 -8.24468e-05 0)
(0.718924 -0.00593753 0)
(1.01884 -0.0138565 0)
(1.1102 -0.0166669 0)
(1.09935 -0.014733 0)
(1.07857 -0.0115416 0)
(1.06403 -0.00788188 0)
(1.05375 -0.00368071 0)
(1.04648 0.00107279 0)
(1.04206 0.00633038 0)
(1.0414 0.0112963 0)
(1.04462 0.0152221 0)
(1.05147 0.0181625 0)
(1.06225 0.0204221 0)
(1.0788 0.0224538 0)
(1.09893 0.0239976 0)
(1.07176 0.0225274 0)
(0.868594 0.0138689 0)
(0.490502 0.00409253 0)
(0.0972214 0.000160085 0)
(0.103484 -5.69614e-05 0)
(0.69829 -0.00468195 0)
(1.00307 -0.0115329 0)
(1.11019 -0.0144606 0)
(1.10474 -0.0127243 0)
(1.08383 -0.00949886 0)
(1.06896 -0.00581141 0)
(1.05841 -0.00160733 0)
(1.05083 0.00309051 0)
(1.046 0.00819642 0)
(1.04488 0.0128982 0)
(1.04772 0.0164977 0)
(1.05433 0.0190944 0)
(1.06504 0.0210199 0)
(1.08173 0.0227916 0)
(1.09924 0.0239336 0)
(1.05877 0.0216933 0)
(0.838584 0.0128068 0)
(0.467062 0.00376303 0)
(0.0920348 0.000151181 0)
(0.101403 -3.34527e-05 0)
(0.681485 -0.00357908 0)
(0.988769 -0.00935801 0)
(1.10971 -0.0122052 0)
(1.10994 -0.0105826 0)
(1.08917 -0.00730128 0)
(1.07394 -0.00352545 0)
(1.06307 0.00074614 0)
(1.05511 0.00544429 0)
(1.04977 0.0104486 0)
(1.0481 0.0149141 0)
(1.05048 0.0181999 0)
(1.05682 0.0204517 0)
(1.06742 0.0220381 0)
(1.08417 0.0235396 0)
(1.09854 0.0242541 0)
(1.04411 0.0212336 0)
(0.809647 0.0121314 0)
(0.445315 0.00357092 0)
(0.0871483 0.000147569 0)
(0.100052 -1.02291e-05 0)
(0.668205 -0.00255962 0)
(0.976301 -0.00725805 0)
(1.1091 -0.00984228 0)
(1.1151 -0.00824945 0)
(1.09467 -0.00487658 0)
(1.07906 -0.000948035 0)
(1.0678 0.00345314 0)
(1.05937 0.0082183 0)
(1.05343 0.0131722 0)
(1.05109 0.0174269 0)
(1.05292 0.0204058 0)
(1.05893 0.0223069 0)
(1.06938 0.0235357 0)
(1.08614 0.0247697 0)
(1.09658 0.0250235 0)
(1.02781 0.0211445 0)
(0.781346 0.0117914 0)
(0.424549 0.00349173 0)
(0.0823957 0.000148323 0)
(0.0994169 1.48615e-05 0)
(0.658294 -0.00156927 0)
(0.965982 -0.00516095 0)
(1.10867 -0.007307 0)
(1.12035 -0.0056516 0)
(1.10043 -0.00213732 0)
(1.08439 0.00201202 0)
(1.07268 0.0066128 0)
(1.06368 0.0115158 0)
(1.05699 0.0164732 0)
(1.05384 0.0205414 0)
(1.05502 0.0232115 0)
(1.06062 0.0247412 0)
(1.07091 0.0256024 0)
(1.08758 0.0265277 0)
(1.09334 0.0262476 0)
(1.00984 0.0214595 0)
(0.753192 0.0117569 0)
(0.404169 0.00350997 0)
(0.0776405 0.000152855 0)
(0.0995133 3.55075e-05 0)
(0.651718 -0.000563517 0)
(0.958116 -0.00299659 0)
(1.10878 -0.00452783 0)
(1.12586 -0.00270028 0)
(1.10653 0.00101758 0)
(1.09003 0.00546282 0)
(1.07777 0.010343 0)
(1.06808 0.0154563 0)
(1.06049 0.0204707 0)
(1.05638 0.0243729 0)
(1.05677 0.0267276 0)
(1.06189 0.0278779 0)
(1.07197 0.0283468 0)
(1.08825 0.0288999 0)
(1.08855 0.0279795 0)
(0.990014 0.0222154 0)
(0.724634 0.0120144 0)
(0.383631 0.00361723 0)
(0.072759 0.000160764 0)
(0.100396 7.13156e-05 0)
(0.648566 0.000473978 0)
(0.953023 -0.000690236 0)
(1.10978 -0.00142368 0)
(1.13183 0.000700508 0)
(1.11311 0.00469926 0)
(1.09609 0.00953207 0)
(1.08317 0.0147817 0)
(1.07263 0.0201833 0)
(1.06396 0.0253082 0)
(1.05868 0.0290587 0)
(1.05815 0.0310816 0)
(1.06269 0.031837 0)
(1.0725 0.0318875 0)
(1.08801 0.0320145 0)
(1.08192 0.0303168 0)
(0.968038 0.0234413 0)
(0.695063 0.0125528 0)
(0.362421 0.00380486 0)
(0.0676406 0.000171406 0)
(0.102255 0.000104875 0)
(0.649223 0.00164737 0)
(0.951064 0.00185506 0)
(1.11211 0.00212396 0)
(1.13848 0.00463492 0)
(1.12029 0.00906819 0)
(1.10268 0.0143898 0)
(1.08898 0.0201065 0)
(1.0774 0.0258804 0)
(1.06741 0.0311642 0)
(1.06074 0.034764 0)
(1.05911 0.0364124 0)
(1.06297 0.0367547 0)
(1.07245 0.0363515 0)
(1.08661 0.0359927 0)
(1.07319 0.0333465 0)
(0.943493 0.0251735 0)
(0.663825 0.0133665 0)
(0.340062 0.00406585 0)
(0.0621904 0.000184181 0)
(0.105159 0.000153588 0)
(0.654139 0.00311399 0)
(0.952718 0.00478777 0)
(1.11627 0.00621508 0)
(1.14602 0.00928835 0)
(1.12825 0.0142991 0)
(1.10995 0.0202288 0)
(1.09528 0.0265267 0)
(1.08244 0.0327612 0)
(1.07086 0.0382459 0)
(1.06254 0.0416753 0)
(1.05964 0.042904 0)
(1.06267 0.0427987 0)
(1.07175 0.0418905 0)
(1.08387 0.0410162 0)
(1.06198 0.0371793 0)
(0.91581 0.0274585 0)
(0.63021 0.0144492 0)
(0.316096 0.00439158 0)
(0.0563288 0.000198243 0)
(0.109388 0.000216834 0)
(0.663709 0.00481002 0)
(0.958435 0.00824439 0)
(1.12274 0.0110247 0)
(1.15474 0.0148538 0)
(1.13719 0.0206202 0)
(1.11806 0.0273061 0)
(1.1022 0.0343145 0)
(1.0878 0.0410923 0)
(1.07429 0.0467953 0)
(1.06404 0.0500046 0)
(1.05965 0.0507438 0)
(1.06172 0.0501519 0)
(1.07032 0.0486683 0)
(1.0799 0.0471951 0)
(1.04775 0.0419267 0)
(0.884273 0.0303141 0)
(0.593456 0.015777 0)
(0.290104 0.00476519 0)
(0.0499997 0.000212144 0)
(0.115284 0.000301538 0)
(0.678711 0.00691485 0)
(0.968852 0.0124257 0)
(1.13208 0.0167988 0)
(1.16501 0.0216066 0)
(1.14739 0.0283651 0)
(1.1272 0.0359808 0)
(1.10984 0.0438298 0)
(1.09351 0.0512101 0)
(1.07768 0.0570975 0)
(1.06515 0.0599872 0)
(1.05899 0.0601213 0)
(1.06004 0.058992 0)
(1.06813 0.0568956 0)
(1.0744 0.0547209 0)
(1.02984 0.0476636 0)
(0.847993 0.033736 0)
(0.552779 0.0173005 0)
(0.26175 0.00516013 0)
(0.0431856 0.000224113 0)
(0.123351 0.000424076 0)
(0.700115 0.00967569 0)
(0.984847 0.0176457 0)
(1.14498 0.0238827 0)
(1.17732 0.0299383 0)
(1.15914 0.0379852 0)
(1.13757 0.0467213 0)
(1.11828 0.0555276 0)
(1.09954 0.0635159 0)
(1.08093 0.0694799 0)
(1.06578 0.0718861 0)
(1.05761 0.0712748 0)
(1.05754 0.0694731 0)
(1.06508 0.0666842 0)
(1.06701 0.0635923 0)
(1.00736 0.0544454 0)
(0.805936 0.037658 0)
(0.507442 0.0189276 0)
(0.230848 0.00553516 0)
(0.0359255 0.000231656 0)
(0.13432 0.000597494 0)
(0.729142 0.0134617 0)
(1.00758 0.0243766 0)
(1.1622 0.0328289 0)
(1.19228 0.0404494 0)
(1.17281 0.0501546 0)
(1.14933 0.0602015 0)
(1.12752 0.0700158 0)
(1.10577 0.0784982 0)
(1.08387 0.0842932 0)
(1.06574 0.0859448 0)
(1.05541 0.0844025 0)
(1.05414 0.0818368 0)
(1.06084 0.0781753 0)
(1.057 0.0739966 0)
(0.979164 0.0622354 0)
(0.756955 0.0419257 0)
(0.456864 0.0205085 0)
(0.197457 0.00583341 0)
(0.0283334 0.000231913 0)
(0.149453 0.000876765 0)
(0.767837 0.0188858 0)
(1.03873 0.0334116 0)
(1.1847 0.0445901 0)
(1.21067 0.0543354 0)
(1.18872 0.0659299 0)
(1.16253 0.0773924 0)
(1.13741 0.0880812 0)
(1.11196 0.0967239 0)
(1.08622 0.101899 0)
(1.06483 0.102386 0)
(1.05223 0.0996432 0)
(1.04971 0.0961831 0)
(1.05508 0.091747 0)
(1.04352 0.086004 0)
(0.943781 0.0708421 0)
(0.699921 0.0462506 0)
(0.40083 0.0218251 0)
(0.162009 0.00598378 0)
(0.0206173 0.000221898 0)
(0.170972 0.00135997 0)
(0.819492 0.0271205 0)
(1.08091 0.0463329 0)
(1.21361 0.0610412 0)
(1.23304 0.0735631 0)
(1.20696 0.0869189 0)
(1.17691 0.0995946 0)
(1.14751 0.110647 0)
(1.11762 0.118779 0)
(1.08759 0.12263 0)
(1.06274 0.121383 0)
(1.04788 0.117098 0)
(1.04416 0.112556 0)
(1.04781 0.107269 0)
(1.02538 0.0994848 0)
(0.899396 0.0798589 0)
(0.634026 0.0501852 0)
(0.339861 0.0226108 0)
(0.125474 0.0059145 0)
(0.0130937 0.000198594 0)
(0.202315 0.00243379 0)
(0.889886 0.0408999 0)
(1.13771 0.0670123 0)
(1.24935 0.0857388 0)
(1.25917 0.100904 0)
(1.2269 0.115471 0)
(1.19166 0.1284 0)
(1.15701 0.138688 0)
(1.12208 0.145195 0)
(1.08745 0.146717 0)
(1.05915 0.142993 0)
(1.04217 0.136769 0)
(1.03737 0.130946 0)
(1.03849 0.124627 0)
(1.00089 0.114035 0)
(0.843893 0.0885301 0)
(0.55945 0.0531554 0)
(0.275953 0.0226808 0)
(0.0897063 0.00561764 0)
(0.00627571 0.000162977 0)
(0.245011 0.00875166 4.82946e-20)
(0.983123 0.0684122 4.21594e-20)
(1.20688 0.101678 -1.47221e-20)
(1.28886 0.122253 0)
(1.28623 0.13998 -3.74224e-34)
(1.2464 0.153936 5.46642e-21)
(1.2052 0.165337 -9.81219e-21)
(1.16479 0.173435 0)
(1.12448 0.177222 2.00963e-34)
(1.08503 0.1756 -1.20773e-20)
(1.05311 0.168926 0)
(1.03394 0.160624 -1.43283e-20)
(1.02837 0.153792 -4.22668e-20)
(1.02582 0.147171 -1.9966e-20)
(0.965728 0.132097 -6.00813e-21)
(0.770776 0.0981887 -3.56935e-21)
(0.470995 0.0553991 0)
(0.207646 0.0223947 2.4936e-21)
(0.0547345 0.00534993 2.94365e-21)
(0.000128263 0.000119823 5.31136e-20)
(0.274927 0.0244253 3.53382e-20)
(1.06011 0.111425 5.47641e-22)
(1.26392 0.151088 3.9248e-21)
(1.32425 0.171872 0)
(1.31 0.189365 -1.89678e-20)
(1.26317 0.201147 -2.15289e-20)
(1.21608 0.21022 -9.8955e-21)
(1.16986 0.215832 -3.51234e-20)
(1.12399 0.216849 0)
(1.07937 0.212155 5.13308e-20)
(1.04343 0.202646 5.086e-20)
(1.0219 0.192324 1.5088e-20)
(1.01417 0.183851 5.5028e-20)
(1.00262 0.175135 7.73387e-20)
(0.909802 0.152951 0)
(0.671154 0.107828 1.08929e-19)
(0.366805 0.0569592 1.56092e-19)
(0.136643 0.0213382 1.73262e-19)
(0.0195739 0.0038675 -1.98025e-19)
(-0.00612999 -0.000511251 -3.73259e-21)
(0.275954 0.0404344 0)
(1.1088 0.167142 6.21645e-21)
(1.30238 0.211866 0)
(1.35177 0.232073 -2.46975e-20)
(1.32869 0.246439 0)
(1.27597 0.254328 -4.22385e-20)
(1.22338 0.259649 2.01826e-20)
(1.17168 0.261656 -7.06153e-20)
(1.12054 0.259019 -1.58867e-21)
(1.07101 0.250579 2.65071e-20)
(1.03131 0.23776 1.11561e-19)
(1.00754 0.225049 -2.02969e-22)
(0.99742 0.214694 -3.99029e-20)
(0.976791 0.202854 -7.26113e-20)
(0.858969 0.172526 8.58793e-20)
(0.598928 0.116111 -1.51964e-19)
(0.304882 0.058248 -2.00245e-20)
(0.0989644 0.0199692 0)
(0.00113397 0.001572 -1.43024e-23)
(-0.00969262 -0.00136815 0)
(0.269387 0.0542644 8.06334e-20)
(1.13502 0.226131 -3.94414e-20)
(1.3261 0.277104 -3.0418e-20)
(1.37004 0.297427 1.16367e-20)
(1.34086 0.307807 -1.95538e-20)
(1.28373 0.311135 8.8344e-20)
(1.22661 0.312013 4.20265e-20)
(1.1702 0.309747 0)
(1.11436 0.302876 -1.3279e-19)
(1.06036 0.290182 0)
(1.01717 0.273645 -5.84353e-20)
(0.991244 0.258225 -7.21048e-20)
(0.978753 0.245585 -4.33376e-20)
(0.950157 0.229864 -5.25996e-20)
(0.817391 0.191452 0)
(0.551653 0.125335 0)
(0.271164 0.0611957 -1.30049e-19)
(0.078585 0.0189646 2.5656e-20)
(-0.0104091 -0.00109894 -1.50283e-20)
(-0.012496 -0.00243799 -1.75809e-20)
(0.261504 0.066449 -3.14773e-20)
(1.14641 0.284912 0)
(1.33908 0.343211 6.15385e-20)
(1.38002 0.364142 3.25698e-20)
(1.3466 0.370622 4.52133e-20)
(1.28627 0.369356 0)
(1.22561 0.365661 4.10511e-20)
(1.1653 0.358913 7.79203e-20)
(1.10543 0.347561 6.79441e-20)
(1.04742 0.33034 1.24424e-19)
(1.00099 0.309789 0)
(0.972974 0.291385 -1.55204e-19)
(0.958158 0.276139 -9.34012e-20)
(0.923428 0.256391 -5.52041e-20)
(0.783741 0.210687 3.37234e-19)
(0.52201 0.136272 4.00073e-20)
(0.254151 0.0659102 1.87826e-19)
(0.0689039 0.0186553 -8.87317e-19)
(-0.0170172 -0.00372783 5.24634e-19)
(-0.0146526 -0.00361472 -6.32382e-19)
(0.25384 0.0774008 -1.4131e-20)
(1.14824 0.341598 5.67629e-21)
(1.34422 0.40826 -6.50713e-21)
(1.38333 0.430324 -3.25821e-20)
(1.34687 0.433145 -3.79262e-20)
(1.28416 0.427459 1.80147e-21)
(1.22069 0.419332 -4.445e-20)
(1.15719 0.408157 8.04785e-20)
(1.09386 0.392322 -1.4609e-19)
(1.03229 0.370507 0)
(0.982856 0.34583 -7.0313e-20)
(0.952725 0.324284 -1.58498e-21)
(0.935641 0.306327 -1.02107e-19)
(0.896675 0.28259 0)
(0.755931 0.2305 -7.29458e-20)
(0.503505 0.149015 -1.72746e-19)
(0.247613 0.0725703 4.59436e-19)
(0.0674055 0.0197143 -4.52697e-19)
(-0.0189562 -0.00565916 6.41635e-19)
(-0.0158487 -0.00470837 -6.66768e-19)
(0.247272 0.0874671 -4.22163e-22)
(1.14406 0.395516 -1.58743e-21)
(1.34369 0.471251 -1.71904e-20)
(1.38139 0.494765 1.28219e-20)
(1.34273 0.494326 -1.90392e-20)
(1.27822 0.484504 0)
(1.2125 0.472192 -4.13091e-20)
(1.14632 0.456781 -8.42447e-20)
(1.07999 0.436601 -7.59173e-20)
(1.01521 0.410271 0)
(0.962961 0.381472 -7.29218e-20)
(0.930742 0.356739 -9.0242e-20)
(0.911527 0.336028 1.10707e-19)
(0.869715 0.30849 -6.70713e-20)
(0.731409 0.251065 -3.18321e-19)
(0.490786 0.163353 1.88465e-19)
(0.246913 0.0808102 5.58033e-20)
(0.0706651 0.0222588 0)
(-0.0171153 -0.00645505 -6.20526e-19)
(-0.0159906 -0.00550402 -2.27746e-20)
(0.241926 0.0969618 1.25387e-21)
(1.13621 0.446481 -1.10744e-21)
(1.339 0.531717 7.84463e-21)
(1.37547 0.556744 4.62117e-20)
(1.33514 0.553499 -6.97837e-20)
(1.26927 0.539908 8.32291e-20)
(1.20171 0.523713 8.89953e-20)
(1.13326 0.50433 -1.34627e-19)
(1.06427 0.480027 4.6846e-20)
(0.996562 0.449342 -3.05756e-19)
(0.941654 0.416496 -8.24499e-20)
(0.907388 0.388608 0)
(0.886104 0.365181 1.20158e-19)
(0.842269 0.334195 1.43957e-19)
(0.708372 0.27183 1.71664e-19)
(0.48019 0.178661 -2.05014e-19)
(0.247847 0.0903424 -6.04961e-20)
(0.0761748 0.026314 7.11718e-20)
(-0.0127667 -0.00596022 0)
(-0.0152448 -0.005941 -4.94877e-20)
(0.237739 0.106053 -3.62594e-20)
(1.12638 0.494604 1.63587e-20)
(1.33141 0.589455 -6.71749e-21)
(1.36658 0.615958 2.76392e-20)
(1.32491 0.610271 -3.1141e-20)
(1.25799 0.593281 -4.10873e-21)
(1.18894 0.573557 -9.73535e-20)
(1.11853 0.550513 -4.87371e-20)
(1.04717 0.52235 -1.31976e-19)
(0.976732 0.487527 3.269e-22)
(0.919279 0.450773 -2.5849e-19)
(0.883022 0.419819 2.17875e-19)
(0.859827 0.393776 -1.32171e-19)
(0.814544 0.359312 1.5875e-19)
(0.685588 0.292416 0)
(0.469372 0.194437 -1.11649e-19)
(0.248709 0.100478 2.98566e-22)
(0.0822254 0.0314096 -3.11069e-19)
(-0.00723149 -0.00449087 -4.56349e-20)
(-0.0139434 -0.00606503 0)
(0.234594 0.114888 0)
(1.11554 0.540114 2.09103e-20)
(1.32186 0.644882 -2.82287e-21)
(1.35555 0.672257 -2.48059e-20)
(1.31274 0.664439 -3.99988e-20)
(1.24501 0.64441 0)
(1.17472 0.621505 -4.4143e-20)
(1.10261 0.595131 -1.04096e-21)
(1.02907 0.563415 2.83075e-19)
(0.956059 0.524703 -4.20576e-20)
(0.896153 0.484202 -1.86744e-19)
(0.857977 0.450262 1.13397e-19)
(0.832963 0.421609 -2.23883e-21)
(0.786429 0.38378 1.69204e-19)
(0.662036 0.31237 1.03625e-19)
(0.456924 0.209992 -2.41134e-19)
(0.247426 0.110704 2.85209e-19)
(0.0871113 0.0370923 8.44968e-20)
(-0.00160991 -0.00226316 3.48067e-19)
(-0.0123046 -0.00589271 -9.29644e-19)
(0.232419 0.123624 -1.60958e-20)
(1.10443 0.58319 1.91763e-20)
(1.31093 0.697321 -1.07531e-20)
(1.343 0.725622 1.84241e-20)
(1.29921 0.715909 0)
(1.23083 0.693173 -3.80497e-20)
(1.15951 0.667433 1.48752e-19)
(1.08589 0.638065 1.07079e-19)
(1.01034 0.603116 0)
(0.934855 0.560791 -6.0635e-19)
(0.87255 0.516709 5.05863e-19)
(0.83251 0.479826 0)
(0.805785 0.448557 1.54819e-19)
(0.758056 0.407283 -2.22631e-21)
(0.637317 0.331328 -3.33107e-19)
(0.44264 0.224424 1.30034e-19)
(0.243525 0.120389 0)
(0.0899155 0.0426721 4.56687e-19)
(0.00305918 0.000160232 0)
(-0.0106768 -0.00556149 -4.40693e-19)
(0.231072 0.132327 2.0484e-20)
(1.09345 0.624102 2.83628e-20)
(1.29926 0.746836 -9.66233e-21)
(1.32942 0.776072 0)
(1.28477 0.764665 -3.35661e-20)
(1.21589 0.739533 0)
(1.1437 0.711276 -1.46806e-19)
(1.06872 0.679247 -4.97353e-20)
(0.991295 0.641402 5.0058e-20)
(0.913393 0.595757 -3.00163e-19)
(0.848677 0.548252 5.22954e-20)
(0.806792 0.508438 0)
(0.778431 0.474494 -3.31156e-19)
(0.72945 0.429616 2.13638e-21)
(0.611434 0.348889 0)
(0.426185 0.237336 9.99965e-22)
(0.236775 0.128844 4.18222e-19)
(0.0899605 0.0474868 -3.94624e-19)
(0.00612513 0.00229615 1.16473e-19)
(-0.00928752 -0.00519215 0)
(0.230234 0.140904 0)
(1.08289 0.662924 3.63587e-20)
(1.28701 0.7936 1.95741e-20)
(1.31523 0.823655 -2.5505e-21)
(1.2698 0.810738 -1.07174e-20)
(1.20054 0.783491 -8.61714e-20)
(1.12761 0.753019 5.52445e-20)
(1.0514 0.718652 -5.88549e-20)
(0.972193 0.678237 2.23706e-19)
(0.891893 0.629593 -4.80809e-19)
(0.824707 0.578828 -4.18142e-21)
(0.780965 0.536088 -1.4516e-19)
(0.751011 0.499304 5.37862e-19)
(0.700726 0.450489 -2.57477e-21)
(0.584829 0.364579 -2.5919e-19)
(0.407741 0.248215 -4.59751e-19)
(0.227532 0.135535 0)
(0.0876202 0.0509357 0)
(0.00752446 0.00372849 1.25753e-19)
(-0.00825193 -0.00492055 -7.37581e-20)
(0.230113 0.149482 3.12826e-20)
(1.07296 0.699563 -8.48496e-20)
(1.27446 0.837755 -2.10462e-20)
(1.30077 0.868439 0)
(1.25461 0.854186 -1.50449e-21)
(1.18505 0.825076 -7.87909e-20)
(1.1115 0.792674 1.33461e-19)
(1.03418 0.756274 2.31976e-19)
(0.953263 0.713625 2.91256e-19)
(0.870567 0.662314 -3.93455e-19)
(0.800804 0.608484 -4.3651e-19)
(0.755101 0.562795 3.88638e-19)
(0.723518 0.522889 0)
(0.671808 0.469593 -1.18152e-19)
(0.55754 0.37801 -2.8013e-19)
(0.387702 0.25662 -3.30786e-19)
(0.216042 0.14012 -3.90144e-19)
(0.0832308 0.0527889 1.15206e-19)
(0.00750015 0.00433472 -6.77195e-20)
(-0.00755812 -0.00478353 3.10094e-22)
(0.230136 0.157977 0)
(1.06376 0.734371 0)
(1.26188 0.879379 2.46978e-21)
(1.28625 0.910536 0)
(1.23942 0.8951 2.29675e-20)
(1.16964 0.86435 5.34278e-20)
(1.09558 0.830272 0)
(1.01725 0.792129 2.75973e-20)
(0.934707 0.747573 4.87116e-19)
(0.849603 0.693947 -9.05667e-19)
(0.777105 0.637292 0)
(0.729249 0.588606 -2.50627e-19)
(0.695889 0.545181 -3.02128e-21)
(0.64265 0.486708 -2.27184e-21)
(0.529685 0.388893 3.00213e-19)
(0.366119 0.262274 -2.73816e-23)
(0.202847 0.142279 -8.40694e-19)
(0.0771795 0.0530374 2.47871e-19)
(0.00642223 0.00418297 7.32432e-20)
(-0.00711353 -0.00474765 0)
(0.230292 0.166346 -1.31478e-19)
(1.05505 0.767533 -6.10722e-20)
(1.24939 0.918568 -7.22473e-20)
(1.27185 0.950088 4.73111e-20)
(1.22443 0.933556 2.58529e-20)
(1.15451 0.901376 0)
(1.08002 0.865858 8.12225e-20)
(1.00077 0.826244 -6.16523e-20)
(0.916684 0.780101 3.92594e-21)
(0.829167 0.724528 6.682e-20)
(0.753743 0.665337 5.66995e-19)
(0.703433 0.613609 -8.80234e-20)
(0.668035 0.566195 -3.32383e-19)
(0.613102 0.501649 -1.37744e-19)
(0.501332 0.39687 1.62754e-19)
(0.343706 0.264881 1.35725e-22)
(0.188493 0.141933 2.2642e-19)
(0.0700517 0.0517016 -5.3344e-19)
(0.00467869 0.00342608 6.3034e-19)
(-0.00682068 -0.00477605 9.19279e-20)
(0.230405 0.174462 5.08495e-20)
(1.04682 0.799126 -3.50139e-20)
(1.23712 0.955423 6.24881e-21)
(1.2577 0.987232 3.68167e-20)
(1.20976 0.969667 1.20962e-21)
(1.13977 0.936231 -9.36505e-20)
(1.06495 0.899486 2.35227e-20)
(0.984879 0.858642 -2.57465e-19)
(0.899329 0.811214 -5.39028e-19)
(0.809402 0.754075 -5.41489e-19)
(0.73086 0.692702 0)
(0.677683 0.637938 -3.87122e-19)
(0.63983 0.586036 4.79547e-19)
(0.582916 0.514266 0)
(0.472457 0.401495 -3.48891e-19)
(0.321196 0.263966 2.07016e-19)
(0.174148 0.138886 -2.43495e-19)
(0.0630301 0.0490495 -2.8698e-19)
(0.0028155 0.00229912 -5.07728e-19)
(-0.00664737 -0.00485877 -3.9591e-19)
(0.230875 0.182455 -5.84227e-20)
(1.03894 0.829149 3.7487e-20)
(1.22511 0.990019 8.31096e-20)
(1.24389 1.02205 5.79309e-20)
(1.19553 1.00353 1.73811e-21)
(1.12552 0.969003 -5.04031e-20)
(1.05046 0.931208 7.87949e-20)
(0.969664 0.889367 -2.65146e-19)
(0.882738 0.840936 -3.20052e-19)
(0.790436 0.78261 5.68313e-19)
(0.70858 0.71946 1.24917e-18)
(0.652062 0.661778 0)
(0.611151 0.604897 0)
(0.55172 0.524522 -1.58631e-19)
(0.442749 0.402292 0)
(0.298883 0.258592 4.44757e-19)
(0.161403 0.132284 5.23273e-19)
(0.0581725 0.044953 0)
(0.00207255 0.00108456 0)
(-0.00653895 -0.00495048 4.25424e-19)
(0.23104 0.19003 6.74653e-20)
(1.03142 0.857599 5.41189e-20)
(1.21344 1.02248 6.08615e-20)
(1.23049 1.05468 -6.05246e-20)
(1.18181 1.03525 -5.22008e-21)
(1.11184 0.999768 5.10945e-20)
(1.03662 0.961087 -1.08501e-19)
(0.955197 0.918447 -6.71138e-22)
(0.866996 0.869275 -5.11347e-21)
(0.772369 0.810136 -4.41717e-21)
(0.687047 0.745667 6.44238e-19)
(0.626675 0.685317 0)
(0.581912 0.623044 4.86817e-19)
(0.519068 0.532575 3.39156e-19)
(0.411441 0.399004 8.14006e-19)
(0.276357 0.24733 2.39706e-19)
(0.151878 0.119243 -2.81444e-19)
(0.060197 0.0359381 -1.65264e-19)
(0.00893304 -0.00137421 0)
(-0.00428737 -0.00428737 4.57129e-19)
(0.231541 0.197627 -1.54247e-19)
(1.02422 0.884569 0)
(1.2021 1.05287 7.41203e-20)
(1.21753 1.08518 -5.30842e-20)
(1.16864 1.06492 1.65313e-20)
(1.09876 1.02862 -5.30249e-20)
(1.02347 0.98918 2.11078e-19)
(0.941517 0.945919 -2.14577e-20)
(0.852151 0.896242 0)
(0.755285 0.836633 -6.29462e-19)
(0.666405 0.771347 -1.40384e-18)
(0.601672 0.708737 5.74155e-20)
(0.552137 0.640795 6.73394e-19)
(0.484619 0.538865 0)
(0.377265 0.391997 5.49825e-19)
(0.25125 0.228906 0)
(0.143324 0.0931927 0)
(0.0741196 0.00701617 -1.78597e-19)
(0.0455777 -0.0154304 0)
(0.0266186 0.00997471 1.22523e-19)
(0.231699 0.204651 -1.74178e-19)
(1.0173 0.910405 0)
(1.19107 1.08139 1.25579e-19)
(1.20498 1.1138 0)
(1.15599 1.09282 -1.30959e-20)
(1.08624 1.05583 0)
(1.01096 1.0158 1.0336e-20)
(0.928528 0.972118 3.67377e-20)
(0.838079 0.922192 4.03317e-20)
(0.739013 0.862481 -6.9167e-19)
(0.646457 0.796941 4.22218e-20)
(0.576801 0.732694 4.62706e-19)
(0.521365 0.658981 6.57701e-19)
(0.447421 0.544028 8.85047e-20)
(0.338124 0.382612 4.31446e-19)
(0.218268 0.204177 0)
(0.123216 0.0494604 5.92486e-19)
(0.06737 -0.0353792 -3.45724e-19)
(0.0415115 0.0409116 4.02525e-19)
(-0.069086 0.438354 -4.74545e-19)
(0.231862 0.211493 1.45311e-19)
(1.0104 0.934874 2.20844e-19)
(1.18028 1.10835 0)
(1.19269 1.14096 4.90184e-21)
(1.14366 1.11952 4.46514e-20)
(1.07399 1.08209 5.72998e-20)
(0.998768 1.04173 7.32142e-20)
(0.915813 0.997972 0)
(0.824239 0.948206 2.67793e-19)
(0.722873 0.888973 -3.61667e-20)
(0.626274 0.823927 0)
(0.550769 0.758854 0)
(0.487549 0.679041 5.90584e-19)
(0.404995 0.548576 -2.73734e-19)
(0.290687 0.372601 -4.38125e-19)
(0.172307 0.176423 0)
(0.0722039 0.0610576 2.98887e-19)
(0.00282093 0.436751 -3.44856e-19)
(0.0325303 1.89494 -1.88945e-19)
(0.0616829 2.814 -2.4161e-19)
(0.231874 0.217535 -1.10389e-19)
(1.00371 0.958168 -2.85772e-19)
(1.16973 1.13374 7.59354e-20)
(1.18066 1.16656 5.7633e-20)
(1.13167 1.14478 0)
(1.0621 1.10712 2.89912e-20)
(0.987088 1.06668 9.95721e-20)
(0.903566 1.02306 -1.78636e-20)
(0.810907 0.97377 4.00708e-20)
(0.707253 0.915505 6.61243e-19)
(0.606468 0.851693 7.13692e-19)
(0.524497 0.786851 5.21382e-19)
(0.451497 0.701186 5.95692e-19)
(0.358817 0.551593 -6.45427e-19)
(0.240137 0.365717 -6.63279e-19)
(0.116799 0.221935 0)
(0.0414618 0.833048 0)
(0.0988907 2.55373 1.65242e-19)
(0.100224 3.2036 0)
(0.103621 3.38894 3.93672e-19)
(0.234421 0.223135 0)
(0.997852 0.980493 0)
(1.15919 1.15741 0)
(1.16868 1.19043 1.83039e-20)
(1.11968 1.16836 4.2431e-20)
(1.05035 1.13077 8.29537e-21)
(0.975815 1.09052 6.39338e-20)
(0.891749 1.04726 -1.74718e-20)
(0.79805 0.998754 3.35904e-19)
(0.692191 0.941947 -8.79662e-21)
(0.587201 0.880164 1.41389e-18)
(0.498291 0.816529 -6.02587e-20)
(0.413386 0.726635 7.23823e-20)
(0.311426 0.550784 9.36009e-20)
(0.17668 0.377219 -5.77917e-21)
(0.096047 0.961237 1.84144e-21)
(0.137237 2.7259 -8.77118e-19)
(0.145119 3.29323 -3.2822e-19)
(0.134653 3.42548 1.69598e-19)
(0.122645 3.44766 -1.89038e-19)
(0.153306 0.1806 6.63685e-20)
(0.986612 1.00459 0)
(1.14828 1.17956 -1.55878e-19)
(1.15727 1.21307 -1.61668e-19)
(1.10858 1.19109 1.14905e-19)
(1.03968 1.15376 -3.40414e-21)
(0.964889 1.11336 -6.57713e-20)
(0.880473 1.07073 1.94866e-19)
(0.785843 1.02333 -2.75785e-19)
(0.677986 0.968484 0)
(0.568905 0.909565 6.96684e-19)
(0.472719 0.847779 -4.27463e-19)
(0.375115 0.758219 0)
(0.256869 0.546628 8.78286e-20)
(0.13956 0.726492 2.09301e-19)
(0.153024 2.50022 -2.42184e-19)
(0.209281 3.32185 2.71337e-19)
(0.189929 3.4373 1.45916e-19)
(0.158261 3.4591 1.63244e-19)
(0.136875 3.46958 2.59838e-19)
(0.277125 0.260798 -1.20283e-19)
(0.971063 1.01411 0)
(1.12997 1.20479 1.72716e-19)
(1.14209 1.24345 1.82177e-19)
(1.09108 1.22408 -1.3636e-19)
(1.02141 1.18711 -2.0065e-20)
(0.945693 1.14836 6.07349e-20)
(0.860752 1.10695 1.53135e-20)
(0.764779 1.06174 2.64435e-19)
(0.654097 1.01084 5.75793e-19)
(0.53956 0.958504 3.94208e-20)
(0.432044 0.901466 3.81999e-19)
(0.304438 0.793149 6.84209e-20)
(0.210813 0.905944 -8.67286e-20)
(0.227681 2.34771 -1.95746e-19)
(0.289403 3.32312 1.87285e-19)
(0.272279 3.46503 -2.06652e-19)
(0.237047 3.48744 -1.18907e-19)
(0.200192 3.5155 -1.00462e-19)
(0.148782 3.51007 -1.1703e-20)
(0.264925 0.25763 0)
(0.968536 1.03658 5.20339e-20)
(1.12151 1.22818 -3.62807e-20)
(1.13135 1.26705 -2.24927e-20)
(1.08016 1.24725 -9.83465e-20)
(1.01044 1.2105 2.4974e-20)
(0.934394 1.17189 -3.11217e-20)
(0.849237 1.13129 1.37768e-20)
(0.752711 1.08757 -2.76288e-19)
(0.640675 1.03958 -1.3594e-20)
(0.523193 0.992219 -1.26737e-18)
(0.41026 0.93952 5.46323e-20)
(0.285006 0.857752 -6.46714e-20)
(0.253917 1.47119 -8.03757e-20)
(0.329915 3.09845 1.81949e-20)
(0.348891 3.46183 1.17687e-22)
(0.308657 3.51855 3.01172e-19)
(0.271367 3.54602 1.47103e-19)
(0.222781 3.56995 -3.6807e-20)
(0.163841 3.56638 -5.53432e-20)
(0.248774 0.256135 1.33601e-19)
(0.964418 1.06172 3.56949e-19)
(1.11264 1.25366 -1.04169e-19)
(1.12003 1.29207 -8.47089e-20)
(1.0686 1.27175 0)
(0.99903 1.23507 6.69051e-20)
(0.922964 1.19669 -3.01168e-20)
(0.837872 1.15689 1.21218e-20)
(0.741115 1.11477 -3.08302e-20)
(0.628258 1.06996 -5.2458e-19)
(0.508682 1.02795 -5.86764e-19)
(0.391972 0.978855 -4.47862e-19)
(0.286408 0.986837 -4.91917e-19)
(0.324645 2.19693 5.06494e-19)
(0.417993 3.37088 4.23404e-19)
(0.393893 3.51902 0)
(0.348519 3.56503 0)
(0.310456 3.60668 -2.89365e-20)
(0.259655 3.66733 0)
(0.176636 3.64379 -3.09307e-20)
(0.238148 0.258027 -2.01999e-19)
(0.958379 1.08795 -3.05492e-19)
(1.10233 1.28032 0)
(1.10733 1.31779 5.87909e-21)
(1.05576 1.29686 -1.14236e-19)
(0.986483 1.26011 1.21087e-19)