/*--------------------------------*- C++ -*----------------------------------*\
| =========                 |                                                 |
| \\      /  F ield         | OpenFOAM: The Open Source CFD Toolbox           |
|  \\    /   O peration     | Version:  2112                                  |
|   \\  /    A nd           | Website:  www.openfoam.com                      |
|    \\/     M anipulation  |                                                 |
\*---------------------------------------------------------------------------*/
FoamFile
{
    version     2.0;
    format      ascii;
    arch        "LSB;label=32;scalar=64";
    class       volScalarField;
    location    "2";
    object      T;
}
// * * * * * * * * * * * * * * * * * * * * * * * * * * * * * * * * * * * * * //

dimensions      [0 0 0 1 0 0 0];

internalField   nonuniform List<scalar> 
1000
(
1.65705e-79
2.33363e-79
3.96141e-79
7.20041e-79
1.33621e-78
2.49372e-78
4.65963e-78
8.70631e-78
1.62606e-77
3.0354e-77
5.66314e-77
1.05598e-76
1.96793e-76
3.66538e-76
6.82309e-76
1.2694e-75
2.36029e-75
4.38616e-75
8.14618e-75
1.51208e-74
2.80506e-74
5.20068e-74
9.63661e-74
1.78458e-73
3.30288e-73
6.10933e-73
1.12938e-72
2.08655e-72
3.85265e-72
7.1094e-72
1.31113e-71
2.41658e-71
4.45136e-71
8.19453e-71
1.50762e-70
2.77202e-70
5.09374e-70
9.35431e-70
1.7168e-69
3.14892e-69
5.77213e-69
1.0574e-68
1.93587e-68
3.54194e-68
6.4764e-68
1.18346e-67
2.16123e-67
3.94434e-67
7.19403e-67
1.31128e-66
2.38857e-66
4.34816e-66
7.91031e-66
1.43814e-65
2.61294e-65
4.74432e-65
8.60869e-65
1.56105e-64
2.82886e-64
5.12295e-64
9.27134e-64
1.67678e-63
3.03057e-63
5.47369e-63
9.87977e-63
1.78206e-62
3.21221e-62
5.7862e-62
1.04157e-61
1.87364e-61
3.36813e-61
6.05054e-61
1.08618e-60
1.94853e-60
3.49312e-60
6.25774e-60
1.12026e-59
2.00409e-59
3.58269e-59
6.40024e-59
1.14255e-58
2.0382e-58
3.63338e-58
6.47236e-58
1.15214e-57
2.04943e-57
3.6429e-57
6.47065e-57
1.1485e-56
2.03704e-56
3.61035e-56
6.39411e-56
1.13159e-55
2.00115e-55
3.53627e-55
6.24437e-55
1.10181e-54
1.94267e-54
3.42265e-54
6.02558e-54
1.06e-53
1.86329e-53
3.27284e-53
5.74429e-53
1.00742e-52
1.76544e-52
3.09142e-52
5.40909e-52
9.45695e-52
1.65211e-51
2.88392e-51
5.0302e-51
8.76683e-51
1.52671e-50
2.65657e-50
4.6189e-50
8.02431e-50
1.39292e-49
2.41597e-49
4.18702e-49
7.25043e-49
1.25449e-48
2.16877e-48
3.74628e-48
6.4659e-48
1.11505e-47
1.92132e-47
3.30782e-47
5.69007e-47
9.77974e-47
1.67946e-46
2.88165e-46
4.94019e-46
8.46201e-46
1.44821e-45
2.47635e-45
4.23076e-45
7.22183e-45
1.23168e-44
2.09877e-44
3.57317e-44
6.07795e-44
1.03294e-43
1.75392e-43
2.97547e-43
5.04326e-43
8.54038e-43
1.44494e-42
2.44248e-42
4.12492e-42
6.95991e-42
1.17326e-41
1.97599e-41
3.32486e-41
5.58934e-41
9.38735e-41
1.57514e-40
2.64052e-40
4.42231e-40
7.39944e-40
1.2369e-39
2.06567e-39
3.44642e-39
5.7446e-39
9.56606e-39
1.59142e-38
2.64495e-38
4.39161e-38
7.28462e-38
1.20715e-37
1.99843e-37
3.30511e-37
5.46074e-37
9.01329e-37
1.48621e-36
2.44816e-36
4.02866e-36
6.6228e-36
1.08763e-35
1.78433e-35
2.92431e-35
4.78769e-35
7.8303e-35
1.27932e-34
2.088e-34
3.40427e-34
5.54451e-34
9.02076e-34
1.4661e-33
2.38025e-33
3.86027e-33
6.25384e-33
1.01207e-32
1.63607e-32
2.64195e-32
4.26161e-32
6.86671e-32
1.10521e-31
1.77691e-31
2.85367e-31
4.57783e-31
7.33553e-31
1.17413e-30
1.87722e-30
2.99792e-30
4.78228e-30
7.62001e-30
1.21277e-29
1.92799e-29
3.06147e-29
4.85572e-29
7.69258e-29
1.21726e-28
1.92393e-28
3.03726e-28
4.7892e-28
7.54274e-28
1.18653e-27
1.86427e-27
2.92563e-27
4.58571e-27
7.17906e-27
1.12254e-26
1.7531e-26
2.73451e-26
4.26009e-26
6.62861e-26
1.03012e-25
1.59887e-25
2.47853e-25
3.83735e-25
5.93365e-25
9.16354e-25
1.41336e-24
2.17715e-24
3.34941e-24
5.14624e-24
7.89679e-24
1.21018e-23
1.85217e-23
2.83105e-23
4.32158e-23
6.58819e-23
1.00303e-22
1.52506e-22
2.31569e-22
3.51148e-22
5.31763e-22
8.0419e-22
1.21454e-21
1.83177e-21
2.75892e-21
4.14964e-21
6.2328e-21
9.34878e-21
1.40031e-20
2.09453e-20
3.12853e-20
4.66642e-20
6.95047e-20
1.03378e-19
1.53541e-19
2.27719e-19
3.3725e-19
4.98744e-19
7.36504e-19
1.08603e-18
1.5991e-18
2.3511e-18
3.45167e-18
5.05995e-18
7.4066e-18
1.08254e-17
1.57987e-17
2.30222e-17
3.34979e-17
4.86667e-17
7.05969e-17
1.02253e-16
1.47878e-16
2.13532e-16
3.07859e-16
4.43167e-16
6.36953e-16
9.14047e-16
1.30963e-15
1.87346e-15
2.67581e-15
3.81571e-15
5.43254e-15
7.72212e-15
1.0959e-14
1.55277e-14
2.19655e-14
3.10219e-14
4.37408e-14
6.15734e-14
8.65339e-14
1.21412e-13
1.70066e-13
2.37822e-13
3.32017e-13
4.62745e-13
6.43859e-13
8.94349e-13
1.24019e-12
1.71683e-12
2.3726e-12
3.27325e-12
4.50801e-12
6.19783e-12
8.50632e-12
1.16543e-11
1.59395e-11
2.1762e-11
2.96592e-11
4.03508e-11
5.47994e-11
7.42891e-11
1.00531e-10
1.35798e-10
1.83108e-10
2.46455e-10
3.31116e-10
4.44051e-10
5.9442e-10
7.94251e-10
1.05931e-09
1.41023e-09
1.87392e-09
2.48545e-09
3.29042e-09
4.34796e-09
5.73461e-09
7.54927e-09
9.91942e-09
1.3009e-08
1.70285e-08
2.22475e-08
2.90104e-08
3.77565e-08
4.9045e-08
6.35856e-08
8.22774e-08
1.06257e-07
1.36958e-07
1.76185e-07
2.26203e-07
2.8985e-07
3.70673e-07
4.73095e-07
6.02621e-07
7.66082e-07
9.71939e-07
1.23065e-06
1.55509e-06
1.96112e-06
2.46817e-06
3.10005e-06
3.88579e-06
4.86079e-06
6.06805e-06
7.55967e-06
9.39867e-06
1.16611e-05
1.44382e-05
1.784e-05
2.19977e-05
2.70681e-05
3.32381e-05
4.07296e-05
4.98056e-05
6.07767e-05
7.40094e-05
8.99341e-05
0.000109056
0.000131965
0.000159349
0.00019201
0.000230876
0.00027702
0.000331681
0.000396285
0.000472464
0.000562086
0.000667282
0.000790474
0.000934407
0.00110218
0.0012973
0.00152368
0.00178573
0.00208835
0.002437
0.00283775
0.00329729
0.00382301
0.00442301
0.00510617
0.00588215
0.00676148
0.00775554
0.00887662
0.0101379
0.0115535
0.0131386
0.014909
0.0168818
0.0190746
0.0215062
0.0241961
0.0271643
0.0304318
0.0340199
0.0379505
0.0422456
0.0469277
0.052019
0.0575416
0.0635175
0.0699677
0.0769129
0.0843724
0.0923646
0.100906
0.110012
0.119696
0.129969
0.140839
0.152313
0.164394
0.177082
0.190374
0.204265
0.218745
0.233801
0.249417
0.265573
0.282246
0.299409
0.317032
0.335083
0.353524
0.372317
0.391421
0.410791
0.430383
0.450148
0.470039
0.490004
0.509995
0.529961
0.549851
0.569616
0.589207
0.608577
0.627681
0.646474
0.664914
0.682964
0.700586
0.717748
0.734419
0.750574
0.766187
0.781241
0.795717
0.809604
0.822891
0.835573
0.847646
0.859111
0.86997
0.88023
0.889898
0.898985
0.907503
0.915468
0.922895
0.929801
0.936206
0.942127
0.947585
0.9526
0.957192
0.961382
0.96519
0.968634
0.971733
0.974507
0.97697
0.97914
0.98103
0.982654
0.984024
0.985149
0.986039
0.9867
0.987138
0.987356
0.987356
0.987138
0.9867
0.986039
0.985149
0.984024
0.982654
0.98103
0.97914
0.97697
0.974507
0.971733
0.968634
0.96519
0.961382
0.957192
0.9526
0.947585
0.942127
0.936206
0.929801
0.922895
0.915468
0.907503
0.898985
0.889898
0.88023
0.86997
0.859111
0.847646
0.835573
0.822891
0.809604
0.795717
0.781241
0.766187
0.750574
0.734419
0.717748
0.700586
0.682964
0.664914
0.646474
0.627681
0.608577
0.589207
0.569616
0.549851
0.529961
0.509995
0.490004
0.470039
0.450148
0.430383
0.410791
0.391421
0.372317
0.353524
0.335083
0.317032
0.299409
0.282246
0.265573
0.249417
0.233801
0.218745
0.204265
0.190374
0.177082
0.164394
0.152313
0.140839
0.129969
0.119696
0.110012
0.100906
0.0923646
0.0843724
0.0769129
0.0699677
0.0635175
0.0575416
0.052019
0.0469277
0.0422456
0.0379505
0.0340199
0.0304318
0.0271643
0.0241961
0.0215062
0.0190746
0.0168818
0.014909
0.0131386
0.0115535
0.0101379
0.00887662
0.00775554
0.00676148
0.00588215
0.00510617
0.00442301
0.00382301
0.00329729
0.00283775
0.002437
0.00208835
0.00178573
0.00152368
0.0012973
0.00110218
0.000934407
0.000790474
0.000667282
0.000562086
0.000472464
0.000396285
0.000331681
0.00027702
0.000230876
0.00019201
0.000159349
0.000131965
0.000109056
8.99341e-05
7.40094e-05
6.07767e-05
4.98056e-05
4.07296e-05
3.32381e-05
2.70681e-05
2.19977e-05
1.784e-05
1.44382e-05
1.16611e-05
9.39867e-06
7.55967e-06
6.06805e-06
4.86079e-06
3.88579e-06
3.10005e-06
2.46817e-06
1.96112e-06
1.55509e-06
1.23065e-06
9.71939e-07
7.66082e-07
6.02621e-07
4.73095e-07
3.70673e-07
2.8985e-07
2.26203e-07
1.76185e-07
1.36958e-07
1.06257e-07
8.22774e-08
6.35856e-08
4.9045e-08
3.77565e-08
2.90104e-08
2.22475e-08
1.70285e-08
1.3009e-08
9.91942e-09
7.54927e-09
5.73461e-09
4.34796e-09
3.29042e-09
2.48545e-09
1.87392e-09
1.41023e-09
1.05931e-09
7.94251e-10
5.9442e-10
4.44051e-10
3.31116e-10
2.46455e-10
1.83108e-10
1.35798e-10
1.00531e-10
7.42891e-11
5.47994e-11
4.03508e-11
2.96592e-11
2.1762e-11
1.59395e-11
1.16543e-11
8.50632e-12
6.19783e-12
4.50801e-12
3.27325e-12
2.3726e-12
1.71683e-12
1.24019e-12
8.94349e-13
6.43859e-13
4.62745e-13
3.32017e-13
2.37822e-13
1.70066e-13
1.21412e-13
8.65339e-14
6.15734e-14
4.37408e-14
3.10219e-14
2.19655e-14
1.55277e-14
1.0959e-14
7.72212e-15
5.43254e-15
3.81571e-15
2.67581e-15
1.87346e-15
1.30963e-15
9.14047e-16
6.36953e-16
4.43167e-16
3.07859e-16
2.13532e-16
1.47878e-16
1.02253e-16
7.05969e-17
4.86667e-17
3.34979e-17
2.30222e-17
1.57987e-17
1.08254e-17
7.4066e-18
5.05995e-18
3.45167e-18
2.3511e-18
1.5991e-18
1.08603e-18
7.36504e-19
4.98744e-19
3.3725e-19
2.27719e-19
1.53541e-19
1.03378e-19
6.95047e-20
4.66642e-20
3.12853e-20
2.09453e-20
1.40031e-20
9.34878e-21
6.2328e-21
4.14964e-21
2.75892e-21
1.83177e-21
1.21454e-21
8.0419e-22
5.31763e-22
3.51148e-22
2.31569e-22
1.52506e-22
1.00303e-22
6.58819e-23
4.32158e-23
2.83105e-23
1.85217e-23
1.21018e-23
7.89679e-24
5.14624e-24
3.34941e-24
2.17715e-24
1.41336e-24
9.16354e-25
5.93365e-25
3.83735e-25
2.47853e-25
1.59887e-25
1.03012e-25
6.62861e-26
4.26009e-26
2.73451e-26
1.7531e-26
1.12254e-26
7.17906e-27
4.58571e-27
2.92563e-27
1.86427e-27
1.18653e-27
7.54274e-28
4.7892e-28
3.03726e-28
1.92393e-28
1.21726e-28
7.69258e-29
4.85572e-29
3.06147e-29
1.92799e-29
1.21277e-29
7.62001e-30
4.78228e-30
2.99792e-30
1.87722e-30
1.17413e-30
7.33553e-31
4.57783e-31
2.85367e-31
1.77691e-31
1.10521e-31
6.86671e-32
4.26161e-32
2.64195e-32
1.63607e-32
1.01207e-32
6.25384e-33
3.86027e-33
2.38025e-33
1.4661e-33
9.02076e-34
5.54451e-34
3.40427e-34
2.088e-34
1.27932e-34
7.8303e-35
4.78769e-35
2.92431e-35
1.78433e-35
1.08763e-35
6.6228e-36
4.02866e-36
2.44816e-36
1.48621e-36
9.01329e-37
5.46074e-37
3.30511e-37
1.99843e-37
1.20715e-37
7.28462e-38
4.39161e-38
2.64495e-38
1.59142e-38
9.56606e-39
5.7446e-39
3.44642e-39
2.06567e-39
1.2369e-39
7.39944e-40
4.42231e-40
2.64052e-40
1.57514e-40
9.38735e-41
5.58934e-41
3.32486e-41
1.97599e-41
1.17326e-41
6.95991e-42
4.12492e-42
2.44248e-42
1.44494e-42
8.54038e-43
5.04326e-43
2.97547e-43
1.75392e-43
1.03294e-43
6.07795e-44
3.57317e-44
2.09877e-44
1.23168e-44
7.22183e-45
4.23076e-45
2.47635e-45
1.44821e-45
8.46201e-46
4.94019e-46
2.88165e-46
1.67946e-46
9.77974e-47
5.69007e-47
3.30782e-47
1.92132e-47
1.11505e-47
6.4659e-48
3.74628e-48
2.16877e-48
1.25449e-48
7.25043e-49
4.18702e-49
2.41597e-49
1.39292e-49
8.02431e-50
4.6189e-50
2.65657e-50
1.52671e-50
8.76683e-51
5.0302e-51
2.88392e-51
1.65211e-51
9.45695e-52
5.40909e-52
3.09142e-52
1.76544e-52
1.00742e-52
5.74429e-53
3.27284e-53
1.86329e-53
1.06e-53
6.02558e-54
3.42265e-54
1.94267e-54
1.10181e-54
6.24437e-55
3.53627e-55
2.00115e-55
1.13159e-55
6.39411e-56
3.61035e-56
2.03704e-56
1.1485e-56
6.47065e-57
3.6429e-57
2.04943e-57
1.15214e-57
6.47236e-58
3.63338e-58
2.0382e-58
1.14255e-58
6.40024e-59
3.58269e-59
2.00409e-59
1.12026e-59
6.25774e-60
3.49312e-60
1.94853e-60
1.08618e-60
6.05054e-61
3.36813e-61
1.87364e-61
1.04157e-61
5.7862e-62
3.21221e-62
1.78206e-62
9.87977e-63
5.47369e-63
3.03057e-63
1.67678e-63
9.27134e-64
5.12295e-64
2.82886e-64
1.56105e-64
8.60869e-65
4.74432e-65
2.61294e-65
1.43814e-65
7.91031e-66
4.34816e-66
2.38857e-66
1.31128e-66
7.19403e-67
3.94434e-67
2.16123e-67
1.18346e-67
6.4764e-68
3.54194e-68
1.93587e-68
1.0574e-68
5.77213e-69
3.14892e-69
1.7168e-69
9.35431e-70
5.09374e-70
2.77202e-70
1.50762e-70
8.19453e-71
4.45136e-71
2.41658e-71
1.31113e-71
7.1094e-72
3.85265e-72
2.08655e-72
1.12938e-72
6.10933e-73
3.30288e-73
1.78458e-73
9.63661e-74
5.20068e-74
2.80506e-74
1.51208e-74
8.14618e-75
4.38616e-75
2.36029e-75
1.2694e-75
6.82309e-76
3.66538e-76
1.96793e-76
1.05598e-76
5.66314e-77
3.0354e-77
1.62606e-77
8.70631e-78
4.65963e-78
2.49372e-78
1.33621e-78
7.20041e-79
3.96141e-79
2.33363e-79
1.65705e-79
)
;

boundaryField
{
    sides
    {
        type            zeroGradient;
    }
    empty
    {
        type            empty;
    }
}


// ************************************************************************* //
