/*--------------------------------*- C++ -*----------------------------------*\
| =========                 |                                                 |
| \\      /  F ield         | OpenFOAM: The Open Source CFD Toolbox           |
|  \\    /   O peration     | Version:  2112                                  |
|   \\  /    A nd           | Website:  www.openfoam.com                      |
|    \\/     M anipulation  |                                                 |
\*---------------------------------------------------------------------------*/
FoamFile
{
    version     2.0;
    format      ascii;
    arch        "LSB;label=32;scalar=64";
    class       volScalarField;
    location    "34.5";
    object      p;
}
// * * * * * * * * * * * * * * * * * * * * * * * * * * * * * * * * * * * * * //

dimensions      [0 2 -2 0 0 0 0];

internalField   nonuniform List<scalar> 
8800
(
1.03653
0.988744
0.95005
0.921047
0.900173
0.885324
0.874701
0.867188
0.862323
0.860205
0.861391
0.865516
0.872107
0.881381
0.89413
0.911844
0.936607
0.970538
1.01308
1.07178
0.867795
0.875473
0.882936
0.88624
0.884728
0.879638
0.873134
0.867031
0.862267
0.859364
0.859009
0.861435
0.865857
0.871753
0.878484
0.884736
0.888358
0.88761
0.882177
0.873479
0.846218
0.852377
0.856499
0.859434
0.86147
0.862056
0.860924
0.858784
0.856716
0.855733
0.85661
0.858913
0.861648
0.86378
0.864348
0.86312
0.860756
0.857346
0.852781
0.849018
0.840448
0.843097
0.845842
0.848235
0.849857
0.850997
0.851709
0.851785
0.851431
0.851298
0.851954
0.853036
0.853801
0.853807
0.85315
0.852022
0.850177
0.847585
0.845169
0.843665
0.835122
0.836546
0.838319
0.840342
0.842111
0.84343
0.844386
0.845135
0.845681
0.846151
0.84669
0.84708
0.84709
0.84673
0.845973
0.844676
0.84294
0.841062
0.839739
0.838908
0.830117
0.831036
0.832273
0.83383
0.835448
0.836949
0.8382
0.839213
0.840099
0.840881
0.841435
0.841634
0.841481
0.840947
0.839988
0.838723
0.837343
0.836043
0.835202
0.834653
0.825302
0.825971
0.82693
0.828227
0.829623
0.831058
0.832462
0.833727
0.834836
0.835811
0.836469
0.836676
0.836449
0.835816
0.834907
0.833872
0.832786
0.83181
0.831204
0.830802
0.820637
0.821152
0.821935
0.823062
0.82433
0.825683
0.827093
0.828505
0.829833
0.831012
0.83182
0.832088
0.831875
0.831327
0.830587
0.829746
0.828876
0.828125
0.827666
0.827355
0.816056
0.816463
0.81712
0.818129
0.819327
0.820634
0.822038
0.823524
0.82503
0.826443
0.827443
0.827844
0.827773
0.827398
0.82684
0.826173
0.825476
0.824899
0.824548
0.824299
0.811488
0.811818
0.812388
0.813323
0.814479
0.81577
0.817199
0.81876
0.820421
0.822078
0.823336
0.823971
0.824124
0.823952
0.823576
0.823086
0.822541
0.8221
0.821831
0.821627
0.806858
0.807127
0.807638
0.808532
0.809671
0.810986
0.81248
0.814158
0.816001
0.817931
0.819523
0.820476
0.820899
0.82095
0.820761
0.820441
0.820046
0.819723
0.819519
0.819347
0.802097
0.802318
0.80279
0.803677
0.804847
0.806231
0.807838
0.809697
0.811809
0.814096
0.816097
0.81741
0.818123
0.818415
0.818427
0.818264
0.818003
0.817778
0.817629
0.817484
0.797145
0.797326
0.797776
0.798681
0.799919
0.80141
0.80317
0.805259
0.8077
0.810438
0.81294
0.814695
0.815765
0.816344
0.816586
0.816595
0.816469
0.816335
0.816232
0.816108
0.791926
0.792071
0.792516
0.793463
0.7948
0.796437
0.798402
0.800789
0.803651
0.806961
0.810076
0.812357
0.813857
0.814778
0.81529
0.815503
0.815515
0.815469
0.815408
0.8153
0.786364
0.786478
0.786925
0.787932
0.789402
0.791232
0.793478
0.796245
0.799608
0.803593
0.807482
0.810456
0.81249
0.813801
0.814592
0.81504
0.815213
0.815267
0.815251
0.815158
0.780365
0.780436
0.780898
0.781992
0.783649
0.785727
0.788335
0.791607
0.795675
0.800561
0.80537
0.809097
0.811737
0.81353
0.814689
0.815374
0.815743
0.815902
0.815927
0.815844
0.77376
0.773829
0.774306
0.775485
0.777319
0.779695
0.782723
0.786578
0.791435
0.797367
0.80334
0.808088
0.811527
0.813934
0.815577
0.816626
0.817235
0.817519
0.817588
0.817512
0.766315
0.766359
0.766879
0.768168
0.770269
0.77305
0.776654
0.781316
0.787247
0.794536
0.801901
0.807795
0.81211
0.815218
0.817447
0.818934
0.819843
0.820282
0.820396
0.820321
0.75774
0.757768
0.758348
0.759792
0.762208
0.765488
0.769802
0.775442
0.782676
0.791618
0.800703
0.808037
0.81349
0.817471
0.820385
0.822392
0.82368
0.8243
0.824454
0.824369
0.747512
0.747537
0.748206
0.749886
0.752736
0.756689
0.761951
0.768886
0.777798
0.788797
0.799964
0.808986
0.815733
0.820729
0.824453
0.827073
0.828782
0.829591
0.829782
0.82968
0.734962
0.73499
0.735807
0.737861
0.741359
0.746264
0.752823
0.761472
0.772538
0.786094
0.799742
0.810742
0.818996
0.825155
0.829764
0.833081
0.83523
0.836227
0.83645
0.836327
0.719286
0.719322
0.720369
0.722995
0.727444
0.733692
0.742027
0.752942
0.766747
0.783429
0.800045
0.813353
0.823332
0.830803
0.836452
0.840517
0.843125
0.844311
0.844566
0.844419
0.699374
0.699425
0.700836
0.704354
0.710244
0.718446
0.729276
0.743233
0.760539
0.781028
0.801094
0.817019
0.828949
0.837905
0.844677
0.849571
0.85267
0.854042
0.854321
0.854148
0.673512
0.673604
0.675641
0.68061
0.68877
0.69985
0.714222
0.732236
0.753942
0.778974
0.802995
0.821851
0.835933
0.846541
0.854561
0.860406
0.864025
0.865565
0.865854
0.865648
0.638714
0.638945
0.642265
0.649877
0.661808
0.677341
0.696737
0.720104
0.747238
0.777565
0.805998
0.828025
0.844424
0.85681
0.866252
0.873109
0.877239
0.878907
0.87918
0.878936
0.589158
0.590271
0.596921
0.609972
0.628435
0.650812
0.677143
0.707292
0.740855
0.777113
0.810282
0.835641
0.854454
0.86872
0.879678
0.887594
0.892191
0.893941
0.894159
0.893866
0.515847
0.523379
0.538735
0.561903
0.590075
0.621596
0.656439
0.694434
0.73518
0.777965
0.816345
0.845444
0.867052
0.883569
0.896351
0.905498
0.910744
0.91273
0.912996
0.912759
0.437213
0.454553
0.479319
0.513072
0.551359
0.592227
0.63571
0.681797
0.730201
0.780329
0.825049
0.859042
0.884466
0.904042
0.919253
0.930215
0.93635
0.938574
0.938932
0.938881
0.372253
0.392446
0.425048
0.467552
0.514673
0.564305
0.61612
0.670099
0.725966
0.783163
0.833886
0.872407
0.901257
0.92343
0.940455
0.952463
0.95934
0.962223
0.962602
0.962618
0.319305
0.341245
0.379083
0.427804
0.481843
0.538753
0.59789
0.65909
0.721937
0.785828
0.842134
0.884708
0.916417
0.940564
0.958935
0.972114
0.980141
0.982955
0.983446
0.98353
0.275534
0.298512
0.339902
0.393434
0.452988
0.51586
0.581255
0.64884
0.718037
0.788085
0.849509
0.895642
0.929758
0.955565
0.975185
0.989247
0.997839
1.00106
1.00175
1.00186
0.238352
0.261949
0.306005
0.36326
0.427289
0.495196
0.566017
0.639258
0.714197
0.789883
0.855943
0.905229
0.941392
0.968548
0.989074
1.00377
1.01279
1.01645
1.01732
1.01745
0.205723
0.229743
0.275849
0.33613
0.403901
0.476134
0.551734
0.630065
0.710249
0.79113
0.861452
0.913558
0.951473
0.979699
1.00088
1.01603
1.02531
1.0293
1.0303
1.03043
0.176118
0.200543
0.248306
0.311134
0.382116
0.458113
0.537978
0.620933
0.705963
0.791714
0.866049
0.920781
0.960273
0.989423
1.01109
1.02657
1.03606
1.04024
1.04126
1.04135
0.148586
0.173387
0.222636
0.287639
0.361406
0.440724
0.52441
0.611593
0.701149
0.791531
0.869745
0.927033
0.968038
0.998042
1.02016
1.03582
1.0454
1.04966
1.05074
1.05079
0.122355
0.147587
0.198239
0.265152
0.341396
0.423665
0.510796
0.60186
0.695655
0.790492
0.872547
0.932421
0.974993
1.00587
1.02845
1.04431
1.0539
1.05814
1.05929
1.05937
0.0971358
0.122803
0.174524
0.243353
0.321813
0.406735
0.496982
0.59161
0.689384
0.788536
0.874458
0.937043
0.981307
1.01317
1.03627
1.05234
1.06197
1.06615
1.06723
1.06727
0.0725456
0.0988098
0.151542
0.222036
0.302486
0.389796
0.482868
0.580767
0.68227
0.785606
0.875467
0.940952
0.987107
1.02011
1.04383
1.06017
1.06983
1.07395
1.0749
1.07487
0.0484953
0.0752381
0.129113
0.201086
0.28333
0.372785
0.468407
0.569298
0.67428
0.781667
0.875547
0.944169
0.992459
1.02678
1.05123
1.06789
1.07755
1.08154
1.08237
1.08225
0.0249051
0.0522208
0.1071
0.180444
0.264315
0.35569
0.453598
0.557199
0.665406
0.776681
0.874633
0.946642
0.997365
1.03324
1.05854
1.07551
1.0851
1.08887
1.08954
1.08936
0.00170011
0.0296406
0.0854736
0.1601
0.245433
0.338527
0.438474
0.54451
0.655664
0.770617
0.872638
0.948283
1.00181
1.03954
1.06581
1.08306
1.09247
1.09593
1.09643
1.09619
-0.021105
0.00751825
0.0642881
0.140082
0.22673
0.321339
0.423091
0.531283
0.64509
0.763453
0.869486
0.948987
1.00571
1.04569
1.07314
1.09059
1.09961
1.10263
1.10293
1.10265
-0.043337
-0.0140727
0.0435885
0.120435
0.208255
0.304201
0.40752
0.517602
0.633754
0.755226
0.865115
0.948613
1.00892
1.05169
1.0807
1.09827
1.10654
1.10887
1.10894
1.10864
-0.0649586
-0.0350876
0.0234068
0.101219
0.190074
0.287179
0.391857
0.503554
0.621743
0.745976
0.859479
0.947004
1.01124
1.05743
1.08868
1.10656
1.11356
1.11465
1.11438
1.11411
-0.0860274
-0.0554792
0.00378724
0.0824772
0.172255
0.270362
0.376194
0.48925
0.609163
0.73578
0.852542
0.944015
1.01241
1.06264
1.09717
1.11619
1.12165
1.12047
1.11924
1.11921
-0.106362
-0.0752171
-0.0152051
0.06428
0.154861
0.253832
0.36063
0.474805
0.596135
0.724746
0.84432
0.939511
1.0121
1.06677
1.10577
1.12782
1.13297
1.12881
1.12491
1.12403
-0.12605
-0.0942884
-0.0335854
0.0466037
0.137861
0.237544
0.345105
0.460157
0.582589
0.712801
0.834684
0.93323
1.00999
1.0691
1.11338
1.14098
1.14944
1.14534
1.1351
1.11861
-0.145014
-0.112682
-0.0514734
0.0292556
0.120961
0.221159
0.329196
0.44481
0.567971
0.699286
0.822953
0.924325
1.00541
1.06852
1.11749
1.15194
1.1647
1.15467
1.1367
1.12051
-0.163074
-0.130524
-0.0686794
0.0124749
0.104465
0.205027
0.313132
0.4291
0.552604
0.68449
0.809276
0.91244
0.997799
1.06399
1.11304
1.14733
1.16354
1.14424
1.0744
1.04186
-0.179571
-0.148995
-0.0848741
-0.00314554
0.0890966
0.189645
0.297212
0.413255
0.536711
0.668553
0.793641
0.897384
0.986058
1.05538
1.0959
1.12222
1.12242
1.07211
1.00144
0.957467
-0.23597
-0.165251
-0.0997758
-0.0187067
0.0733863
0.173599
0.281375
0.397001
0.519938
0.651053
0.77551
0.878761
0.966776
1.04326
1.04823
1.06121
1.02399
0.958808
0.882361
0.83939
-0.197411
-0.18132
-0.121557
-0.0407394
0.0505284
0.150489
0.257276
0.372099
0.493818
0.623119
0.744961
0.845768
0.925198
1.00253
0.998099
0.893212
0.79089
0.719654
0.646608
0.680712
-0.228938
-0.199468
-0.138787
-0.0585815
0.0327539
0.132389
0.239362
0.353484
0.474037
0.601367
0.720121
0.81681
0.888629
0.929197
0.884982
0.742007
0.615451
0.524959
0.425425
0.478999
-0.25329
-0.220865
-0.158917
-0.0784163
0.0130097
0.112508
0.219341
0.332565
0.451633
0.576451
0.691364
0.782434
0.844647
0.853809
0.751612
0.579102
0.425268
0.305235
0.172966
0.207931
-0.277141
-0.243155
-0.179989
-0.0986246
-0.00700752
0.0923659
0.198668
0.310878
0.428288
0.550278
0.660582
0.745377
0.792514
0.770281
0.615059
0.417192
0.223752
0.0494095
-0.145709
-0.158491
-0.30034
-0.265948
-0.201879
-0.119755
-0.0279072
0.0712919
0.176956
0.288053
0.40358
0.522411
0.627563
0.705208
0.735287
0.678233
0.485355
0.271876
0.0494072
-0.147815
-0.399947
-0.717266
-0.323836
-0.289452
-0.224857
-0.142213
-0.0501197
0.0489632
0.154069
0.26404
0.377606
0.493078
0.592917
0.662383
0.674902
0.567199
0.372928
0.159818
-0.0496145
-0.227576
-0.294841
-0.385925
-0.348532
-0.314128
-0.249257
-0.166344
-0.0741365
0.0247471
0.129208
0.237896
0.349211
0.460846
0.554962
0.614488
0.602038
0.460186
0.273734
0.0803171
-0.0852972
-0.179226
-0.203202
-0.220193
-0.374755
-0.340298
-0.275248
-0.19223
-0.100082
-0.00155566
0.102032
0.209149
0.31782
0.425007
0.512916
0.560039
0.528478
0.360527
0.183961
0.016774
-0.11244
-0.15022
-0.164732
-0.166482
-0.402716
-0.368125
-0.302887
-0.219854
-0.127897
-0.0299372
0.0725421
0.17777
0.283379
0.385566
0.46649
0.500385
0.451521
0.267166
0.100184
-0.0488825
-0.129722
-0.145771
-0.147131
-0.147116
-0.432456
-0.397612
-0.332191
-0.249197
-0.157577
-0.0603673
0.0407542
0.143765
0.245906
0.342621
0.415599
0.438455
0.354882
0.180808
0.0219897
-0.100567
-0.135184
-0.137729
-0.138069
-0.137554
-0.463679
-0.428636
-0.363037
-0.280156
-0.189014
-0.0927661
0.00672864
0.107193
0.20545
0.296279
0.36086
0.367537
0.260371
0.0998868
-0.0415192
-0.120738
-0.130228
-0.132297
-0.133043
-0.132832
-0.495809
-0.460678
-0.395159
-0.312493
-0.221997
-0.126944
-0.0293472
0.0682253
0.162225
0.246787
0.303277
0.292945
0.174146
0.0268498
-0.0936068
-0.115964
-0.128742
-0.130731
-0.129792
-0.129344
-0.5284
-0.49325
-0.428062
-0.345799
-0.256152
-0.162544
-0.0671505
0.0271964
0.116576
0.194771
0.24253
0.220792
0.0918348
-0.0416498
-0.133202
-0.162291
-0.1422
-0.130111
-0.127052
-0.12617
-0.560606
-0.525687
-0.460927
-0.379427
-0.29091
-0.199044
-0.106173
-0.015361
0.0690495
0.141005
0.179205
0.152826
0.0183292
-0.104612
-0.167996
-0.150694
-0.144075
-0.13791
-0.132286
-0.129574
-0.590856
-0.556827
-0.492873
-0.412478
-0.325461
-0.235681
-0.14568
-0.0586823
0.0204983
0.0860288
0.118688
0.0805893
-0.0424631
-0.163913
-0.229532
-0.208788
-0.172531
-0.149428
-0.141105
-0.138225
-0.617741
-0.584655
-0.522783
-0.443813
-0.358747
-0.271426
-0.184689
-0.10179
-0.0278448
0.030685
0.0640723
0.00617689
-0.0922965
-0.165759
-0.20071
-0.205904
-0.194494
-0.184855
-0.181072
-0.178631
-0.639264
-0.608018
-0.548543
-0.472008
-0.389454
-0.305082
-0.221916
-0.143441
-0.0746344
-0.0236796
0.010608
-0.0603185
-0.142353
-0.109078
-0.145562
-0.235975
-0.308156
-0.333827
-0.328976
-0.321249
-0.653441
-0.624834
-0.568609
-0.49526
-0.415973
-0.335143
-0.255915
-0.182029
-0.118569
-0.0746276
-0.0439488
-0.134006
-0.235617
-0.272949
-0.305458
-0.43497
-0.53297
-0.548675
-0.532765
-0.527515
-0.657814
-0.633101
-0.581152
-0.51185
-0.436564
-0.359898
-0.28491
-0.215627
-0.157893
-0.120147
-0.100613
-0.234971
-0.415514
-0.624493
-0.615601
-0.589749
-0.615989
-0.611846
-0.611916
-0.613782
-0.650743
-0.630559
-0.584171
-0.520211
-0.449682
-0.377623
-0.307004
-0.242041
-0.189586
-0.159483
-0.160635
-0.339271
-0.49411
-0.420625
-0.30311
-0.480076
-0.660792
-0.68132
-0.6828
-0.681999
-0.630314
-0.614545
-0.576117
-0.51915
-0.454224
-0.386947
-0.320382
-0.258734
-0.209424
-0.184782
-0.205649
-0.371884
-0.621081
-0.841075
-1.03536
-1.35638
-1.2804
-1.02589
-0.870137
-0.865753
-0.598028
-0.587406
-0.557326
-0.508799
-0.449936
-0.387233
-0.323775
-0.263517
-0.213507
-0.187679
-0.214466
-0.414494
-0.926675
-1.70833
-2.29194
-2.57201
-2.45619
-2.08816
-1.74337
-1.56351
-0.558708
-0.552549
-0.53151
-0.491188
-0.438272
-0.379087
-0.316922
-0.25533
-0.199817
-0.162917
-0.174445
-0.319396
-0.640549
-1.00855
-1.33062
-1.46774
-1.35448
-1.11956
-0.903024
-0.789184
-0.519259
-0.515831
-0.503538
-0.470895
-0.422117
-0.364758
-0.301677
-0.234803
-0.168826
-0.104505
-0.0597868
-0.00720345
0.0963328
0.334222
0.629323
0.942099
1.2093
1.39491
1.50846
1.55566
-0.486025
-0.483993
-0.477597
-0.452322
-0.406568
-0.347886
-0.281421
-0.206923
-0.124402
-0.0339111
0.0788551
0.226986
0.579899
1.11917
1.71085
2.24796
2.65416
2.8952
2.9991
3.02826
-0.455779
-0.455201
-0.453411
-0.436311
-0.393512
-0.332711
-0.261383
-0.180519
-0.0878842
0.0189097
0.14079
0.271851
0.548584
1.07533
1.63289
2.13326
2.50118
2.71769
2.81911
2.84906
-0.429962
-0.429616
-0.429393
-0.419454
-0.381522
-0.319386
-0.243991
-0.159021
-0.0648719
0.0430247
0.155664
0.278798
0.447768
0.87234
1.34163
1.74232
2.04832
2.22915
2.31149
2.33455
-0.408035
-0.406723
-0.406364
-0.401943
-0.368964
-0.305499
-0.227256
-0.141279
-0.0489575
0.0554891
0.162895
0.273435
0.395911
0.660533
1.02148
1.32167
1.54884
1.68101
1.73981
1.75464
-0.396958
-0.396661
-0.398599
-0.394704
-0.357777
-0.288
-0.206614
-0.121716
-0.0330968
0.0638032
0.157941
0.246541
0.331888
0.506097
0.747809
0.956377
1.11286
1.20464
1.24615
1.25554
-0.379359
-0.38318
-0.387662
-0.381073
-0.334789
-0.259566
-0.177489
-0.0972495
-0.0171511
0.0669821
0.146468
0.215499
0.284263
0.386864
0.548676
0.687993
0.789732
0.848568
0.872803
0.877652
-0.306846
-0.31307
-0.31903
-0.309703
-0.267804
-0.201867
-0.132313
-0.0647476
0.00205215
0.0711566
0.134898
0.186052
0.233853
0.297524
0.402338
0.493515
0.558338
0.5947
0.61039
0.611656
-0.167245
-0.171609
-0.175869
-0.171076
-0.147625
-0.110789
-0.0681752
-0.0225291
0.025746
0.077672
0.123753
0.15772
0.187719
0.226641
0.293637
0.354532
0.396022
0.419321
0.427656
0.42754
-0.0170465
-0.0190667
-0.0226679
-0.0260202
-0.0238107
-0.0157287
2.4977e-05
0.0225255
0.0517472
0.0863192
0.116608
0.137316
0.152889
0.177367
0.219967
0.259467
0.287018
0.301441
0.306616
0.305849
0.0897671
0.0889577
0.0855304
0.0773629
0.0657574
0.0576319
0.0561555
0.0624929
0.0767964
0.097274
0.115455
0.125196
0.128622
0.145683
0.177161
0.203759
0.220234
0.227893
0.230119
0.229068
0.144526
0.143992
0.140752
0.131881
0.118055
0.104672
0.0957152
0.09326
0.0980636
0.108965
0.119553
0.12269
0.120413
0.13369
0.157829
0.17527
0.184685
0.18805
0.188542
0.187557
0.164941
0.16447
0.161894
0.154857
0.143307
0.130827
0.120627
0.114932
0.115042
0.120819
0.128342
0.131514
0.131408
0.1426
0.15894
0.168912
0.17308
0.174269
0.174344
0.173494
0.168151
0.167736
0.165889
0.16109
0.152967
0.143467
0.134796
0.128997
0.127522
0.131793
0.139847
0.147433
0.154006
0.165049
0.17412
0.178276
0.18016
0.180717
0.180615
0.179582
0.164597
0.16424
0.162961
0.159911
0.154667
0.148134
0.141709
0.137025
0.135661
0.13987
0.150914
0.16611
0.181404
0.191447
0.194151
0.194583
0.195005
0.19589
0.196113
0.195088
0.159392
0.159091
0.158181
0.156223
0.152952
0.14863
0.144089
0.140514
0.139491
0.143871
0.157576
0.180538
0.204643
0.213357
0.209158
0.207433
0.209872
0.212417
0.213321
0.211955
0.154516
0.154265
0.153573
0.152148
0.149952
0.146987
0.143574
0.14053
0.13914
0.14207
0.15484
0.180025
0.207879
0.213479
0.20688
0.208526
0.213695
0.220087
0.2217
0.21952
0.150409
0.150201
0.149647
0.148443
0.146608
0.144226
0.141401
0.138196
0.135263
0.134313
0.13996
0.157182
0.178521
0.179218
0.173564
0.178877
0.19022
0.19899
0.200717
0.198661
0.146898
0.146743
0.146335
0.145279
0.143724
0.141433
0.138429
0.134761
0.129568
0.122289
0.114276
0.11091
0.110778
0.105979
0.109445
0.123218
0.137346
0.145639
0.146824
0.145064
0.143476
0.143377
0.143154
0.142515
0.140898
0.138989
0.135972
0.131735
0.124266
0.11055
0.0852826
0.0507148
0.0154489
0.00984393
0.0288659
0.0511658
0.0663887
0.0730487
0.0729634
0.0714886
0.139646
0.139604
0.139574
0.139266
0.138251
0.136497
0.134742
0.130688
0.123089
0.105579
0.0660381
-0.000538561
-0.0610924
-0.0630428
-0.0355544
-0.0149896
-0.00788738
-0.00639822
-0.00553907
-0.00543056
0.134757
0.134793
0.134874
0.135058
0.135255
0.13501
0.134273
0.132601
0.127686
0.110774
0.0728641
-0.00232763
-0.0664336
-0.0643015
-0.0505153
-0.0508841
-0.0575559
-0.0622716
-0.0612848
-0.0604366
0.128172
0.128269
0.128774
0.129593
0.130712
0.13238
0.13431
0.13637
0.135915
0.127651
0.103643
0.0500971
0.00507815
-0.00808172
-0.0197022
-0.0443185
-0.0662365
-0.0770442
-0.0783621
-0.0779091
0.118412
0.118671
0.119724
0.121881
0.125025
0.129316
0.135053
0.141075
0.147793
0.152024
0.148313
0.123812
0.100243
0.0684988
0.0274202
-0.0183385
-0.0513239
-0.067062
-0.0685974
-0.0663885
0.102845
0.103255
0.104823
0.108124
0.113309
0.120567
0.130274
0.142851
0.157649
0.173183
0.183526
0.18314
0.176152
0.132692
0.0756818
0.0331335
0.0033731
-0.0117996
-0.015626
-0.0143913
0.0793404
0.07992
0.0819686
0.0864496
0.0934859
0.103291
0.116432
0.133431
0.153269
0.17677
0.194246
0.202828
0.192932
0.141278
0.0967874
0.0728904
0.0616469
0.0504758
0.0453619
0.0456653
0.0475031
0.0479954
0.050391
0.0547066
0.0611039
0.0703712
0.0832464
0.100251
0.11958
0.139027
0.15438
0.154571
0.14324
0.104143
0.0840136
0.0750985
0.0777216
0.0685787
0.0638603
0.0634823
0.0108913
0.0105104
0.010074
0.00953795
0.0109547
0.0131731
0.0156104
0.0200571
0.0270696
0.0325503
0.0361409
0.0476238
0.0481572
0.0418279
0.0287154
0.0245303
0.0182784
0.0174936
0.0207234
0.0209793
0.0913917
0.267589
0.47347
0.650792
0.793446
0.90699
1.00156
1.08146
1.1172
1.09408
0.41231
0.538908
0.674531
0.792002
0.891431
0.974082
1.04098
1.08834
1.11221
1.12412
0.641706
0.728235
0.820718
0.902734
0.973349
1.03245
1.07938
1.11363
1.13826
1.15607
0.808886
0.870096
0.934965
0.994287
1.04595
1.08979
1.12572
1.15431
1.17766
1.19586
0.938652
0.983558
1.0309
1.07613
1.11611
1.15096
1.18073
1.20544
1.22618
1.24396
1.04548
1.07936
1.11846
1.15497
1.18842
1.21834
1.24444
1.26633
1.28442
1.30174
1.13959
1.16889
1.20357
1.23629
1.26676
1.29437
1.31847
1.33845
1.35412
1.37119
1.22919
1.25877
1.29322
1.32563
1.35556
1.38244
1.40553
1.42419
1.43769
1.45473
1.32515
1.35852
1.39546
1.4293
1.45956
1.48593
1.50803
1.52543
1.53738
1.55479
1.4406
1.47844
1.51728
1.55171
1.58119
1.60605
1.62652
1.64248
1.65401
1.67209
1.58583
1.62449
1.66062
1.69139
1.71715
1.73931
1.75842
1.774
1.78646
1.80447
1.76091
1.79271
1.81893
1.8414
1.86141
1.88017
1.89792
1.91442
1.9298
1.94787
1.9496
1.96687
1.98198
1.99824
2.01417
2.02872
2.04195
2.05589
2.07345
2.09361
2.13149
2.14097
2.15253
2.16336
2.17265
2.18225
2.19306
2.20444
2.21582
2.23118
2.33866
2.34235
2.32741
2.31261
2.30635
2.31205
2.33053
2.36086
2.39304
2.4197
2.64499
2.51013
2.43351
2.39117
2.37376
2.37772
2.40513
2.46155
2.56417
2.78854
0.927131
0.924999
0.920513
0.911882
0.899649
0.887507
0.87726
0.869334
0.863672
0.860356
0.859922
0.862573
0.867606
0.874775
0.884124
0.895635
0.908265
0.919285
0.92539
0.928437
0.851599
0.857444
0.863779
0.868263
0.870722
0.870383
0.867626
0.863786
0.86023
0.857901
0.857666
0.859774
0.863362
0.867592
0.871355
0.873206
0.872246
0.868746
0.86357
0.856943
0.843207
0.845503
0.848902
0.85189
0.853954
0.855434
0.856165
0.855812
0.854736
0.85378
0.853858
0.855186
0.856918
0.858157
0.858284
0.857354
0.855775
0.853415
0.850136
0.847209
0.837738
0.838824
0.840653
0.843023
0.845034
0.846445
0.847439
0.84815
0.848493
0.848634
0.849015
0.849708
0.850207
0.850193
0.849716
0.848817
0.847308
0.845192
0.843084
0.841694
0.832592
0.833254
0.834359
0.836056
0.837825
0.839439
0.840706
0.841677
0.842492
0.843187
0.843788
0.844203
0.844277
0.844012
0.843364
0.842243
0.840763
0.839177
0.837831
0.837044
0.827689
0.828149
0.828932
0.830225
0.831702
0.833202
0.834638
0.835888
0.836948
0.837893
0.838656
0.839057
0.839055
0.838655
0.837852
0.836774
0.835577
0.834388
0.833437
0.832913
0.822956
0.823299
0.823909
0.824974
0.82626
0.827618
0.829027
0.830423
0.831715
0.832866
0.833793
0.834281
0.834271
0.833831
0.833093
0.832202
0.831257
0.830316
0.8296
0.829215
0.818342
0.818608
0.819101
0.820011
0.821176
0.822459
0.823823
0.825258
0.82671
0.828084
0.829214
0.82983
0.829892
0.829561
0.82899
0.82828
0.827507
0.82677
0.826225
0.82593
0.813778
0.813988
0.814397
0.815201
0.816293
0.817528
0.818877
0.820346
0.821907
0.823483
0.824853
0.825673
0.825924
0.825785
0.825401
0.824868
0.824262
0.823688
0.823274
0.823043
0.809189
0.809356
0.809707
0.810441
0.811491
0.812707
0.814079
0.815615
0.817303
0.819094
0.820749
0.821857
0.822366
0.822458
0.822271
0.821915
0.821476
0.821042
0.820731
0.820548
0.804501
0.804632
0.80494
0.805635
0.806676
0.807919
0.809356
0.811008
0.812875
0.814921
0.816922
0.818406
0.819231
0.819578
0.819603
0.819421
0.819132
0.818825
0.8186
0.818456
0.799653
0.799755
0.800033
0.800712
0.801778
0.803093
0.804637
0.806459
0.808585
0.810986
0.813429
0.815343
0.816519
0.817151
0.817411
0.817417
0.817277
0.817085
0.816934
0.81682
0.794579
0.794654
0.794913
0.795598
0.79672
0.798139
0.799828
0.801864
0.804302
0.80714
0.810132
0.81258
0.814195
0.815184
0.815722
0.815948
0.81596
0.815881
0.815796
0.81571
0.789199
0.789249
0.789493
0.790199
0.791404
0.792964
0.794856
0.797177
0.799998
0.803371
0.807035
0.810149
0.812307
0.813719
0.814577
0.815048
0.815244
0.815295
0.815278
0.815217
0.783423
0.783441
0.783682
0.784432
0.785759
0.787513
0.789673
0.792375
0.795724
0.799784
0.804282
0.808205
0.811
0.812891
0.814115
0.814851
0.815271
0.815455
0.815505
0.815468
0.777153
0.777163
0.777395
0.778185
0.779643
0.781615
0.784101
0.787257
0.79124
0.796163
0.801697
0.806591
0.810176
0.812704
0.814395
0.815477
0.816173
0.816518
0.816642
0.816625
0.770152
0.770129
0.770385
0.771244
0.772863
0.775097
0.777998
0.781737
0.786513
0.792478
0.799279
0.805402
0.809941
0.8132
0.815485
0.81706
0.818087
0.818636
0.818847
0.818849
0.76219
0.762143
0.762415
0.763367
0.765195
0.7678
0.771243
0.775745
0.781567
0.788894
0.79726
0.804807
0.810474
0.814616
0.817596
0.819731
0.821155
0.821956
0.822262
0.822276
0.752848
0.752783
0.753101
0.754192
0.756282
0.759342
0.763463
0.768917
0.776017
0.784984
0.795277
0.804617
0.811677
0.816891
0.820723
0.823526
0.82545
0.826546
0.826951
0.826968
0.741524
0.741442
0.74184
0.743148
0.745639
0.749358
0.754428
0.761186
0.769996
0.781085
0.793722
0.805143
0.813781
0.820222
0.825009
0.828553
0.831031
0.832432
0.832933
0.832951
0.727481
0.727379
0.727909
0.729561
0.732653
0.737312
0.743688
0.75218
0.763183
0.776906
0.792397
0.806297
0.8168
0.824661
0.83054
0.834919
0.837998
0.839713
0.840307
0.840322
0.70978
0.709658
0.710399
0.712576
0.716576
0.722617
0.730842
0.741705
0.755588
0.772612
0.791513
0.808285
0.820912
0.830354
0.837483
0.842792
0.846501
0.848535
0.849219
0.84923
0.687047
0.686915
0.688012
0.691024
0.696429
0.704526
0.715416
0.729534
0.747161
0.768261
0.791186
0.811237
0.826239
0.837476
0.845972
0.852309
0.856728
0.859093
0.859856
0.859856
0.657031
0.656932
0.658679
0.663116
0.670841
0.682145
0.696965
0.715556
0.738008
0.76405
0.791617
0.815319
0.832928
0.84611
0.856113
0.863637
0.868805
0.871479
0.872299
0.872276
0.615591
0.615672
0.618843
0.626224
0.638182
0.654736
0.675356
0.699987
0.728468
0.760321
0.79308
0.820721
0.841084
0.85634
0.86798
0.876798
0.882717
0.885629
0.886468
0.886411
0.55495
0.5562
0.563918
0.577787
0.597503
0.622391
0.651141
0.683481
0.71912
0.757484
0.795796
0.827532
0.850734
0.868123
0.881446
0.891511
0.898106
0.90122
0.901985
0.901882
0.482516
0.484504
0.499118
0.523015
0.55362
0.588287
0.625979
0.666611
0.710002
0.755652
0.800559
0.837575
0.864745
0.88527
0.901022
0.912681
0.920338
0.923897
0.92486
0.924852
0.408049
0.414642
0.436036
0.47001
0.510772
0.555007
0.601615
0.650566
0.701775
0.75482
0.806503
0.84901
0.880322
0.904125
0.922532
0.936267
0.945016
0.948336
0.949218
0.949384
0.347926
0.356449
0.382565
0.423402
0.471931
0.5242
0.578777
0.635475
0.694112
0.754223
0.812346
0.859939
0.894914
0.921406
0.941664
0.95664
0.965937
0.970195
0.971765
0.972028
0.29914
0.308218
0.337785
0.383562
0.438021
0.496713
0.557965
0.62147
0.686856
0.75354
0.817642
0.869849
0.907978
0.936623
0.958435
0.974593
0.985038
0.989994
0.991861
0.992173
0.258475
0.267762
0.299625
0.349148
0.408318
0.472252
0.539154
0.60859
0.680009
0.752678
0.822265
0.878597
0.919454
0.949937
0.973017
0.990085
1.00142
1.00697
1.00906
1.00938
0.223357
0.232723
0.266301
0.318817
0.381763
0.45009
0.521883
0.596555
0.673416
0.751557
0.826165
0.886224
0.929444
0.961428
0.985465
1.00327
1.01508
1.02112
1.02336
1.02372
0.192095
0.201497
0.236371
0.291367
0.357464
0.42954
0.505621
0.584988
0.666813
0.750011
0.829296
0.892792
0.938133
0.971394
0.996192
1.01446
1.02661
1.033
1.03535
1.03573
0.163403
0.172865
0.208849
0.265946
0.334722
0.410055
0.489934
0.573542
0.659935
0.747877
0.831607
0.898383
0.945726
0.980151
1.00561
1.02421
1.03661
1.04317
1.0455
1.0459
0.136443
0.145961
0.182961
0.241884
0.313044
0.391244
0.474504
0.561962
0.652586
0.745014
0.83305
0.903067
0.952399
0.987977
1.01406
1.03298
1.04548
1.05213
1.05446
1.05475
0.110662
0.120302
0.158236
0.218719
0.292064
0.37282
0.45912
0.55008
0.644625
0.741321
0.833587
0.906893
0.95831
0.995126
1.02189
1.04114
1.05377
1.06039
1.06271
1.06295
0.0856523
0.0954992
0.134238
0.196264
0.271531
0.354589
0.443633
0.537784
0.635969
0.736725
0.833177
0.909902
0.963569
1.00178
1.02933
1.04897
1.06175
1.06834
1.07057
1.07081
0.0612136
0.0712995
0.110834
0.174331
0.251318
0.336438
0.427959
0.525015
0.626562
0.731182
0.831791
0.912096
0.968252
1.00804
1.03652
1.05664
1.06958
1.07613
1.07823
1.07842
0.0372927
0.0476166
0.0879973
0.152793
0.23135
0.318331
0.412069
0.511751
0.616389
0.724656
0.829382
0.91345
0.972361
1.01398
1.04354
1.0642
1.07729
1.08371
1.08564
1.08576
0.0137866
0.0244439
0.0655661
0.13161
0.211603
0.300253
0.395972
0.498013
0.605466
0.717144
0.825889
0.913873
0.975853
1.01961
1.05046
1.0717
1.08487
1.0911
1.0928
1.09282
-0.00925047
0.00170571
0.0436125
0.110789
0.192092
0.282233
0.379716
0.483849
0.59383
0.708645
0.821256
0.913265
0.978654
1.02494
1.05732
1.0792
1.09231
1.09818
1.0996
1.09953
-0.0318392
-0.0205545
0.022163
0.09038
0.172859
0.264319
0.363353
0.469332
0.581546
0.699189
0.815452
0.911532
0.980628
1.0299
1.06422
1.08682
1.09964
1.1049
1.10596
1.1058
-0.0537794
-0.0422407
0.00125174
0.0704292
0.153966
0.246594
0.346962
0.454542
0.5687
0.68885
0.80847
0.908566
0.981602
1.03437
1.07124
1.09484
1.10711
1.11129
1.11178
1.11154
-0.0752005
-0.0633021
-0.0190809
0.0509745
0.135455
0.229105
0.33064
0.439568
0.555389
0.677722
0.800332
0.904261
0.981374
1.0381
1.07832
1.1037
1.11537
1.11769
1.11706
1.11667
-0.0959273
-0.0837022
-0.0387925
0.0320757
0.117413
0.211942
0.314472
0.424538
0.541733
0.665883
0.791091
0.898544
0.979731
1.04071
1.08514
1.11368
1.12569
1.12564
1.12244
1.12097
-0.116011
-0.103477
-0.057824
0.0137929
0.0998852
0.195177
0.298545
0.409534
0.527849
0.653479
0.780843
0.891357
0.976484
1.04176
1.09091
1.12429
1.13924
1.13868
1.13141
1.12158
-0.135365
-0.12258
-0.0762724
-0.00402607
0.0826591
0.178521
0.282514
0.394141
0.513267
0.639979
0.769019
0.882069
0.971044
1.04061
1.09446
1.13402
1.15529
1.15781
1.14821
1.13964
-0.153933
-0.140925
-0.0941334
-0.0213358
0.0657499
0.161974
0.2664
0.378342
0.497949
0.625282
0.755453
0.870352
0.962743
1.03654
1.09331
1.13729
1.16158
1.16931
1.13263
1.0792
-0.17143
-0.157733
-0.111296
-0.0380695
0.0490537
0.145402
0.25016
0.362261
0.481964
0.609461
0.740109
0.856071
0.950612
1.02924
1.08552
1.1229
1.14824
1.13721
1.08028
1.01552
-0.188182
-0.173584
-0.127571
-0.0535936
0.0329087
0.129285
0.233571
0.345958
0.465459
0.592693
0.723017
0.8391
0.933585
1.01984
1.06953
1.12163
1.09287
1.05209
0.982588
0.914069
-0.174336
-0.156206
-0.107305
-0.0289436
0.0625659
0.162798
0.272498
0.387865
0.510431
0.641023
0.764895
0.867735
0.953858
1.04562
1.09359
1.01395
0.969316
0.907022
0.83419
0.785857
-0.198859
-0.182536
-0.146669
-0.0781677
0.00788033
0.103716
0.208154
0.319912
0.438602
0.564535
0.692866
0.807025
0.898175
0.978167
1.04971
1.0507