/*--------------------------------*- C++ -*----------------------------------*\
| =========                 |                                                 |
| \\      /  F ield         | OpenFOAM: The Open Source CFD Toolbox           |
|  \\    /   O peration     | Version:  2112                                  |
|   \\  /    A nd           | Website:  www.openfoam.com                      |
|    \\/     M anipulation  |                                                 |
\*---------------------------------------------------------------------------*/
FoamFile
{
    version     2.0;
    format      ascii;
    arch        "LSB;label=32;scalar=64";
    class       surfaceScalarField;
    location    "34.5";
    object      phi;
}
// * * * * * * * * * * * * * * * * * * * * * * * * * * * * * * * * * * * * * //

dimensions      [0 3 -1 0 0 0 0];

oriented        oriented;

internalField   nonuniform List<scalar> 
17370
(
-0.0916071
0.0960064
0.284612
-0.0775896
0.0594128
0.364952
-0.0430344
0.0316149
0.427588
-0.0223096
0.0162548
0.505307
-0.011658
0.0087801
0.60228
-0.00656536
0.005081
0.720542
-0.00385112
0.00298212
0.863776
-0.00222408
0.00165859
1.03602
-0.00113798
0.000723844
1.24292
-0.000316365
-7.85256e-05
1.49159
0.000464819
-0.000868507
1.49159
0.00127236
-0.00178101
1.2432
0.00233649
-0.00308493
1.03639
0.00394697
-0.00516995
0.864129
0.00664683
-0.00885145
0.721262
0.0117187
-0.0163023
0.603798
0.0223445
-0.031636
0.508731
0.0430407
-0.0594094
0.432537
0.0775879
-0.0960037
0.365191
0.0916189
0.197392
-0.127086
0.0880167
0.0390697
-0.36435
0.354023
-0.0714798
0.0818062
-0.446655
0.454246
-0.0791694
0.071579
-0.521008
0.529105
-0.0637303
0.0556333
-0.612985
0.620756
-0.0482462
0.0404755
-0.727158
0.733678
-0.0338621
0.0273417
-0.867579
0.872417
-0.0221432
0.0173046
-1.03857
1.04188
-0.0136236
0.0103038
-1.24471
1.24711
-0.00776716
0.00537249
-1.49284
1.49484
-0.00341634
0.00141244
-1.49269
1.4945
0.000397199
-0.00220566
-1.24411
1.24602
0.00417444
-0.00608708
-1.03761
1.0401
0.00843137
-0.0109224
-0.86619
0.86983
0.0141941
-0.0178343
-0.724598
0.729759
0.0226307
-0.0277915
-0.609069
0.615644
0.0342703
-0.0408449
-0.515126
0.52247
0.0485723
-0.0559166
-0.43988
0.447669
0.0639512
-0.0717402
-0.374713
0.377361
0.079247
-0.081895
-0.256907
0.224454
0.0715487
-0.0390953
-0.0687987
0.0591839
0.00961485
-0.0521253
0.0589621
-0.37483
0.367994
-0.0581182
0.0542793
-0.453937
0.457776
-0.0487935
0.0442347
-0.527604
0.532163
-0.0396837
0.0357869
-0.620786
0.624683
-0.0315758
0.0275902
-0.734647
0.738633
-0.0232542
0.0193922
-0.873944
0.877806
-0.015375
0.0119386
-1.04335
1.04678
-0.00843719
0.00541808
-1.24863
1.25165
-0.00222412
-0.000745909
-1.49693
1.4999
0.00369588
-0.00683399
-1.49741
1.50055
0.00977635
-0.013184
-1.25007
1.25348
0.0165328
-0.0204566
-1.04566
1.04958
0.0242397
-0.028494
-0.877152
0.881406
0.032406
-0.0365366
-0.739001
0.743131
0.0403638
-0.0448465
-0.625988
0.630471
0.0493507
-0.0547839
-0.535031
0.540464
0.0585632
-0.0593364
-0.458093
0.458867
0.052404
-0.0320381
-0.336792
0.316426
0.00966497
-0.0686811
0.0590162
-0.0533915
0.049277
0.00411445
-0.0332652
0.0436994
-0.358536
0.348101
-0.0473838
0.0468038
-0.45956
0.46014
-0.0438813
0.040673
-0.536109
0.539318
-0.0370004
0.0336511
-0.628367
0.631717
-0.0300281
0.0268045
-0.742004
0.745228
-0.0233783
0.0202076
-0.881303
0.884474
-0.0166424
0.013311
-1.0502
1.05353
-0.00963272
0.00624675
-1.2549
1.25828
-0.00247861
-0.0011167
-1.50324
1.50684
0.00468464
-0.00837195
-1.50405
1.50774
0.0116497
-0.0151906
-1.25704
1.26058
0.0183903
-0.0218137
-1.05329
1.05671
0.0248661
-0.0281739
-0.885015
0.888323
0.0312941
-0.0348062
-0.746823
0.750335
0.0380556
-0.0416229
-0.634603
0.63817
0.0447419
-0.0475669
-0.544617
0.547442
0.0480479
-0.0442274
-0.456998
0.453177
0.0336284
-0.0163473
-0.297135
0.279854
0.00416909
-0.0531757
0.0490066
-0.0461037
0.0435455
0.00255817
-0.0230677
0.0334291
-0.337496
0.327134
-0.0391735
0.04013
-0.459876
0.45892
-0.0388858
0.0365628
-0.541956
0.544279
-0.0339248
0.0313835
-0.634662
0.637203
-0.0284183
0.0255937
-0.748304
0.751128
-0.0223958
0.0194238
-0.887529
0.890501
-0.0161156
0.0130164
-1.05669
1.05979
-0.00949516
0.00612533
-1.26166
1.26503
-0.00224314
-0.00153381
-1.51055
1.51433
0.00527588
-0.00905144
-1.51152
1.5153
0.0122796
-0.0156172
-1.26404
1.26738
0.018538
-0.0216524
-1.05993
1.06304
0.0244613
-0.0274969
-0.891524
0.89456
0.0301813
-0.0329968
-0.753526
0.756342
0.0354039
-0.0379018
-0.641137
0.643635
0.0401075
-0.0412023
-0.549292
0.550387
0.0400937
-0.0341303
-0.448082
0.442119
0.0235312
-0.0103312
-0.264708
0.251508
0.00262577
-0.0457746
0.0431488
-0.0414232
0.039621
0.00180219
-0.0169593
0.0262559
-0.317251
0.307954
-0.0328658
0.0349972
-0.457345
0.455213
-0.0345715
0.0328782
-0.546294
0.547988
-0.0306535
0.028533
-0.639493
0.641614
-0.0261157
0.0237722
-0.753713
0.756057
-0.021009
0.0183102
-0.893343
0.896042
-0.0151725
0.0121773
-1.06281
1.0658
-0.00875362
0.00547999
-1.26831
1.27159
-0.00168868
-0.00201509
-1.51807
1.52177
0.00567518
-0.00933537
-1.51903
1.52269
0.0124329
-0.0156267
-1.27066
1.27385
0.0183954
-0.0212811
-1.06606
1.06895
0.023762
-0.026309
-0.897342
0.899889
0.0284711
-0.0306988
-0.758798
0.761026
0.0326496
-0.0346931
-0.64589
0.647933
0.0362163
-0.0364373
-0.550998
0.55122
0.0340735
-0.0271464
-0.435579
0.428652
0.0175342
-0.00741517
-0.239991
0.229872
0.00188468
-0.0409549
0.0390702
-0.038068
0.0367159
0.00135214
-0.0129477
0.0209507
-0.299302
0.291299
-0.027727
0.0306606
-0.452637
0.449703
-0.0308826
0.0297743
-0.549395
0.550503
-0.0277928
0.0258868
-0.643634
0.64554
-0.0237083
0.0216111
-0.758282
0.76038
-0.0191638
0.0167516
-0.898579
0.900991
-0.0138904
0.0110885
-1.06867
1.07147
-0.00782026
0.00466138
-1.27478
1.27794
-0.000988778
-0.0025927
-1.52539
1.52897
0.00612103
-0.00963165
-1.52629
1.5298
0.012571
-0.0155476
-1.27697
1.27995
0.0180579
-0.0205932
-1.07168
1.07422
0.0227239
-0.0248932
-0.902216
0.904386
0.026761
-0.0287038
-0.763076
0.765019
0.0304003
-0.0321666
-0.64982
0.651586
0.0330304
-0.0325266
-0.551081
0.550578
0.0292647
-0.0220581
-0.421526
0.41432
0.013653
-0.0056923
-0.220934
0.212973
0.00145261
-0.03743
0.0359774
-0.0355333
0.0344932
0.00104012
-0.0101061
0.0168752
-0.283931
0.277162
-0.0233961
0.0267887
-0.44651
0.443117
-0.0275806
0.0268948
-0.551373
0.552058
-0.0251349
0.0233648
-0.647396
0.649166
-0.0213387
0.019391
-0.762424
0.764372
-0.0171155
0.0148813
-0.903281
0.905515
-0.0122466
0.00965672
-1.0741
1.07669
-0.00660446
0.00361688
-1.28098
1.28397
-0.000117938
-0.0032902
-1.53246
1.53587
0.00663326
-0.00992861
-1.53322
1.53651
0.0126428
-0.0153337
-1.28281
1.2855
0.0175628
-0.0197913
-1.0766
1.07883
0.0216727
-0.0235947
-0.906411
0.908333
0.0252501
-0.0269826
-0.766821
0.768553
0.0284973
-0.02997
-0.653232
0.654705
0.0303515
-0.0291625
-0.549753
0.548564
0.0253207
-0.0182375
-0.407153
0.40007
0.0109667
-0.00453726
-0.20585
0.199421
0.00116214
-0.0346891
0.033527
-0.0335784
0.0327699
0.000808534
-0.00798637
0.0136643
-0.270962
0.265284
-0.0196951
0.0232948
-0.439596
0.435997
-0.0245902
0.0241831
-0.552617
0.553024
-0.0227362
0.0211106
-0.650896
0.652522
-0.0192104
0.017367
-0.766291
0.768134
-0.0151956
0.0130537
-0.907664
0.909806
-0.0105276
0.00805982
-1.07916
1.08163
-0.00517511
0.00236284
-1.28683
1.28964
0.000925628
-0.00413142
-1.53915
1.54236
0.00725512
-0.0102983
-1.53969
1.54273
0.0127794
-0.015225
-1.2881
1.29054
0.0172478
-0.0192659
-1.08098
1.08299
0.020958
-0.0226771
-0.910147
0.911866
0.0241519
-0.0256877
-0.770151
0.771687
0.0269953
-0.0280747
-0.655969
0.657049
0.028087
-0.0262605
-0.547066
0.54524
0.0220712
-0.015328
-0.393154
0.386411
0.00903235
-0.0037188
-0.193603
0.188289
0.000956091
-0.0324833
0.0315272
-0.0320597
0.0314315
0.000628234
-0.0063369
0.0110712
-0.2601
0.255366
-0.0164904
0.0200785
-0.43239
0.428802
-0.0216923
0.0215124
-0.553329
0.553509
-0.0203084
0.0187629
-0.654131
0.655676
-0.0169471
0.0151862
-0.769957
0.771718
-0.0131167
0.0110792
-0.911847
0.913884
-0.00867858
0.0063354
-1.08396
1.08631
-0.00359618
0.00093274
-1.29233
1.29499
0.00216912
-0.00517199
-1.54544
1.54845
0.00807285
-0.0108689
-1.54566
1.54846
0.0131205
-0.0153077
-1.2929
1.29508
0.0170919
-0.0188582
-1.08493
1.0867
0.0203347
-0.0218446
-0.913473
0.914983
0.0231543
-0.0245238
-0.773085
0.774454
0.0256958
-0.0264111
-0.657932
0.658647
0.0260794
-0.0237618
-0.543189
0.540872
0.0194107
-0.0131001
-0.379896
0.373586
0.00760908
-0.00312526
-0.183433
0.178949
0.000807692
-0.0306597
0.029852
-0.0308842
0.0304028
0.000481398
-0.00499344
0.00890275
-0.251065
0.247156
-0.0136598
0.0170916
-0.425293
0.421861
-0.0188953
0.0189169
-0.553623
0.553601
-0.0179227
0.0164271
-0.657256
0.658752
-0.0146578
0.0129425
-0.773472
0.775188
-0.0109345
0.00896619
-0.915807
0.917776
-0.0066539
0.00440279
-1.08851
1.09077
-0.00178182
-0.000743887
-1.29753
1.30006
0.00365374
-0.00643121
-1.5513
1.55408
0.00908396
-0.0116206
-1.55113
1.55367
0.013647
-0.0156024
-1.2972
1.29915
0.0171854
-0.0187334
-1.08839
1.08993
0.0200163
-0.0213181
-0.916373
0.917675
0.0224472
-0.023644
-0.775698
0.776895
0.0246519
-0.025019
-0.659163
0.659531
0.0243463
-0.0216356
-0.538398
0.535687
0.0172396
-0.0113797
-0.367529
0.361669
0.00654449
-0.00268845
-0.174818
0.170962
0.000699898
-0.0291135
0.0284136
-0.0299909
0.0296361
0.000354888
-0.00384253
0.00700844
-0.243637
0.240472
-0.0110701
0.0142192
-0.418577
0.415427
-0.0160887
0.0163008
-0.553517
0.553305
-0.0154558
0.014101
-0.660246
0.661601
-0.0123984
0.0107155
-0.776902
0.778585
-0.00872307
0.00676851
-0.919647
0.921602
-0.00449035
0.00229801
-1.09289
1.09508
0.000220401
-0.00263205
-1.30246
1.30487
0.00538353
-0.00798453
-1.55673
1.55933
0.0104329
-0.0127241
-1.55608
1.55837
0.0145118
-0.0162064
-1.30103
1.30272
0.0175691
-0.0189055
-1.0914
1.09274
0.0200149
-0.0211277
-0.918899
0.920012
0.0220821
-0.0230793
-0.777972
0.778969
0.0238041
-0.0238712
-0.659735
0.659802
0.0228231
-0.0197978
-0.53285
0.529825
0.015444
-0.0100289
-0.356061
0.350646
0.00573457
-0.00236393
-0.167383
0.164012
0.000622253
-0.0277667
0.0271445
-0.0293444
0.0291042
0.000240215
-0.00281098
0.00528882
-0.23767
0.235192
-0.00863606
0.0113943
-0.412491
0.409733
-0.0131797
0.0134753
-0.553091
0.552795
-0.0126964
0.0114207
-0.662984
0.664259
-0.00973618
0.0080564
-0.780271
0.781951
-0.00607972
0.00415948
-0.923435
0.925356
-0.0019424
-0.000173623
-1.09713
1.09925
0.00260152
-0.00489997
-1.30715
1.30945
0.00749189
-0.00990068
-1.5618
1.56421
0.0121206
-0.0141436
-1.56054
1.56256
0.0156839
-0.0171032
-1.30434
1.30576
0.018213
-0.0192764
-1.094
1.09506
0.0201481
-0.0210397
-0.921025
0.921917
0.0218108
-0.022586
-0.779811
0.780587
0.0230688
-0.0228781
-0.659714
0.659523
0.0214908
-0.0182424
-0.526725
0.523476
0.013987
-0.00898028
-0.345475
0.340468
0.00512503
-0.00212755
-0.160864
0.157867
0.000568521
-0.0265665
0.025998
-0.0289249
0.0287937
0.000131106
-0.00183283
0.00364692
-0.233064
0.23125
-0.00626568
0.00856706
-0.407236
0.404934
-0.0101717
0.0104763
-0.552573
0.552269
-0.00972964
0.00849256
-0.665616
0.666853
-0.00681617
0.0051393
-0.783614
0.785291
-0.00317219
0.0012673
-0.92712
0.929025
0.000926956
-0.00301659
-1.10123
1.10332
0.00538684
-0.00760076
-1.31162
1.31384
0.0100439
-0.0122506
-1.56647
1.56868
0.0142268
-0.0159793
-1.56445
1.5662
0.0172582
-0.0183901
-1.30708
1.30821
0.0192368
-0.0200046
-1.096
1.09677
0.0206111
-0.0212133
-0.922687
0.923289
0.0217556
-0.022342
-0.781287
0.781874
0.0225096
-0.0220575
-0.659115
0.658663
0.0203787
-0.016953
-0.520196
0.51677
0.0128087
-0.00816209
-0.335696
0.33105
0.00466581
-0.00195791
-0.155057
0.152349
0.000532917
-0.0254683
0.0249354
-0.0287258
0.0287081
1.76899e-05
-0.000865915
0.00202143
-0.229786
0.22863
-0.00387771
0.00564672
-0.402941
0.401172
-0.00698611
0.0072763
-0.55207
0.551779
-0.00660965
0.00545943
-0.668159
0.66931
-0.00380483
0.00209254
-0.786936
0.788648
-5.0611e-05
-0.00192486
-0.930799
0.932774
0.00417457
-0.00628377
-1.10528
1.10739
0.00863535
-0.0107889
-1.31592
1.31808
0.0131149
-0.0151543
-1.57073
1.57277
0.0169123
-0.0183856
-1.56781
1.56929
0.0194027
-0.0202458
-1.30928
1.31012
0.0208335
-0.021333
-1.09749
1.09799
0.0216908
-0.0220221
-0.923817
0.924149
0.0222957
-0.0225806
-0.782222
0.782507
0.0224233
-0.021613
-0.657898
0.657087
0.0195615
-0.0159319
-0.513306
0.509676
0.0118926
-0.00755813
-0.326623
0.322289
0.00434756
-0.00185286
-0.149796
0.147301
0.000516616
-0.0244341
0.0239175
-0.0287477
0.0288528
-0.000105092
0.000170591
0.00031279
-0.227826
0.227343
-0.00136754
0.00251173
-0.399768
0.398623
-0.00342865
0.0035582
-0.551691
0.551561
-0.00285121
0.00169283
-0.670582
0.67174
-2.30053e-06
-0.00176464
-0.790321
0.792088
0.00386232
-0.00587061
-0.934592
0.9366
0.00813989
-0.0102497
-1.10936
1.11147
0.0125712
-0.0146634
-1.3201
1.32219
0.0168718
-0.018745
-1.57467
1.57654
0.0202656
-0.0214323
-1.57059
1.57176
0.0221132
-0.0225675
-1.31083
1.31129
0.0228033
-0.022931
-1.09837
1.0985
0.0229795
-0.0230034
-0.924383
0.924407
0.023025
-0.0229633
-0.782508
0.782446
0.0225125
-0.0212378
-0.655903
0.654628
0.0188888
-0.0151443
-0.506109
0.502365
0.0112187
-0.00713709
-0.318176
0.314094
0.00414169
-0.00179555
-0.144941
0.142595
0.000512429
-0.0234326
0.0229202
-0.0290297
0.0292706
-0.000240899
0.00119029
-0.00140213
-0.227246
0.227458
0.00120017
-0.000739404
-0.397873
0.397412
0.000330271
-0.000464445
-0.551757
0.551892
0.00132053
-0.00258709
-0.673122
0.674388
0.00436823
-0.0062058
-0.793789
0.795627
0.00836483
-0.0104236
-0.938419
0.940478
0.0127477
-0.0149013
-1.11342
1.11558
0.0172564
-0.0193383
-1.32415
1.32623
0.0214603
-0.0231585
-1.57825
1.57995
0.0244238
-0.0252814
-1.57274
1.5736
0.0256688
-0.0257525
-1.31163
1.31172
0.0256312
-0.0253515
-1.09848
1.0982
0.0250215
-0.0246545
-0.92425
0.923883
0.0243296
-0.0239121
-0.782059
0.781641
0.0231209
-0.0213982
-0.653101
0.651378
0.018712
-0.014771
-0.498706
0.494765
0.0108702
-0.00693842
-0.310205
0.306273
0.00406843
-0.00179266
-0.140357
0.138081
0.000521716
-0.0224366
0.0219149
-0.0295813
0.0299679
-0.00038666
0.00232117
-0.00325248
-0.228009
0.228941
0.00392133
-0.00421196
-0.397355
0.397646
0.00437451
-0.00477
-0.552424
0.552819
0.00570525
-0.00705779
-0.675871
0.677224
0.008961
-0.0109487
-0.797396
0.799383
0.0133011
-0.0155418
-0.942385
0.944625
0.0180573
-0.0203646
-1.11762
1.11993
0.0228414
-0.024979
-1.32821
1.33035
0.0270705
-0.0286309
-1.58149
1.58305
0.0296643
-0.0301745
-1.57425
1.57476
0.0302169
-0.0299021
-1.31165
1.31134
0.0294076
-0.0287417
-1.09772
1.09706
0.0280632
-0.0272876
-0.923269
0.922494
0.0265919
-0.025722
-0.780811
0.779941
0.0244775
-0.0221821
-0.64946
0.647165
0.0190802
-0.0148921
-0.490911
0.486723
0.0109488
-0.0070469
-0.302508
0.298606
0.0041781
-0.0018615
-0.135877
0.13356
0.000546215
-0.0214202
0.020874
-0.0304412
0.0310055
-0.000564328
0.00352297
-0.00518413
-0.230257
0.231918
0.00675917
-0.0078622
-0.398328
0.399431
0.00877781
-0.0096067
-0.553754
0.554583
0.0107735
-0.0122924
-0.678833
0.680352
0.014409
-0.0166378
-0.801311
0.80354
0.0192926
-0.0218148
-0.94675
0.949272
0.0246147
-0.0271297
-1.12214
1.12465
0.0297572
-0.0319421
-1.33236
1.33455
0.0339804
-0.035376
-1.58443
1.58583
0.0361259
-0.0362426
-1.57503
1.57515
0.0358981
-0.035153
-1.31083
1.31008
0.0342502
-0.033133
-1.09614
1.09503
0.0320617
-0.0308697
-0.921411
0.920219
0.0297919
-0.0283765
-0.778609
0.777193
0.0265664
-0.0237102
-0.644732
0.641876
0.0202242
-0.0157673
-0.482672
0.478215
0.0116671
-0.00760164
-0.294821
0.290756
0.00455311
-0.0020392
-0.131257
0.128743
0.000596967
-0.0203476
0.0197507
-0.0316547
0.032424
-0.00076933
0.00485375
-0.00729077
-0.233976
0.236413
0.009816
-0.0117818
-0.400979
0.402944
0.0135479
-0.015002
-0.556109
0.557563
0.0166718
-0.0185722
-0.682259
0.684159
0.0210925
-0.0236839
-0.805734
0.808326
0.0267151
-0.0295494
-0.951665
0.9545
0.0326499
-0.0353905
-1.12705
1.12979
0.0381933
-0.040455
-1.3366
1.33886
0.0424568
-0.04367
-1.58702
1.58824
0.0441045
-0.0437806
-1.57499
1.57466
0.0429642
-0.0416963
-1.30906
1.30779
0.0403267
-0.0387047
-1.09359
1.09197
0.0371845
-0.0355372
-0.918647
0.917
0.0340591
-0.0320893
-0.775285
0.773315
0.0298236
-0.0264515
-0.638989
0.635617
0.0225282
-0.0176399
-0.473883
0.468994
0.0131666
-0.00867572
-0.286714
0.282223
0.00523459
-0.00234976
-0.126171
0.123286
0.000685735
-0.0191601
0.0184744
-0.0332693
0.0342933
-0.00102405
0.00645759
-0.00978318
-0.239236
0.242562
0.0133574
-0.0162452
-0.405446
0.408334
0.0189071
-0.0210681
-0.559873
0.562034
0.0233991
-0.0258538
-0.686601
0.689056
0.0289531
-0.032029
-0.810906
0.813982
0.0355425
-0.038785
-0.957204
0.960447
0.042296
-0.0453678
-1.13243
1.1355
0.0484545
-0.0508643
-1.34101
1.34342
0.0528531
-0.0538719
-1.58922
1.59024
0.0539539
-0.0531499
-1.57403
1.57323
0.0518263
-0.0499609
-1.30616
1.30429
0.0480391
-0.0458256
-1.08994
1.08773
0.0438167
-0.041699
-0.914905
0.912787
0.0397901
-0.0373125
-0.770898
0.768421
0.0345217
-0.0305159
-0.632225
0.62822
0.025978
-0.0204199
-0.464185
0.458627
0.015334
-0.0101647
-0.277674
0.272504
0.00614692
-0.00275445
-0.120296
0.116903
0.000799286
-0.0177902
0.0169909
-0.0353861
0.0367662
-0.00138012
0.00861965
-0.0130709
-0.246268
0.250719
0.0178943
-0.0218236
-0.411882
0.415811
0.0254368
-0.0283204
-0.565209
0.568093
0.0313196
-0.0343688
-0.692133
0.695182
0.0381472
-0.0418442
-0.817055
0.820752
0.0460373
-0.049875
-0.963615
0.967453
0.053988
-0.0575264
-1.13851
1.14205
0.0610005
-0.0636078
-1.34571
1.34832
0.0656035
-0.0664098
-1.59101
1.59182
0.0661026
-0.0647394
-1.57206
1.5707
0.0628482
-0.0603213
-1.30203
1.2995
0.0577903
-0.0549646
-1.08502
1.08219
0.0524306
-0.0497381
-0.910075
0.907382
0.0472722
-0.0441681
-0.765473
0.762369
0.0406913
-0.0358292
-0.624138
0.619276
0.0304744
-0.0240131
-0.453119
0.446658
0.0180773
-0.011986
-0.267215
0.261124
0.00723235
-0.00322835
-0.113374
0.10937
0.000932898
-0.0161887
0.0152558
-0.0381954
0.0401058
-0.00191039
0.0117193
-0.0176725
-0.255522
0.261476
0.0240563
-0.0292488
-0.42067
0.425863
0.0339992
-0.0377595
-0.572294
0.576054
0.0416076
-0.0454223
-0.698972
0.702787
0.0500741
-0.0545897
-0.824475
0.82899
0.059649
-0.0642148
-0.97127
0.975836
0.0690069
-0.0730111
-1.14552
1.14952
0.0767809
-0.0794465
-1.35074
1.3534
0.0812606
-0.0816518
-1.59228
1.59267
0.080744
-0.0786416
-1.56889
1.56679
0.0760596
-0.0727832
-1.29652
1.29325
0.0695834
-0.0660053
-1.07875
1.07517
0.0627823
-0.0593851
-0.903945
0.900548
0.0562397
-0.052373
-0.758644
0.754777
0.0480762
-0.0422266
-0.614297
0.608447
0.0359073
-0.0282957
-0.440257
0.432645
0.0212485
-0.0140086
-0.254891
0.247652
0.00839858
-0.00372052
-0.105238
0.10056
0.00106606
-0.0143308
0.0132647
-0.0420259
0.0447752
-0.00274933
0.0163956
-0.0244191
-0.267732
0.275755
0.0328218
-0.0396235
-0.432552
0.439353
0.045849
-0.0507992
-0.581648
0.586598
0.0559274
-0.0609427
-0.707523
0.712538
0.0667585
-0.0722177
-0.833547
0.839006
0.0781913
-0.0834364
-0.980345
0.98559
0.0887549
-0.0930006
-1.15335
1.15759
0.0967536
-0.0991431
-1.3557
1.35809
0.100356
-0.0999259
-1.5925
1.59206
0.0980051
-0.094761
-1.56403
1.56079
0.0911703
-0.0868845
-1.2894
1.28512
0.0828718
-0.0785301
-1.07096
1.06662
0.0746938
-0.0705864
-0.896235
0.892128
0.0666783
-0.06201
-0.750171
0.745502
0.0568937
-0.0499932
-0.602458
0.595557
0.042461
-0.0332979
-0.425062
0.415899
0.0248203
-0.0162128
-0.240291
0.231684
0.00963447
-0.00422332
-0.0957835
0.0903723
0.00119505
-0.0122212
0.0110261
-0.0474591
0.0516452
-0.00418615
0.02381
-0.0347139
-0.284084
0.294988
0.0457606
-0.0546547
-0.448613
0.457507
0.0627253
-0.069199
-0.594061
0.600534
0.0760505
-0.0825873
-0.718551
0.725088
0.089796
-0.0962359
-0.844487
0.850927
0.102983
-0.108649
-0.990641
0.996307
0.114108
-0.118207
-1.16143
1.16553
0.121502
-0.123203
-1.35986
1.36156
0.12337
-0.121728
-1.59081
1.58916
0.118474
-0.113798
-1.55667
1.552
0.108957
-0.10338
-1.28006
1.27449
0.0982871
-0.092916
-1.06149
1.05612
0.0883185
-0.0835863
-0.887032
0.8823
0.0791766
-0.0737901
-0.740005
0.734619
0.0677325
-0.0593364
-0.58829
0.579894
0.0500741
-0.0389006
-0.406664
0.395491
0.0287385
-0.0185895
-0.223073
0.212924
0.0109283
-0.00472159
-0.0849376
0.0787309
0.00131143
-0.00987684
0.00856542
-0.0555596
0.062782
-0.00722239
0.0370479
-0.0522172
-0.306728
0.321897
0.0669379
-0.0785202
-0.470222
0.481805
0.0884538
-0.0964637
-0.610116
0.618126
0.105071
-0.11297
-0.732402
0.740301
0.121223
-0.128185
-0.85718
0.864142
0.135089
-0.140579
-1.0015
1.00699
0.145561
-0.148982
-1.16894
1.17236
0.151307
-0.151899
-1.3624
1.36299
0.150673
-0.14759
-1.58652
1.58343
0.142914
-0.136827
-1.54638
1.5403
0.130781
-0.123978
-1.2681
1.26129
0.117824
-0.111388
-1.04986
1.04343
0.105926
-0.10036
-0.876377
0.870811
0.095193
-0.0886184
-0.72807
0.721496
0.0807329
-0.069876
-0.570589
0.559732
0.0583295
-0.0449498
-0.384139
0.370759
0.0330279
-0.0212194
-0.203001
0.191192
0.0123339
-0.00523348
-0.0726931
0.0655927
0.00141244
-0.0073409
0.00592846
-0.0695747
0.073457
-0.0038823
0.0276319
-0.0406456
-0.339587
0.352601
0.0536333
-0.0639404
-0.498454
0.508761
0.0733614
-0.0826085
-0.629532
0.638779
0.0931405
-0.102484
-0.748003
0.757346
0.112849
-0.122021
-0.870269
0.879441
0.131632
-0.140016
-1.01153
1.01991
0.148562
-0.155653
-1.1747
1.18179
0.162329
-0.167185
-1.36246
1.36732
0.170717
-0.171882
-1.57923
1.58039
0.17056
-0.167167
-1.53322
1.52983
0.162617
-0.156519
-1.25369
1.24759
0.150467
-0.143056
-1.03607
1.02866
0.136323
-0.128615
-0.863678
0.85597
0.120717
-0.11023
-0.712741
0.702254
0.0976286
-0.0816416
-0.547553
0.531566
0.066058
-0.0488192
-0.357037
0.339798
0.034302
-0.0207495
-0.179764
0.166211
0.0112618
-0.00440352
-0.0592004
0.0523422
0.00105484
-0.00471967
0.00366483
-0.080433
0.0783417
0.00209129
0.00573838
-0.0138504
-0.368403
0.376515
0.0234262
-0.0307092
-0.523637
0.53092
0.0382941
-0.0461025
-0.650123
0.657931
0.0555122
-0.0641647
-0.766425
0.775078
0.0733566
-0.0817633
-0.888053
0.89646
0.0906463
-0.0981674
-1.02805
1.03557
0.106117
-0.11245
-1.18882
1.19515
0.118492
-0.122754
-1.37208
1.37634
0.125518
-0.126172
-1.58104
1.58169
0.12441
-0.120593
-1.526
1.52219
0.115411
-0.108507
-1.24118
1.23427
0.101441
-0.0927234
-1.02038
1.01166
0.0837926
-0.0729065
-0.844794
0.833908
0.0623078
-0.0507544
-0.686161
0.674608
0.0402321
-0.0290121
-0.513109
0.501888
0.0197526
-0.0117061
-0.322167
0.314121
0.00646604
-0.00273184
-0.153224
0.14949
0.000846637
-3.63086e-05
-0.0459947
0.0451844
-9.15012e-05
-0.00252429
0.00261579
-0.0813385
0.0783598
0.00297873
-0.00308529
-0.00115908
-0.387384
0.391628
0.00730097
-0.0125665
-0.541974
0.54724
0.0182644
-0.0247389
-0.667316
0.67379
0.0325856
-0.0398923
-0.782884
0.790191
0.0479945
-0.0553436
-0.90415
0.9115
0.0629709
-0.0698657
-1.04299
1.04988
0.0770173
-0.0828801
-1.20119
1.20706
0.0881073
-0.0916609
-1.38011
1.38366
0.0940004
-0.0940661
-1.58179
1.58185
0.0916972
-0.087232
-1.51775
1.51328
0.0814833
-0.0740627
-1.227
1.21958
0.0660659
-0.0565466
-1.00191
0.992396
0.0470046
-0.035886
-0.821785
0.810666
0.0258872
-0.0157218
-0.660105
0.649939
0.00769326
-0.000155736
-0.488818
0.481281
-0.00441933
0.00667913
-0.304445
0.302185
-0.0068335
0.00563163
-0.144078
0.14528
-0.00392698
0.00198359
-0.0437157
0.0456591
-0.000641531
-0.00238909
0.00303062
-0.0798059
0.0769891
0.00281677
-0.00624862
0.00446697
-0.39951
0.401292
-0.000936342
-0.00288142
-0.555414
0.559232
0.00766315
-0.0129094
-0.680983
0.686229
0.0194133
-0.0255753
-0.796972
0.803134
0.0324775
-0.0388312
-0.918375
0.924728
0.0458744
-0.0518828
-1.05643
1.06244
0.0583423
-0.0632204
-1.21261
1.21748
0.067895
-0.0709833
-1.38707
1.39016
0.0726609
-0.0719263
-1.58145
1.58072
0.0691498
-0.0642938
-1.50808
1.50322
0.0582507
-0.0502949
-1.21167
1.20371
0.0422975
-0.0329916
-0.982287
0.972981
0.0238232
-0.013872
-0.799035
0.789083
0.00495118
0.00333382
-0.63772
0.629435
-0.00918233
0.0136077
-0.472164
0.467739
-0.0152821
0.014484
-0.296648
0.297446
-0.0122681
0.00893679
-0.144567
0.147899
-0.00587941
0.00279142
-0.046635
0.0497229
-0.000849627
-0.00326607
0.00411569
-0.0781427
0.0757353
0.00240738
-0.00690151
0.00650313
-0.407439
0.407837
-0.00396662
0.00131412
-0.566022
0.568675
0.00249583
-0.00717193
-0.692073
0.696749
0.0125001
-0.0178585
-0.808694
0.814053
0.0238258
-0.0293863
-0.930697
0.936257
0.0355215
-0.0409751
-1.06836
1.07382
0.0465876
-0.051165
-1.22228
1.22685
0.0552664
-0.057868
-1.39289
1.3955
0.0590595
-0.0579431
-1.57973
1.57861
0.0548978
-0.0497158
-1.49757
1.49238
0.0437214
-0.0361789
-1.19563
1.18809
0.0286762
-0.0200416
-0.963407
0.954773
0.0120168
-0.00341225
-0.778833
0.770229
-0.00389794
0.0106205
-0.619701
0.612978
-0.0151014
0.018028
-0.461005
0.458078
-0.0187383
0.0169205
-0.294287
0.296105
-0.0137627
0.00991187
-0.149084
0.152935
-0.00643707
0.00300464
-0.0517068
0.0551393
-0.000921459
-0.00458927
0.00551073
-0.0767471
0.0747438
0.00200331
-0.00640347
0.00630661
-0.412854
0.412951
-0.00496147
0.00276
-0.574057
0.576258
0.000988633
-0.00496049
-0.701305
0.705277
0.00952108
-0.0141663
-0.818719
0.823364
0.0194865
-0.0244914
-0.941529
0.946534
0.0301552
-0.0349956
-1.07903
1.08387
0.0401029
-0.0442628
-1.23116
1.23532
0.0479009
-0.0501345
-1.39782
1.40005
0.0509808
-0.0500231
-1.57734
1.57638
0.0469102
-0.0420521
-1.48674
1.48189
0.036408
-0.0294578
-1.18048
1.17353
0.0229197
-0.0152093
-0.946238
0.938528
0.00826322
-0.00110947
-0.761653
0.7545
-0.00491737
0.0103948
-0.605234
0.599756
-0.0140362
0.0165027
-0.452613
0.450146
-0.0168451
0.0151614
-0.294176
0.295859
-0.0124413
0.00890597
-0.154543
0.158078
-0.00571552
0.00268849
-0.0570761
0.0601031
-0.000831497
-0.00596898
0.00680048
-0.075801
0.0742822
0.00151872
-0.00526019
0.00532121
-0.416988
0.416926
-0.00414716
0.00246474
-0.581217
0.582899
0.00112386
-0.00475862
-0.709316
0.712951
0.00916195
-0.0131879
-0.827716
0.831742
0.0178967
-0.0223702
-0.951561
0.956035
0.0277687
-0.032194
-1.08875
1.09318
0.0367646
-0.0406931
-1.2393
1.24323
0.0444207
-0.0464474
-1.40228
1.4043
0.0473012
-0.0462974
-1.57501
1.57401
0.0436665
-0.0389482
-1.47685
1.47213
0.033963
-0.0278699
-1.16656
1.16047
0.0219845
-0.0154417
-0.931082
0.924539
0.00941522
-0.00311511
-0.747185
0.740885
-0.00182929
0.00660246
-0.593249
0.588476
-0.00985255
0.0117782
-0.445471
0.443546
-0.0122751
0.0113383
-0.294361
0.295298
-0.00929431
0.00657248
-0.159141
0.161863
-0.00419444
0.00199391
-0.0614629
0.0636634
-0.000635732
-0.00710109
0.00773682
-0.0754191
0.0742558
0.00116329
-0.00403208
0.00407994
-0.420433
0.420385
-0.00281718
0.00108184
-0.58763
0.589365
0.00234195
-0.00564416
-0.716652
0.719954
0.00947231
-0.0134284
-0.835812
0.839768
0.017828
-0.0224618
-0.96037
0.965004
0.0271455
-0.031372
-1.09771
1.10194
0.0360314
-0.0396757
-1.24703
1.25068
0.0428828
-0.0452757
-1.40622
1.40862
0.0462835
-0.0455839
-1.57304
1.57234
0.0432062
-0.039222
-1.46764
1.46366
0.0347745
-0.029327
-1.15419
1.14874
0.0241798
-0.0183994
-0.918026
0.912246
0.0131406
-0.00779817
-0.734674
0.729331
0.00317949
0.00107661
-0.582837
0.578581
-0.00395259
0.0060366
-0.439366
0.437282
-0.00674956
0.00623641
-0.293656
0.294169
-0.00512594
0.00354303
-0.161979
0.163562
-0.00223124
0.00107076
-0.0642077
0.0653682
-0.000368844
-0.00785139
0.00822023
-0.0755919
0.074633
0.000958945
-0.00269472
0.00244229
-0.423722
0.423975
-0.0012702
-0.000612236
-0.593685
0.595567
0.00385946
-0.00716259
-0.723637
0.72694
0.0109383
-0.0145831
-0.84361
0.847254
0.0191559
-0.0230397
-0.96912
0.973003
0.0276909
-0.0317211
-1.10633
1.11036
0.0362335
-0.0400325
-1.2543
1.2581
0.0434798
-0.0456316
-1.41076
1.41291
0.0469675
-0.0466863
-1.57157
1.57129
0.0449957
-0.0414272
-1.45959
1.45602
0.0375417
-0.0326642
-1.14345
1.13857
0.0280857
-0.0228509
-0.906342
0.901107
0.0182408
-0.0133513
-0.723782
0.718892
0.00920243
-0.00523991
-0.573683
0.569721
0.00230177
-0.000232388
-0.433361
0.431292
-0.000883518
0.0011288
-0.291825
0.29158
-0.00112021
0.000828154
-0.162646
0.162938
-0.000568609
0.000365153
-0.0650193
0.0652227
-0.000166164
-0.00811163
0.0082778
-0.0760532
0.0753975
0.000655688
-0.00154616
0.000896024
-0.427265
0.427916
0.000137878
-0.00239503
-0.599136
0.601393
0.00539549
-0.00866913
-0.73034
0.733614
0.01238
-0.0162294
-0.850853
0.854703
0.0202566
-0.0243227
-0.977135
0.981201
0.0289406
-0.0327547
-1.11482
1.11863
0.0373314
-0.0410593
-1.2617
1.26543
0.0445389
-0.0471971
-1.41547
1.41812
0.0490143
-0.0490342
-1.57105
1.57107
0.0476312
-0.0448208
-1.45263
1.44982
0.0415282
-0.037089
-1.13359
1.12915
0.032839
-0.028226
-0.895827
0.891214
0.0236474
-0.0192588
-0.713733
0.709344
0.0153805
-0.0115014
-0.565346
0.561467
0.00865295
-0.00617499
-0.427293
0.424815
0.00460035
-0.00338159
-0.28875
0.287532
0.00246116
-0.00152121
-0.161118
0.160178
0.000717634
-0.000132979
-0.0640622
0.0634775
-5.64786e-05
-0.00788847
0.00794495
-0.0769108
0.0764066
0.00050426
-0.000608911
7.74158e-05
-0.431112
0.431643
0.00177008
-0.00385804
-0.604951
0.607039
0.00707059
-0.0102953
-0.736739
0.739964
0.0139396
-0.0174647
-0.858309
0.861834
0.0216658
-0.0254489
-0.985314
0.989097
0.0300251
-0.0342623
-1.12291
1.12714
0.0384704
-0.0425072
-1.2692
1.27324
0.0463869
-0.0491311
-1.42068
1.42343
0.0513228
-0.0521331
-1.57131
1.57212
0.051196
-0.0490309
-1.44688
1.44472
0.0459689
-0.0420011
-1.12473
1.12077
0.0381663
-0.0337358
-0.886197
0.881767
0.0295403
-0.0252763
-0.704426
0.700162
0.0215109
-0.0175655
-0.557068
0.553122
0.0144411
-0.0116134
-0.420828
0.418
0.00929104
-0.00721503
-0.284039
0.281963
0.00536537
-0.00343462
-0.157466
0.155535
0.00188988
-0.000676936
-0.0616543
0.0604414
0.000114008
-0.00738974
0.00727573
-0.07802
0.0776954
0.000324573
0.000439132
-0.0012737
-0.435048
0.435883
0.00291365
-0.00532555
-0.61043
0.612842
0.00851853
-0.0116482
-0.743053
0.746183
0.0154387
-0.0188712
-0.865405
0.868838
0.0229635
-0.0268905
-0.993389
0.997316
0.0313816
-0.0355838
-1.13125
1.13545
0.0400024
-0.0440562
-1.2772
1.28126
0.0481127
-0.0515938
-1.42646
1.42994
0.0542323
-0.0553494
-1.57287
1.57398
0.0551103
-0.0532765
-1.44243
1.4406
0.0507654
-0.0473088
-1.11671
1.11325
0.0435254
-0.0392939
-0.877033
0.872801
0.0352502
-0.0309271
-0.695474
0.691151