/*--------------------------------*- C++ -*----------------------------------*\
| =========                 |                                                 |
| \\      /  F ield         | OpenFOAM: The Open Source CFD Toolbox           |
|  \\    /   O peration     | Version:  2112                                  |
|   \\  /    A nd           | Website:  www.openfoam.com                      |
|    \\/     M anipulation  |                                                 |
\*---------------------------------------------------------------------------*/
FoamFile
{
    version     2.0;
    format      ascii;
    arch        "LSB;label=32;scalar=64";
    class       volVectorField;
    location    "34.5";
    object      U;
}
// * * * * * * * * * * * * * * * * * * * * * * * * * * * * * * * * * * * * * //

dimensions      [0 1 -1 0 0 0 0];

internalField   nonuniform List<vector> 
8800
(
(0.980155 -0.0915211 0)
(1.00234 -0.0587223 0)
(0.999609 -0.0321232 0)
(0.999997 -0.0165135 0)
(1.00005 -0.00882635 0)
(1.00003 -0.00507512 0)
(0.999997 -0.00298299 0)
(0.999978 -0.00169687 0)
(0.99997 -0.000813323 0)
(1.00006 -0.000122768 0)
(0.999979 0.00057849 0)
(0.999998 0.00133398 0)
(1.00001 0.00236793 0)
(1.00002 0.00397821 0)
(1.00003 0.00672726 0)
(1.00002 0.0120348 0)
(0.999846 0.0230886 0)
(0.999057 0.0431554 0)
(1.00723 0.0790278 0)
(0.775024 0.0478396 0)
(0.358975 -0.0147491 0)
(1.04649 -0.0724947 0)
(1.08849 -0.0660321 0)
(1.04946 -0.0509255 0)
(1.02553 -0.037705 0)
(1.01268 -0.0258967 0)
(1.0065 -0.0167112 0)
(1.00357 -0.0102523 0)
(1.00214 -0.00564713 0)
(1.00148 -0.00206914 0)
(1.00136 0.00112002 0)
(1.00173 0.00442129 0)
(1.00271 0.00832299 0)
(1.00473 0.0136561 0)
(1.00896 0.0213488 0)
(1.01796 0.0318481 0)
(1.03583 0.0446317 0)
(1.06746 0.0580869 0)
(1.09472 0.0699603 0)
(0.845674 0.0555015 0)
(0.217755 -0.00138173 0)
(1.07566 -0.0506696 0)
(1.09942 -0.0489565 0)
(1.06438 -0.0400419 0)
(1.03985 -0.0325802 0)
(1.02372 -0.0253676 0)
(1.01395 -0.0181817 0)
(1.00845 -0.0116046 0)
(1.00561 -0.00587699 0)
(1.00445 -0.000608699 0)
(1.00478 0.00448345 0)
(1.00664 0.00976141 0)
(1.01057 0.0157486 0)
(1.01788 0.0225299 0)
(1.03051 0.0296532 0)
(1.0505 0.0367557 0)
(1.08009 0.0445479 0)
(1.10572 0.0518893 0)
(0.943372 0.0409877 0)
(0.217261 0.00140226 0)
(0.176595 -0.000629321 0)
(1.01935 -0.0354816 0)
(1.1057 -0.0414398 0)
(1.07795 -0.0364317 0)
(1.05237 -0.0303914 0)
(1.03512 -0.0245295 0)
(1.02328 -0.0187764 0)
(1.01549 -0.012821 0)
(1.01089 -0.00675674 0)
(1.00888 -0.000555751 0)
(1.00943 0.00556966 0)
(1.01253 0.0114729 0)
(1.01849 0.0172659 0)
(1.02807 0.022882 0)
(1.04229 0.0284593 0)
(1.06313 0.0342546 0)
(1.09394 0.0401558 0)
(1.09455 0.0417041 0)
(0.830436 0.0227428 0)
(0.175752 0.000645712 0)
(0.154669 -0.000462988 0)
(0.958074 -0.0257073 0)
(1.10435 -0.0351465 0)
(1.08801 -0.0327067 0)
(1.06113 -0.0282054 0)
(1.04307 -0.0232604 0)
(1.03072 -0.0180216 0)
(1.02214 -0.0125469 0)
(1.01661 -0.00669207 0)
(1.01399 -0.000282439 0)
(1.01466 0.00614986 0)
(1.01848 0.012001 0)
(1.02527 0.0173246 0)
(1.0354 0.0223656 0)
(1.05017 0.0272315 0)
(1.0721 0.0317 0)
(1.10112 0.035602 0)
(1.06993 0.0338524 0)
(0.742986 0.0144023 0)
(0.15341 0.000481502 0)
(0.139969 -0.000334795 0)
(0.901004 -0.0193376 0)
(1.09672 -0.0302535 0)
(1.09612 -0.0293897 0)
(1.0688 -0.025615 0)
(1.04993 -0.0215651 0)
(1.03699 -0.0169505 0)
(1.02803 -0.0117748 0)
(1.02212 -0.00612087 0)
(1.01918 0.000158068 0)
(1.01985 0.00647049 0)
(1.0239 0.0120924 0)
(1.03093 0.0170949 0)
(1.04145 0.0216058 0)
(1.05689 0.0255951 0)
(1.0797 0.0291469 0)
(1.10353 0.0318948 0)
(1.03837 0.0279563 0)
(0.676484 0.0102341 0)
(0.1382 0.000356812 0)
(0.12922 -0.000253232 0)
(0.851084 -0.0149275 0)
(1.08428 -0.0261345 0)
(1.10171 -0.0265062 0)
(1.07552 -0.0232199 0)
(1.05616 -0.0196244 0)
(1.04281 -0.0155323 0)
(1.03348 -0.0107639 0)
(1.02728 -0.00536429 0)
(1.02413 0.000708098 0)
(1.02472 0.00679879 0)
(1.02881 0.0121245 0)
(1.03604 0.0166902 0)
(1.04687 0.0206013 0)
(1.06267 0.0240017 0)
(1.08593 0.0270754 0)
(1.10287 0.028927 0)
(1.00404 0.0233312 0)
(0.624887 0.00780344 0)
(0.12683 0.000280054 0)
(0.121033 -0.000194379 0)
(0.808581 -0.0117241 0)
(1.06891 -0.0225152 0)
(1.10515 -0.0238393 0)
(1.08166 -0.0209843 0)
(1.06183 -0.0176221 0)
(1.04819 -0.0138532 0)
(1.03859 -0.00946492 0)
(1.03215 -0.00439498 0)
(1.0288 0.00138733 0)
(1.02926 0.00715297 0)
(1.03333 0.0120876 0)
(1.04064 0.0161627 0)
(1.0516 0.0195838 0)
(1.06771 0.0225884 0)
(1.09138 0.0253932 0)
(1.09947 0.0263901 0)
(0.969512 0.0196541 0)
(0.583751 0.00620008 0)
(0.11789 0.000226994 0)
(0.114697 -0.000149797 0)
(0.772807 -0.00930961 0)
(1.05197 -0.0192993 0)
(1.10737 -0.0213938 0)
(1.0874 -0.0189835 0)
(1.06712 -0.0158281 0)
(1.05322 -0.0122273 0)
(1.04345 -0.00804067 0)
(1.03677 -0.00325033 0)
(1.03317 0.00220286 0)
(1.03348 0.00759519 0)
(1.0375 0.0121185 0)
(1.04478 0.0158041 0)
(1.0558 0.0188798 0)
(1.07218 0.0215581 0)
(1.0956 0.0239997 0)
(1.09337 0.0241885 0)
(0.936184 0.0167336 0)
(0.550136 0.00507425 0)
(0.110638 0.000189145 0)
(0.109771 -0.000114399 0)
(0.742887 -0.00741826 0)
(1.0346 -0.0164047 0)
(1.10854 -0.0190021 0)
(1.0927 -0.0169177 0)
(1.07216 -0.0139079 0)
(1.05801 -0.0104695 0)
(1.04805 -0.0064901 0)
(1.04118 -0.00195336 0)
(1.03734 0.00319019 0)
(1.03742 0.00820856 0)
(1.04128 0.0123075 0)
(1.04849 0.0155547 0)
(1.05951 0.0182487 0)
(1.07611 0.0206299 0)
(1.09857 0.0227351 0)
(1.08501 0.0222359 0)
(0.904764 0.014422 0)
(0.522053 0.00425792 0)
(0.104598 0.000162336 0)
(0.105969 -8.52635e-05 0)
(0.718048 -0.00587368 0)
(1.01768 -0.0137763 0)
(1.10891 -0.0166862 0)
(1.09791 -0.0148993 0)
(1.07704 -0.0119455 0)
(1.06256 -0.00861281 0)
(1.05241 -0.00477892 0)
(1.04535 -0.000435182 0)
(1.04126 0.00438072 0)
(1.04106 0.00896907 0)
(1.04466 0.0126614 0)
(1.05171 0.015549 0)
(1.06275 0.0178863 0)
(1.07963 0.0199451 0)
(1.10032 0.021699 0)
(1.07493 0.0205406 0)
(0.875518 0.0125987 0)
(0.498135 0.00365681 0)
(0.0994407 0.000143637 0)
(0.103103 -5.96657e-05 0)
(0.697718 -0.00454829 0)
(1.00182 -0.0113104 0)
(1.10848 -0.014354 0)
(1.1028 -0.0128711 0)
(1.08179 -0.0100044 0)
(1.06699 -0.00670338 0)
(1.05657 -0.00293019 0)
(1.04922 0.00125432 0)
(1.04478 0.005803 0)
(1.04423 0.0100357 0)
(1.04758 0.0133035 0)
(1.05448 0.0157934 0)
(1.06558 0.017812 0)
(1.08267 0.0195416 0)
(1.10104 0.0208546 0)
(1.0634 0.0190447 0)
(0.848425 0.0111405 0)
(0.477394 0.00320793 0)
(0.0949173 0.000131357 0)
(0.101068 -3.58591e-05 0)
(0.68152 -0.00335769 0)
(0.987631 -0.00894275 0)
(1.10749 -0.011865 0)
(1.1073 -0.0105401 0)
(1.08649 -0.00769247 0)
(1.07137 -0.00442139 0)
(1.06064 -0.00075096 0)
(1.05295 0.00326302 0)
(1.04812 0.00754764 0)
(1.04713 0.0113875 0)
(1.05014 0.0142012 0)
(1.05688 0.0162301 0)
(1.06794 0.0178207 0)
(1.08507 0.0192286 0)
(1.10081 0.0201405 0)
(1.0508 0.0177351 0)
(0.823397 0.00998737 0)
(0.459115 0.00287639 0)
(0.0908553 0.000124358 0)
(0.0998065 -1.29228e-05 0)
(0.669198 -0.00222891 0)
(0.975521 -0.00661339 0)
(1.10642 -0.00925017 0)
(1.11168 -0.00799525 0)
(1.09116 -0.00516465 0)
(1.07564 -0.00190963 0)
(1.06458 0.00172365 0)
(1.0565 0.00563889 0)
(1.05114 0.0096742 0)
(1.04962 0.0130966 0)
(1.05221 0.0154427 0)
(1.05866 0.0169937 0)
(1.06971 0.0180987 0)
(1.08704 0.0191149 0)
(1.09955 0.0195838 0)
(1.03746 0.0166393 0)
(0.800248 0.00907372 0)
(0.442755 0.00263527 0)
(0.0871134 0.000121329 0)
(0.0993109 1.2811e-05 0)
(0.660689 -0.00112405 0)
(0.965804 -0.00424128 0)
(1.10539 -0.00645003 0)
(1.11591 -0.00533452 0)
(1.09585 -0.002551 0)
(1.07998 0.000826395 0)
(1.06855 0.00454543 0)
(1.06002 0.00843154 0)
(1.05406 0.0122657 0)
(1.05188 0.0153045 0)
(1.0539 0.0171679 0)
(1.05998 0.0182618 0)
(1.0709 0.0189319 0)
(1.08812 0.0194497 0)
(1.09718 0.0193868 0)
(1.02335 0.0157659 0)
(0.778727 0.0083847 0)
(0.427852 0.00247915 0)
(0.0835565 0.000123375 0)
(0.0996015 4.66908e-05 0)
(0.656042 2.56675e-05 0)
(0.958936 -0.00173093 0)
(1.10473 -0.0032492 0)
(1.11994 -0.0020681 0)
(1.10059 0.00075744 0)
(1.08437 0.00423211 0)
(1.0724 0.00797868 0)
(1.06319 0.0118094 0)
(1.05642 0.0154479 0)
(1.05343 0.0180858 0)
(1.05487 0.0193654 0)
(1.0606 0.0198084 0)
(1.07137 0.0199039 0)
(1.08828 0.0199457 0)
(1.09339 0.0192308 0)
(1.00872 0.0150666 0)
(0.758643 0.00789176 0)
(0.414023 0.00238922 0)
(0.0800912 0.000127552 0)
(0.100814 6.9901e-05 0)
(0.655429 0.00125032 0)
(0.955183 0.000851808 0)
(1.1051 0.000177297 0)
(1.12432 0.00160808 0)
(1.10553 0.00457553 0)
(1.0889 0.00814968 0)
(1.07646 0.0119843 0)
(1.06662 0.0158655 0)
(1.05898 0.0193538 0)
(1.05496 0.0215524 0)
(1.05547 0.022294 0)
(1.06055 0.0220925 0)
(1.07106 0.0215189 0)
(1.08752 0.0208917 0)
(1.08833 0.0195516 0)
(0.993663 0.0147619 0)
(0.739593 0.00764248 0)
(0.400868 0.00237724 0)
(0.076622 0.000133674 0)
(0.102988 0.000108669 0)
(0.658669 0.00250134 0)
(0.954807 0.00360107 0)
(1.10665 0.00379878 0)
(1.12903 0.00543074 0)
(1.11067 0.00861358 0)
(1.09357 0.0125006 0)
(1.0805 0.0166473 0)
(1.06975 0.0207285 0)
(1.06091 0.0241606 0)
(1.05567 0.0259575 0)
(1.0552 0.0260667 0)
(1.05958 0.0252048 0)
(1.0697 0.0239992 0)
(1.08559 0.0226514 0)
(1.08181 0.020476 0)
(0.977753 0.0148937 0)
(0.721086 0.0077279 0)
(0.387872 0.00247114 0)
(0.0730601 0.000140438 0)
(0.106305 0.000160203 0)
(0.666344 0.00386354 0)
(0.957949 0.00639768 0)
(1.10963 0.00784307 0)
(1.13413 0.00987176 0)
(1.11632 0.0134282 0)
(1.09884 0.0178093 0)
(1.08503 0.0224229 0)
(1.07318 0.0267461 0)
(1.06289 0.0300805 0)
(1.05611 0.0313877 0)
(1.05436 0.0308178 0)
(1.05779 0.0292071 0)
(1.06727 0.0272959 0)
(1.08225 0.0252211 0)
(1.07349 0.0219822 0)
(0.960996 0.0157198 0)
(0.702434 0.00829924 0)
(0.374276 0.00271722 0)
(0.0692632 0.000151062 0)
(0.110912 0.000220903 0)
(0.678407 0.00534169 0)
(0.965141 0.00944613 0)
(1.11486 0.0122922 0)
(1.14019 0.0151297 0)
(1.12277 0.0193802 0)
(1.10477 0.0243737 0)
(1.0899 0.0294788 0)
(1.07661 0.0340874 0)
(1.06454 0.0373579 0)
(1.0559 0.0381177 0)
(1.05271 0.0367225 0)
(1.05506 0.034261 0)
(1.06383 0.0315467 0)
(1.07734 0.0286866 0)
(1.06358 0.0245497 0)
(0.943052 0.0175064 0)
(0.682502 0.00944099 0)
(0.359095 0.00313892 0)
(0.0650029 0.000171399 0)
(0.117011 0.000297115 0)
(0.695084 0.0071157 0)
(0.976783 0.0129588 0)
(1.12302 0.0172638 0)
(1.14797 0.0211657 0)
(1.13034 0.0264094 0)
(1.11142 0.0321932 0)
(1.09522 0.037974 0)
(1.08016 0.0430461 0)
(1.06587 0.0462915 0)
(1.05503 0.0464665 0)
(1.05007 0.0441425 0)
(1.05117 0.0406875 0)
(1.05918 0.0370951 0)
(1.07101 0.0335115 0)
(1.05195 0.0283538 0)
(0.923122 0.0202024 0)
(0.660065 0.0110498 0)
(0.341457 0.00368791 0)
(0.0600712 0.000197258 0)
(0.125039 0.000406137 0)
(0.717124 0.00949505 0)
(0.993128 0.0173829 0)
(1.13432 0.0232505 0)
(1.15782 0.02822 0)
(1.1394 0.034643 0)
(1.11923 0.0415339 0)
(1.10133 0.0483022 0)
(1.08404 0.0540128 0)
(1.06701 0.0572728 0)
(1.05353 0.0567744 0)
(1.04648 0.0534191 0)
(1.04612 0.0488731 0)
(1.05327 0.0443324 0)
(1.06325 0.0398348 0)
(1.03804 0.0333226 0)
(0.900347 0.0237167 0)
(0.634025 0.0130504 0)
(0.320682 0.00432835 0)
(0.0543068 0.000228683 0)
(0.135751 0.00057251 0)
(0.745826 0.0128844 0)
(1.01516 0.0233098 0)
(1.14921 0.0310745 0)
(1.17002 0.0374285 0)
(1.15035 0.0453122 0)
(1.12853 0.0536363 0)
(1.10829 0.0615259 0)
(1.08804 0.0677322 0)
(1.06767 0.0706921 0)
(1.05111 0.0691613 0)
(1.04171 0.0645622 0)
(1.03965 0.0587803 0)
(1.0458 0.0530166 0)
(1.05343 0.0474149 0)
(1.02116 0.039292 0)
(0.873935 0.0279673 0)
(0.603384 0.0153053 0)
(0.296389 0.00500243 0)
(0.0476692 0.000257284 0)
(0.15042 0.000842402 0)
(0.783193 0.0179479 0)
(1.04482 0.0316196 0)
(1.16888 0.0419315 0)
(1.18544 0.050508 0)
(1.16367 0.0601383 0)
(1.13942 0.0699998 0)
(1.11592 0.0787638 0)
(1.09189 0.0849547 0)
(1.06753 0.0869332 0)
(1.04748 0.083664 0)
(1.03558 0.0772229 0)
(1.03175 0.0699704 0)
(1.03643 0.0630162 0)
(1.04138 0.0559826 0)
(1.00103 0.0465034 0)
(0.84282 0.0330472 0)
(0.567301 0.0177904 0)
(0.26836 0.00570192 0)
(0.0401943 0.000281433 0)
(0.17123 0.00131085 0)
(0.832376 0.0258151 0)
(1.08474 0.0437372 0)
(1.19487 0.0573231 0)
(1.2051 0.0687938 0)
(1.17952 0.080538 0)
(1.15153 0.0916943 0)
(1.12361 0.100724 0)
(1.09493 0.106168 0)
(1.06597 0.106433 0)
(1.04205 0.100861 0)
(1.02753 0.0921292 0)
(1.0221 0.0828705 0)
(1.02542 0.0744985 0)
(1.02707 0.0664723 0)
(0.976854 0.0553532 0)
(0.80533 0.0388046 0)
(0.525322 0.0204994 0)
(0.23658 0.00641096 0)
(0.0319933 0.000297548 0)
(0.20151 0.00235194 0)
(0.899021 0.0391867 0)
(1.13744 0.0633489 0)
(1.22754 0.0801957 0)
(1.22914 0.0947555 0)
(1.19747 0.108111 0)
(1.164 0.119541 0)
(1.13056 0.127807 0)
(1.09659 0.131672 0)
(1.06267 0.129644 0)
(1.0347 0.121567 0)
(1.0174 0.11058 0)
(1.01034 0.099372 0)
(1.01266 0.0893824 0)
(1.01029 0.0798983 0)
(0.94634 0.0656531 0)
(0.760181 0.0449616 0)
(0.477743 0.0235123 0)
(0.201771 0.00715654 0)
(0.0234336 0.000301888 0)
(0.24274 0.00862593 7.56645e-20)
(0.987155 0.0661972 6.55428e-20)
(1.20049 0.096769 -2.25834e-20)
(1.26446 0.114695 0)
(1.25457 0.131843 -5.40484e-34)
(1.21524 0.144617 7.80737e-21)
(1.17537 0.154616 -1.35184e-20)
(1.13599 0.161019 0)
(1.09643 0.162678 2.65616e-34)
(1.05725 0.15818 -1.56123e-20)
(1.0249 0.147786 0)
(1.00436 0.135004 -1.80296e-20)
(0.995079 0.122324 -5.28379e-20)
(0.995645 0.110709 -2.4847e-20)
(0.986662 0.0983517 -7.42986e-21)
(0.904904 0.0795978 -4.39696e-21)
(0.703522 0.0540228 0)
(0.421392 0.0281583 3.07869e-21)
(0.164525 0.0090225 3.63757e-21)
(0.0154683 0.000621779 6.54999e-20)
(0.270576 0.0242202 6.27541e-20)
(1.0588 0.108606 5.17984e-22)
(1.25108 0.144788 6.36139e-21)
(1.29766 0.162867 0)
(1.27681 0.178727 -2.85342e-20)
(1.23051 0.189268 -3.1728e-20)
(1.18461 0.197241 -1.39186e-20)
(1.13938 0.201753 -4.78303e-20)
(1.09404 0.201496 0)
(1.04907 0.195001 6.67858e-20)
(1.01144 0.182734 6.53101e-20)
(0.986376 0.168283 1.92284e-20)
(0.972638 0.153675 6.91486e-20)
(0.965995 0.138599 9.62291e-20)
(0.943432 0.12107 0)
(0.847496 0.0979771 1.35079e-19)
(0.639084 0.0670912 1.9388e-19)
(0.36542 0.035737 2.1542e-19)
(0.132694 0.0121393 -2.46239e-19)
(0.00927109 0.000842478 -4.62885e-21)
(0.270118 0.0395076 0)
(1.10236 0.163852 1.27294e-20)
(1.2843 0.204159 0)
(1.32236 0.221689 -4.19808e-20)
(1.29378 0.233492 0)
(1.24212 0.240199 -6.43754e-20)
(1.19101 0.244915 2.89101e-20)
(1.14041 0.246546 -9.82041e-20)
(1.08964 0.24348 -1.57099e-21)
(1.03916 0.234035 3.49523e-20)
(0.996326 0.218772 1.43142e-19)
(0.966363 0.20152 -3.08002e-22)
(0.946995 0.184135 -5.0178e-20)
(0.932345 0.166317 -9.06342e-20)
(0.90161 0.146498 1.07134e-19)
(0.805449 0.120789 -1.89573e-19)
(0.605309 0.0848021 -2.50046e-20)
(0.347077 0.0470417 0)
(0.129802 0.0172404 1.30418e-23)
(0.00958361 0.00135548 0)
(0.262883 0.0529132 2.09901e-19)
(1.12415 0.222374 -9.58893e-20)
(1.30368 0.268319 -6.52555e-20)
(1.33732 0.285546 2.09945e-20)
(1.30405 0.293071 -3.46993e-20)
(1.24904 0.29555 1.36136e-19)
(1.19396 0.296418 6.09535e-20)
(1.13879 0.294444 0)
(1.08312 0.287761 -1.79712e-19)
(1.02736 0.274439 0)
(0.97943 0.255294 -7.56639e-20)
(0.944642 0.234684 -9.169e-20)
(0.920067 0.214659 -5.46157e-20)
(0.899686 0.194961 -6.57488e-20)
(0.865764 0.174168 0)
(0.775393 0.146995 0)
(0.589474 0.106975 -1.63666e-19)
(0.349773 0.0628962 3.2284e-20)
(0.139765 0.0251611 -1.89789e-20)
(0.01298 0.00249548 -2.21875e-20)
(0.255111 0.0648857 -1.15649e-19)
(1.13247 0.280792 0)
(1.31319 0.333504 1.49745e-19)
(1.34399 0.351025 6.29818e-20)
(1.3079 0.354741 7.76152e-20)
(1.25099 0.353148 0)
(1.19301 0.350069 6.15385e-20)
(1.1341 0.344157 1.10124e-19)
(1.07412 0.333395 9.3294e-20)
(1.01357 0.31567 1.64127e-19)
(0.960882 0.292359 0)
(0.921821 0.268471 -1.97804e-19)
(0.893084 0.246188 -1.18002e-19)
(0.868939 0.22539 -6.94501e-20)
(0.834108 0.20401 4.227e-19)
(0.751601 0.1756 5.03508e-20)
(0.581193 0.13186 2.37089e-19)
(0.358343 0.0815769 -1.12003e-18)
(0.153619 0.0353435 6.65616e-19)
(0.0175835 0.00427542 -8.02231e-19)
(0.24816 0.0757618 -9.51161e-20)
(1.13258 0.337212 2.22155e-20)
(1.31565 0.397818 -2.0174e-20)
(1.3443 0.416114 -7.6612e-20)
(1.30647 0.416594 -7.30527e-20)
(1.24848 0.411284 1.7549e-21)
(1.18831 0.404367 -6.64235e-20)
(1.12634 0.39445 1.15214e-19)
(1.06265 0.379464 -2.00643e-19)
(0.997834 0.357233 0)
(0.940974 0.329788 -9.03617e-20)
(0.898321 0.302903 -1.60847e-21)
(0.866493 0.27875 -1.2856e-19)
(0.839999 0.257099 0)
(0.805329 0.235304 -9.13595e-20)
(0.729154 0.205861 -2.17375e-19)
(0.574193 0.158608 5.81604e-19)
(0.366498 0.101741 -5.72084e-19)
(0.165821 0.0466514 8.1368e-19)
(0.021775 0.00639287 -8.45493e-19)
(0.242663 0.0859315 -4.03593e-22)
(1.12788 0.391024 -1.95247e-20)
(1.31339 0.46036 -7.61617e-20)
(1.34 0.479518 3.65936e-20)
(1.30092 0.477346 -3.78702e-20)
(1.24229 0.468731 0)
(1.18043 0.4582 -6.49658e-20)
(1.1159 0.444395 -1.2146e-19)
(1.04898 0.425256 -1.05158e-19)
(0.980433 0.398615 0)
(0.919974 0.367196 -9.44285e-20)
(0.874442 0.337452 -1.14792e-19)
(0.840391 0.311516 1.39002e-19)
(0.812525 0.288874 -8.36537e-20)
(0.778425 0.266427 -3.96886e-19)
(0.707497 0.235535 2.36857e-19)
(0.56543 0.185273 7.1005e-20)
(0.370247 0.121812 0)
(0.173697 0.0577785 -7.837e-19)
(0.0247494 0.00847661 -2.87105e-20)
(0.238566 0.0957041 -1.04902e-20)
(1.12046 0.442079 1.81955e-20)
(1.30795 0.520944 3.94556e-20)
(1.33244 0.54055 1.22146e-19)
(1.29231 0.536181 -1.50644e-19)
(1.23322 0.524669 1.47234e-19)
(1.16999 0.510816 1.39482e-19)
(1.10329 0.493352 -1.94273e-19)
(1.03356 0.470266 6.24512e-20)
(0.961719 0.439406 -4.03402e-19)
(0.898141 0.404155 -1.05458e-19)
(0.850271 0.371572 0)
(0.814611 0.343755 1.50185e-19)
(0.785862 0.319884 1.78634e-19)
(0.752403 0.296496 2.12965e-19)
(0.685799 0.263929 -2.56019e-19)
(0.554009 0.210783 -7.57755e-20)
(0.368562 0.140572 8.92646e-20)
(0.176066 0.0676147 0)
(0.0262441 0.0102241 -6.19972e-20)
(0.235668 0.105222 8.98871e-20)
(1.11176 0.4905 -6.65311e-20)
(1.30021 0.578649 -4.04968e-20)
(1.3226 0.598841 8.18094e-20)
(1.28151 0.592622 -7.44954e-20)
(1.22203 0.578572 -4.03456e-21)
(1.15763 0.561734 -1.51094e-19)
(1.08905 0.540913 -6.99379e-20)
(1.01683 0.514152 -1.82e-19)
(0.94204 0.479314 2.48418e-22)
(0.875698 0.440329 -3.31661e-19)
(0.825852 0.404857 2.73362e-19)
(0.788999 0.37497 -1.63792e-19)
(0.75974 0.349674 1.95365e-19)
(0.726909 0.324972 0)
(0.663713 0.290546 -1.38043e-19)
(0.53963 0.23396 -7.46323e-22)
(0.361585 0.156633 -3.86527e-19)
(0.173675 0.0752299 -5.68853e-20)
(0.0263224 0.011421 0)
(0.23378 0.114571 0)
(1.10249 0.536481 -6.77165e-20)
(1.29094 0.633412 -7.53064e-20)
(1.31123 0.654268 -8.27238e-20)
(1.26919 0.646429 -8.59431e-20)
(1.20932 0.630159 0)
(1.14391 0.610662 -7.29398e-20)
(1.07367 0.586818 -1.16137e-21)
(0.999217 0.556708 3.89465e-19)
(0.921708 0.518152 -5.58845e-20)
(0.852811 0.475523 -2.38684e-19)
(0.801233 0.437056 1.42975e-19)
(0.763411 0.404875 -2.04511e-21)
(0.733853 0.377839 2.07763e-19)
(0.7016 0.351484 1.27004e-19)
(0.640945 0.314631 -2.97507e-19)
(0.522254 0.253914 3.52982e-19)
(0.349689 0.169367 1.04325e-19)
(0.167084 0.0802293 4.30208e-19)
(0.0250289 0.0119149 -1.15163e-18)
(0.232796 0.12388 1.27608e-20)
(1.09316 0.580192 -2.82314e-20)
(1.28085 0.685318 2.8141e-20)
(1.29885 0.706838 8.02482e-20)
(1.25589 0.697511 0)
(1.19561 0.679287 -7.69783e-20)
(1.12929 0.657451 2.40238e-19)
(1.05757 0.630921 1.54946e-19)
(0.98106 0.597801 0)
(0.900988 0.555813 -7.96889e-19)
(0.829638 0.509637 6.42877e-19)
(0.776394 0.468073 0)
(0.737717 0.433353 1.90044e-19)
(0.707934 0.404276 -2.02287e-21)
(0.676128 0.375915 -4.05202e-19)
(0.617204 0.336128 1.58757e-19)
(0.502142 0.270369 0)
(0.333875 0.178541 5.61651e-19)
(0.157025 0.0827796 0)
(0.0228181 0.0118296 -5.4321e-19)
(0.232526 0.133192 -1.02745e-20)
(1.08416 0.621709 -2.22962e-20)
(1.27002 0.73446 3.17701e-20)
(1.28585 0.756542 0)
(1.24201 0.745877 -8.56393e-20)
(1.18131 0.72593 0)
(1.11416 0.702034 -2.44413e-19)
(1.04109 0.67315 -7.52937e-20)
(0.962672 0.637368 7.00465e-20)
(0.880126 0.592254 -3.93709e-19)
(0.806303 0.54266 6.68515e-20)
(0.751354 0.497899 0)
(0.711795 0.460415 -4.05669e-19)
(0.681794 0.428975 2.06186e-21)
(0.650253 0.398214 0)
(0.592281 0.354922 2.18835e-21)
(0.479413 0.283341 5.11235e-19)
(0.314584 0.183988 -4.84464e-19)
(0.144385 0.0828854 1.42819e-19)
(0.0199938 0.0112114 0)
(0.23262 0.142382 0)
(1.0756 0.661199 -1.76312e-20)
(1.2588 0.780955 -2.46654e-20)
(1.27255 0.80345 -2.32296e-21)
(1.22786 0.79157 -3.876e-20)
(1.16674 0.770103 -1.73478e-19)
(1.09884 0.744409 8.96138e-20)
(1.02453 0.713483 -8.58521e-20)
(0.944314 0.675376 3.08491e-19)
(0.859323 0.62747 -6.285e-19)
(0.782933 0.574632 -3.44918e-21)
(0.726121 0.526606 -1.7991e-19)
(0.685575 0.486118 6.56104e-19)
(0.655287 0.452018 -2.41896e-21)
(0.623814 0.41847 -3.12885e-19)
(0.566086 0.371032 -5.58671e-19)
(0.454327 0.29289 0)
(0.292421 0.185921 0)
(0.129737 0.0806219 1.54127e-19)
(0.0168132 0.0101009 -9.02194e-20)
(0.233235 0.151541 -3.58021e-21)
(1.06748 0.698507 3.01617e-20)
(1.24744 0.824874 2.5956e-20)
(1.25916 0.847653 0)
(1.21367 0.834662 -1.55799e-21)
(1.15216 0.81185 -1.7169e-19)
(1.08357 0.784601 2.24981e-19)
(1.00813 0.751923 3.46913e-19)
(0.926205 0.711829 4.0349e-19)
(0.838779 0.661479 -5.14902e-19)
(0.759673 0.605629 -5.49847e-19)
(0.700758 0.554325 4.80778e-19)
(0.659026 0.510603 0)
(0.62832 0.473509 -1.42185e-19)
(0.596737 0.436719 -3.37962e-19)
(0.538649 0.384425 -4.0063e-19)
(0.426876 0.298829 -4.75887e-19)
(0.267939 0.184312 1.40766e-19)
(0.113541 0.0760127 -8.28345e-20)
(0.0133156 0.00853817 3.07757e-22)
(0.233902 0.160585 0)
(1.05993 0.734138 0)
(1.23611 0.866321 2.5966e-21)
(1.24584 0.889263 0)
(1.19963 0.875253 1.17537e-19)
(1.13776 0.851248 1.27446e-19)
(1.06856 0.822652 0)
(0.992082 0.788494 4.28281e-20)
(0.908534 0.746736 6.76802e-19)
(0.818681 0.694313 -1.18153e-18)
(0.736693 0.635749 0)
(0.675358 0.581222 -3.08645e-19)
(0.632102 0.534044 -2.94061e-21)
(0.600781 0.49355 -2.39438e-21)
(0.568898 0.45295 3.60914e-19)
(0.509939 0.394953 -3.91877e-22)
(0.397275 0.301062 -1.0234e-18)
(0.241366 0.179102 3.02684e-19)
(0.0967202 0.0695111 8.94495e-20)
(0.00983854 0.00671003 0)
(0.234557 0.169444 -1.33457e-20)
(1.05268 0.768077 4.16654e-21)
(1.22483 0.905345 3.38725e-20)
(1.23273 0.928381 -1.22244e-19)
(1.18586 0.913423 1.92982e-19)
(1.12368 0.888372 0)
(1.05395 0.858623 1.4266e-19)
(0.976531 0.823231 -9.3844e-20)
(0.891454 0.78012 3.86574e-21)
(0.799202 0.726009 8.62036e-20)
(0.71415 0.665085 7.11232e-19)
(0.650004 0.607476 -1.08525e-19)
(0.604798 0.556663 -4.02873e-19)
(0.572527 0.512279 -1.65017e-19)
(0.540142 0.46708 1.95952e-19)
(0.479974 0.402347 -2.27232e-22)
(0.366177 0.299417 2.75744e-19)
(0.21382 0.170608 -6.50663e-19)
(0.0799263 0.0615398 7.6937e-19)
(0.00652621 0.0047415 1.12157e-19)
(0.235043 0.177996 9.00678e-21)
(1.04575 0.800412 -4.19011e-22)
(1.21374 0.942062 6.12346e-21)
(1.21989 0.965125 -5.30554e-20)
(1.17246 0.949281 -3.44626e-20)
(1.11002 0.923302 -2.32774e-19)
(1.03985 0.892572 4.54166e-20)
(0.961593 0.856164 -3.9411e-19)
(0.875093 0.811989 -7.51274e-19)
(0.780477 0.756574 -7.06027e-19)
(0.692197 0.693711 0)
(0.624832 0.633265 -4.72872e-19)
(0.577135 0.578738 5.78569e-19)
(0.543365 0.529888 0)
(0.510166 0.478954 -4.1917e-19)
(0.448714 0.406083 2.5055e-19)
(0.334107 0.293459 -2.96028e-19)
(0.186461 0.159059 -3.50143e-19)
(0.0640852 0.0526384 -6.19529e-19)
(0.00357307 0.00279489 -4.82986e-19)
(0.235812 0.186379 -1.41078e-20)
(1.03899 0.831112 5.33413e-22)
(1.20288 0.976548 -6.62792e-21)
(1.20741 0.999575 -6.17794e-20)
(1.15951 0.98292 7.70256e-20)
(1.09687 0.95613 -1.3855e-19)
(1.02634 0.924558 1.48386e-19)
(0.947348 0.887341 -4.09861e-19)
(0.859531 0.842369 -4.45964e-19)
(0.762625 0.786024 7.40832e-19)
(0.670993 0.721685 1.55995e-18)
(0.600014 0.658756 0)
(0.549172 0.60057 0)
(0.513059 0.546693 -1.89642e-19)
(0.478418 0.488452 0)
(0.415803 0.40529 5.39048e-19)
(0.301804 0.282223 6.37053e-19)
(0.16104 0.144414 0)
(0.0505336 0.0434105 0)
(0.00117135 0.00107861 5.18976e-19)
(0.236191 0.194283 2.03789e-20)
(1.03244 0.860169 1.51756e-20)
(1.1923 1.00892 -2.72458e-21)
(1.19533 1.03186 4.07721e-20)
(1.14705 1.01444 7.47285e-20)
(1.08428 0.986935 1.60326e-19)
(1.01347 0.95465 -2.06688e-19)
(0.933854 0.916798 1.14405e-22)
(0.844841 0.87127 -5.00214e-21)
(0.74574 0.814356 -5.564e-21)
(0.650709 0.749039 8.02971e-19)
(0.575742 0.684074 0)
(0.521061 0.622465 5.8227e-19)
(0.481421 0.563168 4.03942e-19)
(0.444035 0.495773 9.7518e-19)
(0.380188 0.398956 2.89649e-19)
(0.269746 0.263519 -3.43495e-19)
(0.140884 0.124808 -2.01783e-19)
(0.0437872 0.0334284 0)
(0.000733277 0.00019756 5.57513e-19)
(0.236841 0.202166 -5.4816e-20)
(1.02607 0.887682 0)
(1.18199 1.03922 6.79382e-21)
(1.18367 1.06205 2.73563e-20)
(1.13512 1.04394 -6.80965e-20)
(1.07226 1.0158 -2.02329e-19)
(1.00127 0.982907 4.18904e-19)
(0.921139 0.944576 -3.22713e-20)
(0.831059 0.898704 0)
(0.7299 0.841543 -8.2158e-19)
(0.631492 0.775767 -1.74726e-18)
(0.552236 0.709312 6.98363e-20)
(0.493071 0.644693 7.9943e-19)
(0.448431 0.579932 0)
(0.406009 0.501699 6.56019e-19)
(0.339553 0.386757 0)
(0.235586 0.233608 0)
(0.128828 0.0895434 -2.18505e-19)
(0.0627382 0.0115075 0)
(0.0263234 0.0105849 1.49415e-19)
(0.237087 0.209419 -6.87071e-20)
(1.01985 0.91399 0)
(1.17196 1.06767 1.95901e-20)
(1.17238 1.09039 0)
(1.12368 1.07167 3.05277e-20)
(1.06076 1.04302 0)
(0.989691 1.00964 2.36047e-20)
(0.909107 0.971015 5.70365e-20)
(0.818071 0.92504 5.58762e-20)
(0.714952 0.86798 -9.04104e-19)
(0.613198 0.802306 5.30303e-20)
(0.529347 0.735049 5.57825e-19)
(0.464969 0.667904 7.78376e-19)
(0.413514 0.597952 1.04177e-19)
(0.362635 0.507981 5.12237e-19)
(0.289547 0.37059 0)
(0.187902 0.191944 7.24147e-19)
(0.0959517 0.0293255 -4.244e-19)
(0.0444585 0.0445069 4.92594e-19)
(-0.0688928 0.425819 -5.81734e-19)
(0.237295 0.216442 6.11948e-20)
(1.01354 0.938877 8.25848e-20)
(1.16212 1.09457 0)
(1.16134 1.11729 5.19553e-21)
(1.11253 1.0982 -6.96159e-20)
(1.04953 1.06926 3.22557e-19)
(0.978415 1.03566 1.55241e-19)
(0.897368 0.997057 0)
(0.805364 0.95137 3.79428e-19)
(0.700251 0.894965 -4.82028e-20)
(0.594951 0.830117 0)
(0.505957 0.763048 0)
(0.435343 0.693876 6.94792e-19)
(0.375123 0.618864 -3.20179e-19)
(0.31108 0.517602 -5.16265e-19)
(0.22552 0.355952 0)
(0.108261 0.177707 3.64244e-19)
(0.00799264 0.433699 -4.22453e-19)
(0.0369327 1.86664 -2.34431e-19)
(0.0672383 2.79872 -2.97681e-19)
(0.237321 0.222602 -5.1166e-20)
(1.00736 0.962521 -1.15728e-19)
(1.15247 1.1199 1.73647e-20)
(1.15052 1.14261 -3.90312e-21)
(1.10173 1.1233 0)
(1.03861 1.09424 2.12565e-19)
(0.967631 1.06063 2.26475e-19)
(0.886097 1.02227 -2.85356e-20)
(0.793196 0.977177 5.61738e-20)
(0.686167 0.921885 8.66597e-19)
(0.577345 0.858522 8.85401e-19)
(0.483045 0.792871 6.23529e-19)
(0.40527 0.722306 6.96156e-19)
(0.33529 0.641306 -7.46805e-19)
(0.257378 0.533403 -7.75643e-19)
(0.149301 0.382775 0)
(0.0531522 0.823598 0)
(0.109465 2.53515 2.02901e-19)
(0.110785 3.19109 0)
(0.113739 3.38407 4.93367e-19)
(0.239882 0.228205 0)
(1.00187 0.985089 0)
(1.1428 1.14354 0)
(1.1397 1.16612 2.10916e-21)
(1.09096 1.14674 -5.64038e-20)
(1.02778 1.11783 1.40937e-19)
(0.957232 1.08447 1.51068e-19)
(0.875248 1.04655 -2.83988e-20)
(0.781531 1.00233 4.84226e-19)
(0.672733 0.948603 -9.93068e-21)
(0.560531 0.88741 1.75427e-18)
(0.46099 0.824348 -7.12386e-20)
(0.375207 0.754061 8.45827e-20)
(0.296358 0.662453 1.07193e-19)
(0.196241 0.556617 -1.35088e-21)
(0.11418 0.956529 1.77626e-21)
(0.151327 2.68905 -1.04793e-18)
(0.162717 3.28577 -3.99062e-19)
(0.149668 3.42555 2.11056e-19)
(0.134843 3.44881 -2.3706e-19)
(0.157368 0.184475 3.44126e-20)
(0.99101 1.00938 0)
(1.13288 1.1657 -5.18192e-20)
(1.12947 1.18831 -1.0266e-20)
(1.08099 1.16929 -7.89791e-20)
(1.01795 1.14066 -1.41687e-19)
(0.947112 1.10727 -1.6285e-19)
(0.864921 1.07003 3.41894e-19)
(0.770549 1.02696 -4.02269e-19)
(0.660263 0.975232 0)
(0.544955 0.916913 8.66948e-19)
(0.440387 0.85731 -5.09473e-19)
(0.345684 0.79209 0)
(0.258437 0.68621 9.98983e-20)
(0.165867 0.811644 2.37973e-19)
(0.166665 2.44542 -2.84491e-19)
(0.230676 3.32031 3.21795e-19)
(0.208017 3.44167 1.76647e-19)
(0.172597 3.4639 2.0159e-19)
(0.149148 3.47447 3.27647e-19)
(0.283091 0.266919 -5.91542e-20)
(0.976041 1.01925 0)
(1.11495 1.19069 6.73793e-20)
(1.115 1.22081 3.37361e-20)
(1.06494 1.20249 5.39918e-20)
(1.00132 1.17435 1.15464e-19)
(0.929618 1.14239 1.93302e-19)
(0.846782 1.1063 2.63487e-20)
(0.751111 1.06528 3.96251e-19)
(0.638217 1.01719 7.68849e-19)
(0.518097 0.964851 4.99604e-20)
(0.405667 0.91249 4.56074e-19)
(0.294277 0.855503 7.98078e-20)
(0.223367 0.97528 -9.88003e-20)
(0.240495 2.29181 -2.27392e-19)
(0.305739 3.32437 2.2575e-19)
(0.290145 3.47469 -2.54105e-19)
(0.252665 3.4969 -1.48058e-19)
(0.213889 3.52461 -1.33226e-19)
(0.160536 3.5178 -1.54942e-20)
(0.270907 0.263661 0)
(0.973748 1.04178 2.71456e-20)
(1.10715 1.21396 -1.63255e-20)
(1.10531 1.24404 -6.73226e-21)
(1.05491 1.22558 2.23681e-20)
(0.991333 1.19768 -1.04928e-19)
(0.91927 1.1659 -1.15865e-19)
(0.836296 1.13059 2.44187e-20)
(0.740252 1.09099 -4.19892e-19)
(0.62638 1.04559 -1.43492e-20)
(0.504138 0.997826 -1.59031e-18)
(0.388318 0.951386 6.46959e-20)
(0.281746 0.9225 -7.59589e-20)
(0.263515 1.46365 -9.26274e-20)
(0.34248 3.07588 1.77642e-20)
(0.36706 3.47191 8.72627e-22)
(0.325502 3.53274 3.93694e-19)
(0.28695 3.55718 2.0174e-19)
(0.236382 3.58124 -6.74018e-20)
(0.175051 3.57683 -8.07726e-20)
(0.25433 0.26185 7.57157e-20)
(0.969835 1.06692 1.92923e-19)
(1.09888 1.23931 -4.79637e-20)
(1.09505 1.26868 -2.53433e-20)
(1.04439 1.25002 0)
(0.98093 1.22215 -1.10207e-19)
(0.908802 1.19061 -1.52329e-19)
(0.82597 1.15605 2.23786e-20)
(0.729878 1.11794 -4.61943e-20)
(0.615544 1.07543 -7.17622e-19)
(0.491964 1.03252 -7.44104e-19)
(0.374518 0.992909 -5.41069e-19)
(0.28429 1.04786 -5.75692e-19)
(0.332545 2.13825 5.9288e-19)
(0.430611 3.37355 5.11162e-19)
(0.412684 3.53392 0)
(0.364987 3.57884 0)
(0.327209 3.6213 -5.50544e-20)
(0.272127 3.68332 0)
(0.187319 3.65742 -8.08616e-20)
(0.243228 0.263436 -1.2118e-19)
(0.963923 1.0931 -1.73522e-19)
(1.08919 1.26583 0)
(1.08351 1.29416 6.20064e-21)
(1.03269 1.27507 -4.698e-21)
(0.969444 1.2471 -1.3265e-19)
(0.897582 1.21581 -8.86593e-20)
(0.815097 1.18189 1.70333e-20)
(0.719195 1.14518 -3.16832e-19)
(0.604788 1.10549 3.75468e-20)
(0.480681 1.06755 0)