/*--------------------------------*- C++ -*----------------------------------*\
| =========                 |                                                 |
| \\      /  F ield         | OpenFOAM: The Open Source CFD Toolbox           |
|  \\    /   O peration     | Version:  2112                                  |
|   \\  /    A nd           | Website:  www.openfoam.com                      |
|    \\/     M anipulation  |                                                 |
\*---------------------------------------------------------------------------*/
FoamFile
{
    version     2.0;
    format      ascii;
    arch        "LSB;label=32;scalar=64";
    class       volScalarField;
    location    "12.5";
    object      p;
}
// * * * * * * * * * * * * * * * * * * * * * * * * * * * * * * * * * * * * * //

dimensions      [0 2 -2 0 0 0 0];

internalField   nonuniform List<scalar> 
8800
(
0.434106
0.386356
0.347748
0.318828
0.298054
0.283334
0.272867
0.265502
0.26074
0.258613
0.259649
0.26351
0.269817
0.278823
0.291351
0.308896
0.333532
0.367365
0.409793
0.468492
0.26522
0.27291
0.28051
0.283904
0.282504
0.277579
0.271262
0.265322
0.260681
0.257821
0.257384
0.25959
0.26374
0.269352
0.275808
0.281807
0.28524
0.284384
0.278786
0.270002
0.243491
0.249712
0.253959
0.257083
0.259302
0.260063
0.259117
0.257171
0.255235
0.254234
0.254944
0.256954
0.259345
0.261154
0.261451
0.259976
0.257373
0.253765
0.249086
0.245298
0.237368
0.240093
0.24313
0.245846
0.247768
0.249173
0.250115
0.250373
0.250116
0.249967
0.25043
0.251213
0.251645
0.251288
0.250273
0.248781
0.246558
0.243596
0.24094
0.239439
0.231928
0.233402
0.235544
0.238015
0.240203
0.241871
0.243076
0.244001
0.244683
0.245162
0.245462
0.245478
0.245105
0.244368
0.243176
0.241394
0.239131
0.236756
0.235154
0.234359
0.226943
0.22785
0.229715
0.232035
0.234342
0.236489
0.238245
0.239502
0.240376
0.240996
0.241363
0.24133
0.240801
0.23967
0.237944
0.235878
0.233675
0.231539
0.230298
0.22987
0.223643
0.224124
0.225554
0.227432
0.229231
0.23086
0.232424
0.233913
0.235168
0.236088
0.236458
0.236228
0.235491
0.234426
0.233171
0.231673
0.229933
0.228262
0.227398
0.227223
0.222048
0.222312
0.223171
0.22441
0.22576
0.227212
0.228673
0.23002
0.231238
0.232233
0.232754
0.232701
0.232214
0.231358
0.230279
0.229161
0.22804
0.227057
0.226574
0.226485
0.220354
0.220502
0.220939
0.221604
0.222469
0.223571
0.224732
0.226034
0.22733
0.228473
0.229151
0.229251
0.228927
0.228405
0.227785
0.227134
0.226624
0.226181
0.225951
0.225894
0.217796
0.217887
0.218191
0.218703
0.219329
0.220061
0.221074
0.222235
0.223491
0.224739
0.22565
0.226061
0.226098
0.225918
0.225691
0.225429
0.225139
0.224887
0.224764
0.224727
0.214617
0.214664
0.21491
0.215381
0.215989
0.216692
0.217661
0.218831
0.220175
0.221612
0.222803
0.223509
0.223814
0.223844
0.223883
0.223769
0.223563
0.223391
0.22333
0.223313
0.211145
0.211171
0.211369
0.211784
0.212338
0.213094
0.214013
0.215194
0.216653
0.218337
0.219884
0.220965
0.221635
0.222042
0.222144
0.222201
0.222138
0.222071
0.22206
0.222051
0.207382
0.207406
0.207575
0.207943
0.208491
0.209239
0.210243
0.211567
0.213254
0.215292
0.217276
0.218761
0.219761
0.220397
0.220765
0.220957
0.221028
0.221057
0.22108
0.221071
0.203182
0.20321
0.203371
0.203724
0.204282
0.205083
0.20621
0.207742
0.209757
0.21227
0.214797
0.216763
0.218132
0.219058
0.219653
0.220014
0.220221
0.220337
0.220386
0.220376
0.198424
0.19845
0.198642
0.199015
0.19963
0.200549
0.201871
0.203712
0.206175
0.209299
0.212492
0.215014
0.216842
0.218091
0.218923
0.219456
0.219785
0.219973
0.220046
0.220034
0.192992
0.193021
0.193245
0.193698
0.194418
0.19552
0.197126
0.199387
0.202441
0.20635
0.210385
0.213619
0.215953
0.217571
0.218662
0.219376
0.219826
0.220083
0.220181
0.220166
0.186727
0.186763
0.187041
0.187595
0.188496
0.189862
0.191858
0.194678
0.198503
0.203412
0.208494
0.212573
0.215527
0.217588
0.218983
0.2199
0.220481
0.220812
0.220937
0.22092
0.179417
0.17946
0.179809
0.180516
0.181669
0.183403
0.185923
0.189479
0.194301
0.200478
0.20686
0.211976
0.215682
0.218272
0.220028
0.221184
0.221914
0.22233
0.222487
0.222466
0.170779
0.170837
0.171292
0.172205
0.173687
0.175898
0.179119
0.183659
0.189767
0.197546
0.205542
0.211929
0.21655
0.219779
0.221971
0.223413
0.224323
0.224838
0.225033
0.225006
0.160414
0.160491
0.161086
0.162278
0.164209
0.167087
0.171256
0.177064
0.184824
0.194626
0.204616
0.212554
0.218285
0.222291
0.225013
0.226807
0.22794
0.228583
0.228819
0.22878
0.147783
0.147892
0.148679
0.150266
0.152818
0.156602
0.162017
0.16951
0.179412
0.19175
0.204183
0.214001
0.221074
0.226019
0.229388
0.231616
0.23302
0.233804
0.234103
0.234054
0.132102
0.132258
0.133322
0.13548
0.138921
0.143956
0.151105
0.16086
0.173511
0.188994
0.20438
0.216443
0.225124
0.231205
0.235366
0.238135
0.239891
0.240865
0.241222
0.241159
0.112183
0.112404
0.11391
0.11696
0.121734
0.128619
0.138216
0.150988
0.167149
0.186483
0.205373
0.220072
0.230655
0.238105
0.243237
0.246685
0.248896
0.250127
0.250562
0.25048
0.0861542
0.0864974
0.0887712
0.0933162
0.100214
0.109907
0.122987
0.139815
0.160422
0.184381
0.207333
0.225057
0.23785
0.246941
0.253284
0.257608
0.260423
0.262008
0.262568
0.262456
0.050891
0.0515262
0.0553445
0.0626693
0.0731565
0.0872206
0.105289
0.127478
0.15356
0.182905
0.210421
0.231513
0.24681
0.257837
0.265697
0.271199
0.274877
0.276974
0.2777
0.277546
0.000152507
0.00206873
0.00989828
0.0229608
0.0397633
0.0605797
0.0855353
0.114481
0.147003
0.182357
0.214787
0.239475
0.257499
0.270725
0.280436
0.287516
0.29249
0.295491
0.296547
0.296331
-0.0761667
-0.0660419
-0.0481001
-0.0247799
0.00155852
0.0313601
0.0647097
0.101428
0.141097
0.183021
0.220833
0.24956
0.270789
0.286756
0.298947
0.308388
0.315604
0.320464
0.322511
0.322687
-0.157443
-0.135019
-0.106459
-0.072845
-0.0368172
0.00203724
0.0438252
0.08847
0.135668
0.184872
0.22908
0.26291
0.288334
0.307955
0.323478
0.336018
0.346138
0.354706
0.358828
0.359158
-0.220591
-0.195918
-0.159074
-0.117297
-0.0727854
-0.0256249
0.0241275
0.0763418
0.130725
0.186764
0.236767
0.274974
0.303764
0.3261
0.343847
0.358206
0.369773
0.379076
0.382847
0.38345
-0.271559
-0.244769
-0.203345
-0.155709
-0.104743
-0.0508339
0.00578249
0.0647774
0.125708
0.187967
0.243066
0.284806
0.315965
0.339859
0.358583
0.373545
0.385526
0.394671
0.398743
0.399337
-0.312751
-0.285358
-0.240524
-0.188537
-0.132603
-0.0732937
-0.0109833
0.0538406
0.120569
0.188363
0.247858
0.292467
0.325367
0.350278
0.369547
0.384722
0.39671
0.405661
0.409979
0.410574
-0.347669
-0.319968
-0.272764
-0.217315
-0.157358
-0.0935584
-0.0263949
0.0435206
0.115409
0.188246
0.251801
0.298979
0.333347
0.359018
0.378584
0.393761
0.405634
0.414349
0.418696
0.419301
-0.378211
-0.350453
-0.301464
-0.243188
-0.179848
-0.112201
-0.0408148
0.0336356
0.11025
0.187771
0.255078
0.304614
0.340316
0.36666
0.386501
0.401719
0.413502
0.422012
0.426352
0.426969
-0.405876
-0.378051
-0.327604
-0.26702
-0.200833
-0.129869
-0.0547322
0.0238147
0.104749
0.186656
0.257645
0.309596
0.346702
0.373798
0.393981
0.409293
0.421023
0.429426
0.433679
0.434316
-0.431549
-0.403643
-0.351956
-0.289385
-0.220743
-0.146891
-0.0684617
0.0137579
0.0987391
0.184944
0.259671
0.314166
0.352816
0.380784
0.401405
0.416887
0.428624
0.436923
0.441055
0.441765
-0.455852
-0.42774
-0.375032
-0.310711
-0.23994
-0.163563
-0.0821885
0.00341693
0.0922038
0.182585
0.261121
0.318365
0.358783
0.387807
0.409004
0.424751
0.436556
0.444789
0.448788
0.449513
-0.479037
-0.450709
-0.39705
-0.331321
-0.25865
-0.180025
-0.0960137
-0.00734287
0.0849874
0.179442
0.261922
0.322178
0.364654
0.394973
0.416922
0.433056
0.445003
0.453207
0.457061
0.457749
-0.501477
-0.472819
-0.418351
-0.351351
-0.277014
-0.196425
-0.110075
-0.0186318
0.0770091
0.175419
0.26196
0.325521
0.3704
0.402316
0.425238
0.441907
0.454091
0.462318
0.466016
0.466618
-0.523193
-0.494233
-0.439163
-0.370903
-0.295127
-0.212826
-0.124405
-0.0304538
0.0682364
0.170445
0.2611
0.32826
0.375912
0.409785
0.433956
0.451351
0.463887
0.472189
0.475769
0.476203
-0.544257
-0.514958
-0.459339
-0.390009
-0.312991
-0.229194
-0.138971
-0.0428124
0.0586492
0.164443
0.259208
0.330207
0.380999
0.417229
0.442992
0.461362
0.474406
0.482833
0.486318
0.486553
-0.564732
-0.535116
-0.478909
-0.408675
-0.330599
-0.245515
-0.153745
-0.055665
0.0482637
0.157366
0.256146
0.331137
0.385433
0.424473
0.452251
0.471884
0.485606
0.494204
0.49758
0.497616
-0.584667
-0.554672
-0.497905
-0.426888
-0.347903
-0.261743
-0.16866
-0.0689461
0.0371265
0.149207
0.251792
0.330816
0.388959
0.431321
0.46162
0.482862
0.49741
0.506182
0.509335
0.5092
-0.603894
-0.573549
-0.516278
-0.444603
-0.364852
-0.277793
-0.183637
-0.0825596
0.0253222
0.140006
0.246075
0.329029
0.391208
0.437388
0.470852
0.49424
0.509785
0.518631
0.521451
0.521111
-0.622418
-0.591742
-0.53401
-0.461767
-0.381381
-0.293602
-0.19858
-0.0964163
0.0129512
0.129816
0.238956
0.325595
0.391773
0.44215
0.479588
0.506009
0.522901
0.531434
0.533537
0.532977
-0.64026
-0.609188
-0.551078
-0.478343
-0.397434
-0.309089
-0.213401
-0.110402
0.000124639
0.118745
0.23044
0.320385
0.390326
0.444975
0.487186
0.518044
0.537392
0.545106
0.545219
0.544316
-0.657292
-0.625915
-0.567433
-0.494273
-0.412957
-0.324177
-0.228003
-0.124402
-0.0130224
0.106928
0.220622
0.313318
0.386606
0.445147
0.492531
0.529592
0.554104
0.562236
0.557804
0.555099
-0.673616
-0.641903
-0.583096
-0.509583
-0.427982
-0.338914
-0.242443
-0.138474
-0.0265511
0.0943032
0.209402
0.304198
0.380324
0.441899
0.493856
0.538424
0.572074
0.588002
0.581815
0.558623
-0.689177
-0.657168
-0.598182
-0.524439
-0.442775
-0.353603
-0.257109
-0.153076
-0.0409932
0.0802235
0.19608
0.292149
0.370574
0.433999
0.487916
0.538639
0.580051
0.597635
0.584218
0.556632
-0.703853
-0.6719
-0.612529
-0.538593
-0.457067
-0.367919
-0.271778
-0.167886
-0.0560163
0.0650256
0.180893
0.277128
0.357012
0.42131
0.470901
0.520111
0.555303
0.560566
0.493544
0.448628
-0.717056
-0.686819
-0.625728
-0.551489
-0.470223
-0.381436
-0.28618
-0.182694
-0.0714002
0.0488992
0.163928
0.259149
0.339078
0.404682
0.444733
0.472102
0.492522
0.452418
0.375724
0.325013
-0.769281
-0.698656
-0.637611
-0.564632
-0.483594
-0.395446
-0.300398
-0.197741
-0.0874403
0.0315176
0.144805
0.237993
0.314993
0.385072
0.398853
0.401371
0.373525
0.306416
0.218006
0.168889
-0.726426
-0.712546
-0.654176
-0.583287
-0.502569
-0.415211
-0.321615
-0.220335
-0.111916
0.00434161
0.113522
0.201695
0.27057
0.326938
0.332401
0.207494
0.0874398
0.00492579
-0.0818343
-0.034188
-0.753365
-0.726359
-0.668703
-0.597436
-0.517464
-0.430728
-0.337371
-0.237217
-0.130392
-0.0165814
0.0888627
0.171796
0.232953
0.261088
0.203355
0.028956
-0.131465
-0.243357
-0.365603
-0.290889
-0.773308
-0.742742
-0.68504
-0.613346
-0.533743
-0.447486
-0.354719
-0.255884
-0.150974
-0.0401312
0.0609142
0.13745
0.18802
0.188213
0.0615811
-0.171894
-0.373393
-0.526707
-0.702442
-0.635287
-0.792001
-0.760078
-0.701558
-0.629345
-0.549904
-0.464126
-0.372312
-0.274919
-0.172093
-0.0644982
0.0315975
0.101245
0.13829
0.0988532
-0.105182
-0.378973
-0.64067
-0.873792
-1.13413
-1.11078
-0.809246
-0.777356
-0.718353
-0.645779
-0.566505
-0.481283
-0.390527
-0.294685
-0.194113
-0.090015
0.000757868
0.0634157
0.0843386
-0.00280389
-0.267467
-0.572523
-0.890255
-1.17869
-1.52654
-1.90116
-0.826127
-0.794666
-0.735545
-0.662931
-0.583839
-0.499177
-0.409453
-0.315179
-0.216906
-0.116422
-0.0310673
0.0241669
0.0272645
-0.109862
-0.413899
-0.727067
-1.0506
-1.32941
-1.45158
-1.64228
-0.843248
-0.812231
-0.753397
-0.680954
-0.602186
-0.518206
-0.429644
-0.337121
-0.241483
-0.145028
-0.0656151
-0.018416
-0.0340193
-0.236289
-0.545357
-0.84447
-1.11007
-1.28817
-1.32667
-1.35866
-0.860864
-0.830291
-0.771842
-0.699788
-0.621504
-0.538389
-0.451231
-0.360795
-0.268179
-0.17633
-0.10326
-0.0646811
-0.109838
-0.357684
-0.664897
-0.947389
-1.15554
-1.24464
-1.27541
-1.27945
-0.879107
-0.848892
-0.790762
-0.719242
-0.641586
-0.55956
-0.474074
-0.386064
-0.296844
-0.210093
-0.143751
-0.115095
-0.191712
-0.470363
-0.775405
-1.06386
-1.2214
-1.24652
-1.25503
-1.25733
-0.89775
-0.867882
-0.81011
-0.739106
-0.662236
-0.581491
-0.497947
-0.412684
-0.327321
-0.246201
-0.187068
-0.170615
-0.278276
-0.576259
-0.871533
-1.18945
-1.32428
-1.28914
-1.27261
-1.26852
-0.916487
-0.886972
-0.829597
-0.759112
-0.683124
-0.603864
-0.522543
-0.440415
-0.359382
-0.284282
-0.233342
-0.227055
-0.368046
-0.671969
-0.927198
-1.26085
-1.41172
-1.3149
-1.26559
-1.25085
-0.934621
-0.905387
-0.848751
-0.778772
-0.703828
-0.626256
-0.547449
-0.468949
-0.392713
-0.323833
-0.281902
-0.281666
-0.471094
-0.757567
-0.896394
-1.02799
-1.18157
-1.18561
-1.19072
-1.18547
-0.951567
-0.92282
-0.866748
-0.797449
-0.723608
-0.647957
-0.572095
-0.49751
-0.426535
-0.364133
-0.332084
-0.337476
-0.593603
-0.877531
-0.871118
-0.646251
-0.891136
-1.1259
-1.23872
-1.25708
-0.966591
-0.938359
-0.882886
-0.814218
-0.741629
-0.66812
-0.59547
-0.525488
-0.460061
-0.404504
-0.382208
-0.398987
-0.751414
-1.18819
-1.36159
-1.17223
-1.27578
-1.46524
-1.5982
-1.63402
-0.978388
-0.95086
-0.896003
-0.827948
-0.756738
-0.685603
-0.616699
-0.55176
-0.492184
-0.443258
-0.427507
-0.470196
-0.960145
-1.70936
-2.59784
-2.9152
-2.87703
-2.59226
-2.39357
-2.35326
-0.985586
-0.958927
-0.904756
-0.837353
-0.767656
-0.699216
-0.634574
-0.575565
-0.52297
-0.479372
-0.466308
-0.536027
-1.07277
-2.08167
-3.49324
-4.41404
-4.40451
-3.99533
-3.46681
-3.20531
-0.986374
-0.960708
-0.907412
-0.840829
-0.772869
-0.707475
-0.64768
-0.59605
-0.552794
-0.514147
-0.497997
-0.575529
-0.980243
-1.76283
-2.68569
-3.40469
-3.48441
-3.29186
-2.96785
-2.78311
-0.979074
-0.954432
-0.902173
-0.836718
-0.770806
-0.708831
-0.654886
-0.613344
-0.585008
-0.556388
-0.527338
-0.558104
-0.698336
-0.913221
-1.02939
-1.07303
-0.993036
-0.877924
-0.74502
-0.648228
-0.96173
-0.938152
-0.887301
-0.823505
-0.760027
-0.702038
-0.65536
-0.627304
-0.624884
-0.630924
-0.593897
-0.508937
-0.400337
-0.126421
0.256293
0.69398
1.05387
1.26047
1.36022
1.40042
-0.932633
-0.91021
-0.861352
-0.800002
-0.739481
-0.685998
-0.647847
-0.639221
-0.68369
-0.796362
-0.845484
-0.604269
-0.247347
0.274186
0.937138
1.50281
1.94683
2.20017
2.30135
2.33286
-0.890966
-0.869665
-0.823506
-0.765473
-0.708455
-0.659662
-0.630902
-0.647798
-0.772825
-1.12804
-1.39965
-0.954675
-0.332371
0.343115
1.05301
1.62198
2.03234
2.25314
2.33925
2.36325
-0.835333
-0.815544
-0.77326
-0.719455
-0.666282
-0.621586
-0.600108
-0.640461
-0.86436
-1.54265
-2.23591
-1.47911
-0.591043
0.22205
0.904707
1.40032
1.72326
1.88016
1.94728
1.96298
-0.765825
-0.748039
-0.710217
-0.661313
-0.611988
-0.569839
-0.549451
-0.59042
-0.825217
-1.53585
-2.21226
-1.50902
-0.653253
0.146291
0.722608
1.09005
1.30339
1.41349
1.46661
1.47115
-0.682523
-0.666472
-0.633953
-0.590777
-0.544873
-0.502574
-0.474353
-0.488609
-0.623911
-1.00913
-1.2456
-0.79361
-0.208624
0.303733
0.641731
0.849277
0.97425
1.05001
1.08982
1.10192
-0.589396
-0.578001
-0.54829
-0.509747
-0.467373
-0.424347
-0.386059
-0.364548
-0.384644
-0.458405
-0.425706
-0.125927
0.178817
0.414342
0.571372
0.674536
0.745475
0.792569
0.818046
0.824697
-0.476117
-0.470015
-0.449054
-0.41835
-0.382415
-0.34281
-0.301293
-0.261687
-0.228742
-0.192339
-0.095228
0.102036
0.278039
0.403163
0.493002
0.554304
0.596856
0.626661
0.643597
0.646585
-0.368312
-0.365251
-0.350439
-0.327262
-0.298999
-0.26562
-0.227109
-0.1836
-0.133644
-0.0669592
0.0343453
0.168843
0.281227
0.35947
0.415218
0.453084
0.478359
0.493916
0.501156
0.502579
-0.270544
-0.268891
-0.259539
-0.242952
-0.221709
-0.195372
-0.162816
-0.12265
-0.0717197
-0.00235445
0.0867168
0.180993
0.256932
0.309992
0.346442
0.370203
0.384777
0.39294
0.396443
0.396529
-0.182143
-0.181748
-0.176502
-0.16625
-0.152058
-0.132995
-0.107627
-0.0740017
-0.0291068
0.0320626
0.104978
0.173712
0.22736
0.264829
0.28962
0.304931
0.313505
0.317646
0.319032
0.318715
-0.10555
-0.105971
-0.104595
-0.100312
-0.0924544
-0.0800734
-0.0617619
-0.0355805
0.00101497
0.0512037
0.108908
0.160061
0.1988
0.225458
0.242535
0.252475
0.257527
0.259589
0.260085
0.259704
-0.0464443
-0.0472374
-0.0483232
-0.0481878
-0.0452498
-0.0382087
-0.0257206
-0.00620169
0.0222921
0.0617839
0.10628
0.144383
0.172637
0.191692
0.203511
0.210144
0.213231
0.214209
0.214304
0.213948
-0.00566614
-0.00649874
-0.00847782
-0.0102089
-0.00999686
-0.00665746
0.00123831
0.015157
0.0365983
0.0668833
0.100766
0.129158
0.149757
0.16346
0.171811
0.176237
0.178042
0.178411
0.178309
0.178
0.0201067
0.01942
0.0174918
0.0154149
0.0146617
0.0161851
0.0210687
0.0306774
0.0463843
0.0691295
0.0945804
0.115672
0.130799
0.140621
0.146317
0.149156
0.150131
0.150093
0.149866
0.149608
0.0353932
0.0348999
0.0333939
0.0315862
0.0306112
0.0313068
0.0345588
0.0413206
0.0526901
0.0695127
0.0884701
0.104023
0.114885
0.121775
0.125701
0.127509
0.127928
0.127653
0.127372
0.127166
0.0440009
0.0436661
0.042618
0.0412803
0.0404391
0.0406857
0.0427691
0.0475576
0.0558645
0.0682271
0.0821193
0.0934557
0.101349
0.106298
0.108975
0.110074
0.110178
0.109816
0.109541
0.109382
0.0486029
0.0483738
0.0476644
0.0467236
0.0461048
0.0462373
0.0476301
0.0509261
0.0568502
0.0658843
0.0761161
0.084429
0.0900971
0.0935278
0.0953084
0.0959578
0.0958919
0.0955218
0.0952794
0.0951566
0.0506719
0.0505068
0.0499943
0.0492972
0.0488126
0.0488577
0.0498285
0.0521987
0.0564664
0.0629937
0.070392
0.0763541
0.0803814
0.0827879
0.083982
0.0843488
0.0842073
0.0838726
0.0836698
0.0835737
0.0509197
0.0507972
0.0504034
0.0498544
0.0494516
0.0494212
0.0500438
0.0516803
0.0547247
0.0594363
0.0647879
0.0690883
0.071958
0.0736239
0.0744061
0.074597
0.0744311
0.0741439
0.0739781
0.0739027
0.0497723
0.0496812
0.0493775
0.0489417
0.048607
0.0485416
0.0489497
0.0500874
0.0522387
0.0556061
0.0594414
0.0625011
0.064512
0.0656501
0.066152
0.0662309
0.066059
0.065814
0.0656785
0.0656196
0.0475733
0.0475046
0.0472717
0.0469267
0.0466479
0.046559
0.0468088
0.0475859
0.0490999
0.0514911
0.0542186
0.0563831
0.0577865
0.0585572
0.0588693
0.0588799
0.0587156
0.0585102
0.0584007
0.0583548
0.0446099
0.0445574
0.0443812
0.0441146
0.04389
0.0437976
0.0439446
0.044468
0.0455203
0.0472059
0.0491331
0.0506507
0.0516168
0.0521278
0.0523115
0.0522821
0.0521321
0.0519618
0.0518735
0.0518375
0.0411105
0.0410697
0.0409365
0.0407325
0.0405544
0.0404671
0.0405476
0.0408953
0.0416201
0.042797
0.0441441
0.0451965
0.0458534
0.0461846
0.0462837
0.0462339
0.0461024
0.0459635
0.0458926
0.0458643
0.0372399
0.0372077
0.0371061
0.0369502
0.0368093
0.0367301
0.0367676
0.0369928
0.0374851
0.0382977
0.0392314
0.0399531
0.040392
0.0406004
0.0406454
0.0405871
0.0404739
0.0403609
0.0403039
0.0402817
0.0331115
0.0330861
0.0330078
0.0328875
0.0327755
0.0327052
0.0327152
0.0328563
0.0331849
0.0337388
0.0343767
0.0348644
0.0351526
0.0352775
0.0352886
0.0352288
0.0351331
0.0350418
0.0349961
0.0349786
0.0288016
0.0287815
0.0287205
0.0286268
0.028537
0.0284749
0.0284677
0.0285514
0.0287662
0.0291383
0.0295679
0.0298916
0.030075
0.0301448
0.0301355
0.0300783
0.029998
0.0299242
0.0298876
0.029874
0.0243624
0.0243465
0.0242988
0.0242256
0.0241533
0.0240992
0.0240824
0.024128
0.0242643
0.0245091
0.0247933
0.0250032
0.0251153
0.0251486
0.0251283
0.025076
0.0250094
0.0249501
0.024921
0.0249105
0.0198319
0.0198196
0.0197824
0.0197248
0.0196666
0.0196202
0.019599
0.0196205
0.0197037
0.0198601
0.0200429
0.020175
0.0202402
0.0202518
0.020227
0.0201809
0.0201263
0.0200791
0.0200563
0.0200482
0.0152349
0.0152256
0.0151969
0.0151519
0.0151059
0.0150676
0.015046
0.0150526
0.0151005
0.0151977
0.0153122
0.0153925
0.0154279
0.0154271
0.0154019
0.0153628
0.0153184
0.0152809
0.0152632
0.0152573
0.0105882
0.0105814
0.0105596
0.0105257
0.0104914
0.0104624
0.0104443
0.0104443
0.0104701
0.0105266
0.0105939
0.0106394
0.0106565
0.0106508
0.0106297
0.0105995
0.0105657
0.010537
0.0105237
0.0105194
0.00590358
0.00589894
0.0058844
0.00586262
0.00584109
0.00582323
0.00581185
0.0058105
0.00582304
0.00585132
0.00588493
0.00590661
0.00591309
0.00590777
0.00589417
0.00587504
0.00585327
0.00583435
0.0058253
0.00582238
0.00118958
0.00118942
0.00118921
0.00118395
0.00117765
0.00117267
0.00116881
0.00116642
0.0011661
0.0011683
0.00117277
0.0011768
0.00117831
0.00117746
0.00117459
0.00117034
0.00116488
0.00115866
0.00115569
0.00115587
-0.812538
-0.565607
-0.288818
-0.0651579
0.116439
0.263503
0.388557
0.494442
0.54409
0.521521
-0.370335
-0.203652
-0.0308534
0.117454
0.243462
0.349465
0.436167
0.498534
0.531214
0.542111
-0.0719875
0.037645
0.152481
0.254614
0.342823
0.416972
0.476024
0.519183
0.54916
0.565953
0.134151
0.209016
0.289359
0.36167
0.424667
0.477997
0.52145
0.555499
0.58203
0.599575
0.288399
0.342215
0.398833
0.452421
0.499613
0.540465
0.574949
0.603094
0.625778
0.643164
0.410784
0.450076
0.494421
0.536415
0.574438
0.608126
0.637193
0.661229
0.68058
0.697714
0.513882
0.546276
0.584721
0.620719
0.654067
0.684046
0.710015
0.731356
0.747876
0.76489
0.609117
0.64061
0.677389
0.711847
0.743543
0.771898
0.796182
0.815705
0.829777
0.846836
0.708523
0.743146
0.78147
0.816534
0.847875
0.875157
0.89801
0.915959
0.928337
0.945801
0.826012
0.864719
0.904337
0.939473
0.969628
0.995081
1.01603
1.03237
1.04419
1.06232
0.972444
1.0115
1.04825
1.0795
1.10567
1.1282
1.14762
1.16343
1.17609
1.19416
1.14846
1.1804
1.20693
1.22972
1.25
1.26898
1.28691
1.30356
1.31906
1.33718
1.33763
1.35499
1.37025
1.3867
1.40279
1.41747
1.4308
1.44482
1.46245
1.48265
1.51967
1.5293
1.54095
1.55183
1.56116
1.57086
1.58181
1.59327
1.60468
1.62006
1.72717
1.73086
1.71591
1.70112
1.69499
1.70075
1.71925
1.74961
1.78183
1.80851
2.03345
1.8986
1.8221
1.7799
1.76246
1.76644
1.79389
1.85029
1.95292
2.1773
0.3247
0.322618
0.318134
0.309567
0.297441
0.285435
0.275338
0.26757
0.262044
0.258789
0.258279
0.260696
0.265446
0.272331
0.281429
0.29273
0.305189
0.316081
0.322158
0.325141
0.248924
0.25479
0.261239
0.265876
0.268497
0.268332
0.265771
0.262126
0.258714
0.256431
0.256097
0.25799
0.261286
0.2652
0.268661
0.270254
0.269076
0.265379
0.260021
0.253326
0.240337
0.24265
0.246186
0.249389
0.251683
0.25339
0.254345
0.254192
0.253259
0.252345
0.25232
0.253411
0.254836
0.255741
0.255537
0.254293
0.252417
0.249777
0.246288
0.243261
0.234552
0.235612
0.237675
0.240426
0.242804
0.244523
0.24576
0.246677
0.247204
0.24746
0.247747
0.248102
0.248211
0.24782
0.246983
0.245699
0.24377
0.241212
0.238722
0.237224
0.22936
0.229964
0.231381
0.233672
0.236051
0.238235
0.239961
0.241182
0.242075
0.24272
0.243166
0.243353
0.243134
0.242493
0.241318
0.239537
0.237356
0.235073
0.233177
0.232275
0.224985
0.225259
0.22637
0.228425
0.230577
0.232588
0.234479
0.236142
0.237439
0.238383
0.238968
0.239065
0.238629
0.237633
0.236186
0.234479
0.232556
0.230503
0.228867
0.228323
0.222759
0.222877
0.223578
0.224999
0.226593
0.228128
0.229585
0.230978
0.232282
0.233397
0.234121
0.234256
0.233871
0.233122
0.232136
0.230936
0.229564
0.228146
0.227086
0.226788
0.22129
0.221354
0.221737
0.222535
0.22354
0.224818
0.226174
0.22756
0.228892
0.23008
0.230944
0.231237
0.231005
0.230414
0.229555
0.22851
0.227698
0.226952
0.226424
0.226267
0.219184
0.219225
0.219446
0.219915
0.220549
0.221219
0.222191
0.223333
0.224586
0.225834
0.226861
0.227378
0.227412
0.227151
0.226766
0.226504
0.226109
0.225741
0.225489
0.225402
0.216256
0.216275
0.216432
0.21683
0.217405
0.218056
0.218894
0.219998
0.221238
0.22257
0.2238
0.224607
0.224945
0.224973
0.224858
0.224706
0.224479
0.224228
0.224072
0.224031
0.212908
0.212908
0.213021
0.213354
0.213853
0.214487
0.215398
0.216392
0.217667
0.219155
0.220657
0.221799
0.22247
0.222832
0.222946
0.222921
0.222878
0.222741
0.222668
0.222658
0.209309
0.209309
0.209399
0.209689
0.210168
0.210806
0.211645
0.212743
0.214144
0.215855
0.217718
0.219265
0.220303
0.220957
0.221342
0.221513
0.221557
0.221535
0.221531
0.221535
0.205344
0.205337
0.205429
0.205691
0.20614
0.206789
0.207693
0.208922
0.210545
0.2126
0.214923
0.216943
0.218382
0.219341
0.219956
0.220325
0.220524
0.220625
0.220682
0.220695
0.200881
0.200872
0.200972
0.201236
0.201705
0.202411
0.20343
0.204862
0.206802
0.209316
0.212227
0.214841
0.216703
0.218039
0.218919
0.219486
0.219835
0.22004
0.220146
0.220168
0.195804
0.195792
0.195905
0.196216
0.196744
0.197562
0.198771
0.200498
0.202873
0.205992
0.209648
0.212957
0.21541
0.217126
0.2183
0.219074
0.219569
0.21987
0.220021
0.220051
0.189976
0.189961
0.190102
0.190474
0.191123
0.192113
0.193591
0.195724
0.198679
0.20258
0.207178
0.211367
0.214478
0.216676
0.218186
0.219194
0.219846
0.220246
0.220443
0.220483
0.18322
0.183201
0.183382
0.183854
0.184657
0.185893
0.187743
0.190423
0.194139
0.199045
0.204829
0.210099
0.214011
0.216788
0.218698
0.219978
0.220813
0.221326
0.221578
0.221626
0.175288
0.175264
0.175499
0.176097
0.177116
0.178696
0.181065
0.184471
0.189168
0.195354
0.202624
0.209228
0.21412
0.217594
0.219986
0.221592
0.222644
0.223294
0.22361
0.223671
0.165852
0.165823
0.166134
0.166915
0.168234
0.170276
0.17332
0.177667
0.183653
0.191481
0.200606
0.20885
0.214936
0.219255
0.222228
0.224226
0.225541
0.226359
0.226755
0.226829
0.154431
0.154394
0.154815
0.155856
0.157591
0.16026
0.164212
0.169843
0.177508
0.187414
0.198842
0.209084
0.216619
0.22196
0.225637
0.228109
0.229737
0.230752
0.231237
0.231334
0.140351
0.140306
0.140896
0.142311
0.144641
0.148196
0.153427
0.16077
0.170613
0.183154
0.197415
0.210073
0.219348
0.225923
0.230458
0.233512
0.235525
0.236789
0.237406
0.23752
0.122647
0.1226
0.123459
0.125429
0.128627
0.133468
0.140479
0.150141
0.162859
0.178729
0.196436
0.211971
0.223314
0.23137
0.236953
0.240731
0.24323
0.244804
0.245583
0.245725
0.0998662
0.0998447
0.101148
0.10398
0.108517
0.115285
0.124871
0.137762
0.154246
0.174245
0.196058
0.214947
0.228701
0.238516
0.24538
0.250076
0.253212
0.255199
0.256183
0.256363
0.0695569
0.0696172
0.07174
0.076118
0.0829346
0.0928075
0.106257
0.123604
0.144925
0.169926
0.196493
0.219178
0.235673
0.247537
0.255955
0.261822
0.265815
0.268384
0.269652
0.26988
0.0272912
0.0276293
0.0316353
0.0392267
0.0502803
0.0653164
0.0845028
0.107863
0.135224
0.166086
0.197964
0.224794
0.244296
0.258482
0.268761
0.27613
0.281307
0.284759
0.286475
0.286759
-0.0350233
-0.0330935
-0.0236871
-0.00924358
0.00969526
0.0329391
0.0601481
0.0911684
0.125674
0.163075
0.200625
0.231786
0.254449
0.271147
0.283548
0.292786
0.299597
0.304324
0.306835
0.307162
-0.10944
-0.106269
-0.0888998
-0.063298
-0.0337731
-0.00104368
0.0349198
0.0740975
0.116251
0.160893
0.205098
0.241756
0.268766
0.289156
0.304837
0.317061
0.326714
0.333623
0.336321
0.337506
-0.185929
-0.176373
-0.150585
-0.114917
-0.0758635
-0.0339862
0.0105777
0.0578091
0.107555
0.15942
0.210305
0.252445
0.283685
0.307584
0.326348
0.341359
0.353455
0.362588
0.367492
0.369457
-0.24375
-0.232991
-0.202204
-0.160047
-0.11366
-0.0642664
-0.0121928
0.0423941
0.099209
0.157796
0.21476
0.26164
0.296243
0.322604
0.343168
0.359462
0.372449
0.382372
0.388136
0.39033
-0.290276
-0.279067
-0.244907
-0.198105
-0.146327
-0.0910844
-0.0328401
0.0280355
0.0910868
0.155718
0.218075
0.268894
0.305993
0.333904
0.355401
0.372245
0.385527
0.395614
0.401467
0.403645
-0.328494
-0.317319
-0.281156
-0.230761
-0.174763
-0.114864
-0.0515483
0.0146938
0.0832262
0.153238
0.220406
0.274698
0.31389
0.343006
0.365133
0.382228
0.395531
0.405575
0.411421
0.413527
-0.361496
-0.350444
-0.312786
-0.259641
-0.200177
-0.136334
-0.0686738
0.00222207
0.0756291
0.150581
0.222247
0.279718
0.320752
0.350854
0.373427
0.390652
0.40391
0.413875
0.419767
0.421741
-0.390766
-0.379837
-0.341158
-0.285767
-0.223441
-0.156263
-0.0848191
-0.00976234
0.0680885
0.147589
0.223439
0.28395
0.326792
0.357889
0.380947
0.398357
0.411639
0.421532
0.427437
0.429303
-0.417591
-0.406735
-0.36722
-0.309944
-0.24521
-0.175163
-0.100407
-0.0216451
0.0602233
0.143997
0.223989
0.287628
0.332389
0.364584
0.388213
0.40587
0.419227
0.429101
0.435022
0.436779
-0.442723
-0.431909
-0.391658
-0.332726
-0.265908
-0.193366
-0.115718
-0.0336456
0.0519613
0.139838
0.223948
0.290836
0.337696
0.37116
0.395494
0.413497
0.426986
0.436851
0.442793
0.444437
-0.466545
-0.455734
-0.414821
-0.354508
-0.285888
-0.211152
-0.130918
-0.0458336
0.0432202
0.13499
0.223201
0.293546
0.342765
0.377742
0.402967
0.421445
0.435149
0.445073
0.450975
0.452556
-0.489453
-0.47859
-0.437057
-0.375559
-0.305336
-0.228657
-0.146134
-0.0583608
0.033853
0.129341
0.221663
0.295689
0.34758
0.384356
0.410707
0.429826
0.443849
0.453874
0.459728
0.461284
-0.511647
-0.500643
-0.458482
-0.396034
-0.324364
-0.246015
-0.161479
-0.0712953
0.0238194
0.122827
0.219238
0.297135
0.352042
0.390961
0.418721
0.438695
0.453187
0.463401
0.4692
0.47074
-0.533134
-0.521975
-0.479324
-0.415966
-0.343043
-0.263237
-0.176939
-0.0846218
0.0131015
0.115378
0.21579
0.297729
0.355995
0.397462
0.426981
0.448062
0.463191
0.473696
0.479465
0.480947
-0.554043
-0.542669
-0.499602
-0.435357
-0.361377
-0.280308
-0.19249
-0.0983205
0.00172082
0.10699
0.211226
0.297294
0.35923
0.403707
0.435394
0.457881
0.473828
0.484712
0.490487
0.491845
-0.574301
-0.562743
-0.519253
-0.454243
-0.379348
-0.297203
-0.208089
-0.112334
-0.0102768
0.0976686
0.205485
0.295652
0.361479
0.409386
0.443733
0.468032
0.485044
0.496405
0.502197
0.503367
-0.593959
-0.582176
-0.538249
-0.472592
-0.396915
-0.313866
-0.22367
-0.126583
-0.0228195
0.0874523
0.198514
0.292632
0.362446
0.414123
0.451735
0.478394
0.496777
0.508642
0.514343
0.515286
-0.612847
-0.600935
-0.556566
-0.490352
-0.414018
-0.330213
-0.239152
-0.140981
-0.0358117
0.0764244
0.190325
0.288095
0.361868
0.417588
0.459077
0.488859
0.509086
0.521426
0.526751
0.527343
-0.631094
-0.618976
-0.574192
-0.507502
-0.430617
-0.346203
-0.254441
-0.155432
-0.0491442
0.0646948
0.18097
0.281974
0.359486
0.41932
0.465206
0.499141
0.522199
0.535025
0.539204
0.539072
-0.648562
-0.636234
-0.591114
-0.523993
-0.446638
-0.361756
-0.269459
-0.169816
-0.0626945
0.0523616
0.170538
0.274253
0.3551
0.418771
0.469256
0.508514
0.536327
0.55077
0.5524
0.549896
-0.665306
-0.652806
-0.607284
-0.539781
-0.462049
-0.376809
-0.284126
-0.18405
-0.0763423
0.0395894
0.159171
0.264942
0.348608
0.415516
0.470118
0.515426
0.550625
0.570751
0.571439
0.559976
-0.681263
-0.668621