/*--------------------------------*- C++ -*----------------------------------*\
| =========                 |                                                 |
| \\      /  F ield         | OpenFOAM: The Open Source CFD Toolbox           |
|  \\    /   O peration     | Version:  2112                                  |
|   \\  /    A nd           | Website:  www.openfoam.com                      |
|    \\/     M anipulation  |                                                 |
\*---------------------------------------------------------------------------*/
FoamFile
{
    version     2.0;
    format      ascii;
    arch        "LSB;label=32;scalar=64";
    class       volVectorField;
    location    "12.5";
    object      U;
}
// * * * * * * * * * * * * * * * * * * * * * * * * * * * * * * * * * * * * * //

dimensions      [0 1 -1 0 0 0 0];

internalField   nonuniform List<vector> 
8800
(
(0.979922 -0.0915122 0)
(1.00229 -0.0588281 0)
(0.999544 -0.0321528 0)
(0.999965 -0.0165119 0)
(1.00006 -0.00880005 0)
(0.999989 -0.00503634 0)
(0.999959 -0.00294619 0)
(0.999958 -0.00166095 0)
(0.999971 -0.000793326 0)
(1.00005 -0.000136213 0)
(0.999977 0.000530092 0)
(0.999959 0.00126649 0)
(0.999954 0.00230119 0)
(0.999973 0.00392177 0)
(1.00004 0.00667748 0)
(1.00006 0.0120047 0)
(0.999812 0.0231103 0)
(0.999107 0.0432137 0)
(1.00704 0.0790798 0)
(0.774974 0.0478429 0)
(0.359282 -0.0147323 0)
(1.04671 -0.0723006 0)
(1.08864 -0.0659313 0)
(1.04975 -0.0507649 0)
(1.0256 -0.0374535 0)
(1.01251 -0.0255203 0)
(1.00638 -0.0163399 0)
(1.00353 -0.00995943 0)
(1.00216 -0.00547499 0)
(1.00159 -0.00203917 0)
(1.00148 0.000943712 0)
(1.00177 0.00412047 0)
(1.00269 0.00790974 0)
(1.00467 0.0131635 0)
(1.00882 0.0208164 0)
(1.01794 0.0314315 0)
(1.03614 0.0443495 0)
(1.06776 0.0578587 0)
(1.09496 0.0701724 0)
(0.846177 0.0554555 0)
(0.218627 -0.00132394 0)
(1.07613 -0.0498675 0)
(1.09927 -0.0480589 0)
(1.06425 -0.0392354 0)
(1.03996 -0.0319301 0)
(1.02402 -0.0247773 0)
(1.01413 -0.0175228 0)
(1.0085 -0.0110647 0)
(1.00554 -0.0056363 0)
(1.00432 -0.000766156 0)
(1.00469 0.0039417 0)
(1.00665 0.00893339 0)
(1.01074 0.0147735 0)
(1.01823 0.0216065 0)
(1.03087 0.0288108 0)
(1.05066 0.0358206 0)
(1.08003 0.0434788 0)
(1.10603 0.0508894 0)
(0.944773 0.0405039 0)
(0.218328 0.00133579 0)
(0.178326 -0.000597501 0)
(1.02146 -0.0343192 0)
(1.10655 -0.0397979 0)
(1.07808 -0.0343402 0)
(1.05216 -0.0281943 0)
(1.03473 -0.0225613 0)
(1.02282 -0.0173396 0)
(1.01499 -0.0119819 0)
(1.01047 -0.00649571 0)
(1.00859 -0.000791595 0)
(1.00909 0.00490721 0)
(1.01214 0.0103385 0)
(1.01812 0.0156317 0)
(1.02783 0.0207129 0)
(1.0422 0.0259324 0)
(1.06327 0.0316741 0)
(1.09472 0.0379725 0)
(1.09631 0.0400893 0)
(0.834363 0.0219358 0)
(0.177829 0.000606382 0)
(0.157961 -0.00040427 0)
(0.963674 -0.0234484 0)
(1.10553 -0.0320959 0)
(1.08825 -0.0300058 0)
(1.06085 -0.0259276 0)
(1.04228 -0.0213071 0)
(1.02997 -0.0164318 0)
(1.0215 -0.0114271 0)
(1.01597 -0.00615047 0)
(1.01332 -0.000547237 0)
(1.01409 0.00499113 0)
(1.01803 0.010281 0)
(1.02484 0.0151853 0)
(1.03492 0.019891 0)
(1.0499 0.0244688 0)
(1.07259 0.0287436 0)
(1.10224 0.0322114 0)
(1.0735 0.0306579 0)
(0.752326 0.0129091 0)
(0.157222 0.000416067 0)
(0.145482 -0.000295281 0)
(0.913453 -0.0154555 0)
(1.09864 -0.0245505 0)
(1.09441 -0.0239324 0)
(1.06669 -0.0212251 0)
(1.04759 -0.0181513 0)
(1.03437 -0.0143925 0)
(1.02542 -0.0101256 0)
(1.01977 -0.00546678 0)
(1.01702 -0.000229908 0)
(1.01772 0.00510534 0)
(1.02162 0.00980704 0)
(1.02862 0.0140123 0)
(1.03939 0.0177755 0)
(1.05522 0.0209186 0)
(1.07828 0.0234829 0)
(1.10391 0.0255557 0)
(1.04624 0.0224257 0)
(0.694834 0.00775701 0)
(0.144459 0.000310008 0)
(0.138719 -0.000114213 0)
(0.876843 -0.00805934 0)
(1.08843 -0.0158688 0)
(1.09808 -0.0166502 0)
(1.07192 -0.0149857 0)
(1.05289 -0.0130112 0)
(1.03982 -0.0107646 0)
(1.03065 -0.00788231 0)
(1.02463 -0.00425241 0)
(1.02171 0.000245185 0)
(1.02234 0.00489757 0)
(1.0264 0.00867736 0)
(1.03361 0.011573 0)
(1.04432 0.013711 0)
(1.05986 0.0154236 0)
(1.08282 0.017011 0)
(1.10273 0.0176986 0)
(1.02028 0.0135538 0)
(0.660053 0.00368588 0)
(0.137344 0.000132182 0)
(0.136403 1.435e-06 0)
(0.854211 -0.00369047 0)
(1.07721 -0.00975898 0)
(1.09815 -0.0115714 0)
(1.07337 -0.011573 0)
(1.05445 -0.0108071 0)
(1.04175 -0.00928296 0)
(1.03308 -0.00687938 0)
(1.02745 -0.00354626 0)
(1.02475 0.000668026 0)
(1.02513 0.00497131 0)
(1.02872 0.00846012 0)
(1.03535 0.0109301 0)
(1.04555 0.0125149 0)
(1.06087 0.0132678 0)
(1.08354 0.013039 0)
(1.0986 0.0123253 0)
(0.999257 0.00774686 0)
(0.642109 0.00154775 0)
(0.134609 2.16998e-05 0)
(0.136032 2.79745e-05 0)
(0.839794 -0.0019464 0)
(1.06501 -0.00726107 0)
(1.09523 -0.0107526 0)
(1.07348 -0.0114963 0)
(1.05609 -0.0112642 0)
(1.04431 -0.00982876 0)
(1.03632 -0.00729869 0)
(1.03105 -0.00357375 0)
(1.02828 0.00110371 0)
(1.02854 0.00578701 0)
(1.03174 0.00959083 0)
(1.0377 0.0121596 0)
(1.04697 0.0135075 0)
(1.06092 0.0136702 0)
(1.08213 0.0131972 0)
(1.09113 0.0108175 0)
(0.981656 0.00531944 0)
(0.632222 0.0008386 0)
(0.133712 -2.82711e-06 0)
(0.136041 1.75378e-05 0)
(0.82925 -0.00121124 0)
(1.05064 -0.00599074 0)
(1.08852 -0.0111341 0)
(1.07247 -0.0134202 0)
(1.05753 -0.0132968 0)
(1.04721 -0.0115037 0)
(1.04015 -0.00825276 0)
(1.03531 -0.00382222 0)
(1.03252 0.00162281 0)
(1.03256 0.00706828 0)
(1.03525 0.0114625 0)
(1.04034 0.0145872 0)
(1.04832 0.0163962 0)
(1.05999 0.01649 0)
(1.07805 0.0150243 0)
(1.07906 0.0105628 0)
(0.965236 0.00425108 0)
(0.625307 0.000684709 0)
(0.133066 1.46693e-05 0)
(0.136158 1.6057e-05 0)
(0.822012 -0.000502342 0)
(1.03631 -0.0039816 0)
(1.07853 -0.00925793 0)
(1.07037 -0.0126151 0)
(1.0586 -0.012913 0)
(1.05049 -0.0111159 0)
(1.04426 -0.00777955 0)
(1.03963 -0.00323095 0)
(1.03682 0.00242355 0)
(1.03655 0.0080728 0)
(1.03877 0.0125296 0)
(1.04305 0.0155207 0)
(1.04936 0.0170084 0)
(1.0589 0.0169347 0)
(1.07036 0.0141298 0)
(1.06401 0.00873458 0)
(0.951118 0.00306613 0)
(0.620247 0.000531823 0)
(0.132377 2.15513e-05 0)
(0.136526 2.77428e-05 0)
(0.818342 0.000102345 0)
(1.02588 -0.00174006 0)
(1.06917 -0.00540995 0)
(1.06646 -0.00822495 0)
(1.05959 -0.00902336 0)
(1.05351 -0.00794047 0)
(1.04829 -0.0052841 0)
(1.04405 -0.00134785 0)
(1.04127 0.00363076 0)
(1.04059 0.00852666 0)
(1.04217 0.012136 0)
(1.04534 0.0142593 0)
(1.04994 0.0148706 0)
(1.05584 0.0138377 0)
(1.06156 0.0107322 0)
(1.05067 0.00610165 0)
(0.941069 0.00207529 0)
(0.616756 0.000433555 0)
(0.131737 2.29385e-05 0)
(0.137186 3.39571e-05 0)
(0.817627 0.000561794 0)
(1.02032 -3.85898e-05 0)
(1.06304 -0.00193808 0)
(1.06349 -0.00365043 0)
(1.0596 -0.00427486 0)
(1.05544 -0.00362499 0)
(1.05131 -0.00171515 0)
(1.04755 0.00132175 0)
(1.04473 0.00518691 0)
(1.04355 0.00880605 0)
(1.04429 0.011153 0)
(1.0462 0.0121036 0)
(1.04898 0.0117213 0)
(1.05211 0.0101163 0)
(1.05436 0.00743532 0)
(1.04134 0.00414782 0)
(0.934661 0.00157528 0)
(0.614134 0.000429202 0)
(0.131105 2.59825e-05 0)
(0.138076 4.34769e-05 0)
(0.818516 0.000862102 0)
(1.01843 0.00106111 0)
(1.06013 0.000475517 0)
(1.06195 -0.000149684 0)
(1.05972 -0.00024693 0)
(1.05686 0.000400242 0)
(1.05361 0.0018979 0)
(1.05024 0.00420892 0)
(1.04727 0.00701559 0)
(1.04548 0.00938788 0)
(1.04529 0.0105702 0)
(1.04598 0.0104638 0)
(1.04724 0.00948002 0)
(1.04857 0.00775453 0)
(1.04899 0.00555609 0)
(1.03524 0.00326139 0)
(0.930295 0.00150391 0)
(0.611672 0.000506451 0)
(0.130364 3.34949e-05 0)
(0.139195 5.35259e-05 0)
(0.820784 0.00116355 0)
(1.01882 0.00187274 0)
(1.0596 0.00214002 0)
(1.06186 0.00236092 0)
(1.06039 0.00285244 0)
(1.05821 0.00377461 0)
(1.05544 0.00521216 0)
(1.05224 0.00711829 0)
(1.04897 0.00916699 0)
(1.0465 0.0105578 0)
(1.04528 0.0107886 0)
(1.04493 0.0100433 0)
(1.04508 0.00860859 0)
(1.04534 0.00683723 0)
(1.04486 0.00494051 0)
(1.03086 0.00314048 0)
(0.926652 0.00168804 0)
(0.608906 0.000632946 0)
(0.129422 4.38422e-05 0)
(0.140604 6.71547e-05 0)
(0.824058 0.00150149 0)
(1.02067 0.00262822 0)
(1.06071 0.00350526 0)
(1.063 0.00434712 0)
(1.06177 0.00539823 0)
(1.05981 0.00673461 0)
(1.05716 0.00836641 0)
(1.05383 0.0101676 0)
(1.05006 0.0117646 0)
(1.04673 0.0124237 0)
(1.04458 0.0118841 0)
(1.04331 0.0106039 0)
(1.04263 0.00887986 0)
(1.04222 0.00700198 0)
(1.04127 0.00516624 0)
(1.02708 0.00348877 0)
(0.922944 0.00203445 0)
(0.605554 0.000799156 0)
(0.128218 5.66608e-05 0)
(0.142388 8.58966e-05 0)
(0.82843 0.00193089 0)
(1.02377 0.0034743 0)
(1.06305 0.00483793 0)
(1.06523 0.00621138 0)
(1.06394 0.00780142 0)
(1.06188 0.00964758 0)
(1.059 0.0116562 0)
(1.05525 0.0135877 0)
(1.05073 0.0149729 0)
(1.04641 0.0151005 0)
(1.04327 0.0139762 0)
(1.04117 0.0121629 0)
(1.03981 0.0100672 0)
(1.03892 0.00795413 0)
(1.03765 0.00596938 0)
(1.02322 0.0041658 0)
(0.918688 0.00251938 0)
(0.601379 0.00100983 0)
(0.126689 7.27467e-05 0)
(0.144672 0.000110789 0)
(0.834142 0.00247983 0)
(1.02812 0.00449184 0)
(1.06659 0.0063185 0)
(1.06859 0.00821171 0)
(1.06707 0.0104245 0)
(1.06462 0.0129137 0)
(1.06117 0.0154157 0)
(1.05669 0.0176485 0)
(1.05112 0.018988 0)
(1.04559 0.0186897 0)
(1.04138 0.0169868 0)
(1.03844 0.0146111 0)
(1.03646 0.0120459 0)
(1.03516 0.00955959 0)
(1.0336 0.00725953 0)
(1.01881 0.0051493 0)
(0.913512 0.00315952 0)
(0.596123 0.00127778 0)
(0.12476 9.36445e-05 0)
(0.147624 0.000144059 0)
(0.84158 0.00319433 0)
(1.03397 0.00577303 0)
(1.07158 0.00808006 0)
(1.07321 0.0105417 0)
(1.07127 0.0135312 0)
(1.0682 0.0168188 0)
(1.06395 0.0200043 0)
(1.05835 0.0226615 0)
(1.05136 0.0240533 0)
(1.04434 0.023353 0)
(1.03889 0.0210155 0)
(1.03502 0.017972 0)
(1.03239 0.0148038 0)
(1.03064 0.0118063 0)
(1.02879 0.00905359 0)
(1.01351 0.00648686 0)
(0.907062 0.00399752 0)
(0.589476 0.00161949 0)
(0.122336 0.000120764 0)
(0.151483 0.00018823 0)
(0.851251 0.00412736 0)
(1.04168 0.00743853 0)
(1.07823 0.0103707 0)
(1.07935 0.0135429 0)
(1.07674 0.0174631 0)
(1.07283 0.0216849 0)
(1.06747 0.0257335 0)
(1.06039 0.0289719 0)
(1.05155 0.0304555 0)
(1.04266 0.0292977 0)
(1.03571 0.026201 0)
(1.03078 0.0223318 0)
(1.02739 0.0183915 0)
(1.02512 0.0147307 0)
(1.02291 0.0114007 0)
(1.007 0.00825175 0)
(0.899026 0.00509518 0)
(0.58111 0.00204264 0)
(0.119314 0.000152622 0)
(0.15661 0.000254518 0)
(0.863837 0.00543211 0)
(1.05154 0.00974569 0)
(1.08675 0.0134714 0)
(1.08726 0.0176408 0)
(1.08378 0.0226738 0)
(1.07878 0.0280651 0)
(1.0719 0.0330952 0)
(1.06285 0.0369472 0)
(1.05164 0.0384998 0)
(1.04045 0.03676 0)
(1.03171 0.0327186 0)
(1.02549 0.0278165 0)
(1.0212 0.0228899 0)
(1.0183 0.0183708 0)
(1.01562 0.0143129 0)
(0.998961 0.010452 0)
(0.889173 0.00645642 0)
(0.570744 0.00257371 0)
(0.115564 0.000187633 0)
(0.163532 0.000360647 0)
(0.880301 0.00736989 0)
(1.06421 0.0130151 0)
(1.09768 0.0177363 0)
(1.09727 0.0231567 0)
(1.09268 0.0296428 0)
(1.0861 0.036376 0)
(1.07714 0.0424815 0)
(1.06556 0.0469988 0)
(1.05143 0.0485371 0)
(1.03748 0.0460212 0)
(1.02663 0.0408003 0)
(1.01889 0.0346222 0)
(1.01353 0.0284591 0)
(1.00988 0.0228341 0)
(1.00664 0.0178371 0)
(0.989084 0.0130919 0)
(0.876921 0.00809858 0)
(0.557957 0.00322757 0)
(0.110929 0.000233761 0)
(0.173033 0.000528718 0)
(0.901976 0.0103242 0)
(1.08069 0.0177507 0)
(1.11187 0.0238221 0)
(1.11006 0.0309355 0)
(1.10372 0.0391513 0)
(1.09484 0.0473885 0)
(1.0831 0.0546712 0)
(1.0683 0.0597579 0)
(1.05064 0.0610325 0)
(1.03344 0.0574396 0)
(1.02014 0.0507602 0)
(1.01063 0.0430466 0)
(1.00401 0.0353932 0)
(0.999469 0.0284052 0)
(0.995566 0.0222334 0)
(0.97689 0.0164175 0)
(0.861763 0.0102256 0)
(0.542008 0.00404068 0)
(0.105246 0.000288643 0)
(0.186375 0.000798668 0)
(0.930698 0.014841 0)
(1.10226 0.0245791 0)
(1.13044 0.0325219 0)
(1.12643 0.0418369 0)
(1.11751 0.0522058 0)
(1.10543 0.0621904 0)
(1.08993 0.0705742 0)
(1.07101 0.0759175 0)
(1.04907 0.0764923 0)
(1.02811 0.0713922 0)
(1.01199 0.0629215 0)
(1.00043 0.0534079 0)
(0.992282 0.0440277 0)
(0.986624 0.0354445 0)
(0.981857 0.0278587 0)
(0.961744 0.0207271 0)
(0.843012 0.0130207 0)
(0.52249 0.00512038 0)
(0.0983297 0.000350666 0)
(0.205897 0.00129545 0)
(0.969873 0.0222534 0)
(1.13087 0.0351827 0)
(1.15468 0.0457463 0)
(1.14708 0.0578098 0)
(1.13428 0.0705489 0)
(1.11773 0.0820985 0)
(1.09734 0.0911139 0)
(1.07339 0.0961168 0)
(1.04648 0.0953512 0)
(1.02128 0.0882049 0)
(1.00201 0.0775759 0)
(0.988083 0.0660124 0)
(0.978087 0.0547046 0)
(0.970968 0.0443336 0)
(0.964961 0.0351227 0)
(0.94291 0.026442 0)
(0.819618 0.0167754 0)
(0.498443 0.00658177 0)
(0.0898938 0.000431452 0)
(0.235126 0.00243735 0)
(1.02543 0.0361084 0)
(1.16889 0.053572 0)
(1.18548 0.0672819 0)
(1.17197 0.0821888 0)
(1.15329 0.0967049 0)
(1.13071 0.108848 0)
(1.10435 0.117394 0)
(1.07465 0.120983 0)
(1.0423 0.117953 0)
(1.01259 0.108126 0)
(0.989954 0.0949967 0)
(0.973417 0.0812185 0)
(0.961272 0.0678976 0)
(0.952302 0.0556597 0)
(0.944504 0.0447127 0)
(0.919745 0.0343624 0)
(0.790272 0.0221745 0)
(0.469034 0.00862617 0)
(0.0801419 0.000480326 0)
(0.275891 0.00951014 -1.12028e-20)
(1.09913 0.0643757 -8.34759e-21)
(1.2158 0.085381 2.18207e-21)
(1.22055 0.102578 0)
(1.1987 0.118726 -9.72272e-36)
(1.17246 0.132999 2.98754e-22)
(1.14281 0.144045 -1.48144e-21)
(1.10982 0.150761 0)
(1.07385 0.15187 5.14281e-35)
(1.03558 0.145853 -3.82e-21)
(1.00088 0.133014 0)
(0.974366 0.11734 -5.41434e-21)
(0.954643 0.10146 -1.65364e-20)
(0.939678 0.0863647 -7.99579e-21)
(0.928042 0.0726864 -2.51452e-21)
(0.917396 0.060573 -1.52285e-21)
(0.888917 0.0490182 0)
(0.752051 0.0338092 1.09637e-21)
(0.432462 0.0160538 1.29993e-21)
(0.0708197 0.00226502 2.31118e-20)
(0.301038 0.0266653 -2.26551e-20)
(1.15767 0.110993 5.09104e-22)
(1.25794 0.134537 -1.18871e-21)
(1.25245 0.15157 0)
(1.2228 0.165993 1.44136e-21)
(1.1892 0.178448 4.28279e-22)
(1.15253 0.187579 -1.0371e-21)
(1.11282 0.192194 -6.83972e-21)
(1.07028 0.19094 0)
(1.02537 0.182252 1.61751e-20)
(0.984486 0.166893 1.77696e-20)
(0.952745 0.1493 5.68776e-21)
(0.928478 0.132038 2.2402e-20)
(0.909368 0.115907 3.29947e-20)
(0.893762 0.101426 0)
(0.878856 0.0888605 4.91223e-20)
(0.845105 0.0770079 7.20736e-20)
(0.71046 0.0587139 8.05316e-20)
(0.408091 0.0334488 -9.38566e-20)
(0.06773 0.00584466 -1.71182e-21)
(0.294884 0.0430674 0)
(1.19102 0.170557 -6.95343e-21)
(1.28944 0.196568 0)
(1.27735 0.210411 1.05214e-20)
(1.24139 0.221316 0)
(1.20151 0.230202 4.38336e-21)
(1.15863 0.236005 1.34065e-21)
(1.11283 0.237474 -1.05158e-20)
(1.0643 0.233177 -1.53413e-21)
(1.01335 0.221498 7.84946e-21)
(0.966979 0.203678 4.12195e-20)
(0.930718 0.184556 -2.62796e-22)
(0.902644 0.166612 -1.67879e-20)
(0.88017 0.150485 -3.25227e-20)
(0.861564 0.136525 3.95065e-20)
(0.844185 0.124811 -7.10037e-20)
(0.811047 0.113602 -9.74844e-21)
(0.691891 0.0924408 0)
(0.414896 0.0566966 2.35991e-22)
(0.0758233 0.0109239 0)
(0.283895 0.0571277 -1.769e-19)
(1.20574 0.233161 7.23865e-20)
(1.30948 0.263045 3.80966e-20)
(1.29357 0.273973 -7.05678e-21)
(1.25332 0.280825 1.07175e-20)
(1.20876 0.285602 -1.10945e-20)
(1.16093 0.287525 1.89942e-21)
(1.11002 0.285289 0)
(1.0563 0.277483 -3.12802e-20)
(1.00014 0.262534 0)
(0.949092 0.242162 -2.0982e-20)
(0.909272 0.221546 -2.93809e-20)
(0.878575 0.203047 -1.87389e-20)
(0.854199 0.18702 -2.41443e-20)
(0.834295 0.173531 0)
(0.816329 0.162565 0)
(0.785748 0.151909 -6.51951e-20)
(0.679167 0.128979 1.30381e-20)
(0.418609 0.081003 -7.61776e-21)
(0.0803227 0.0159281 -8.93052e-21)
(0.27341 0.0696323 1.31011e-19)
(1.20859 0.294981 0)
(1.32001 0.330135 -1.07096e-19)
(1.302 0.338536 -2.68869e-20)
(1.25881 0.341521 -1.98207e-20)
(1.21088 0.342316 0)
(1.15932 0.34029 -1.59213e-21)
(1.10437 0.334234 9.54077e-21)
(1.0464 0.322759 1.38184e-20)
(0.985895 0.304341 3.91989e-20)
(0.93116 0.281181 0)
(0.888745 0.258863 -6.37284e-20)
(0.856357 0.239513 -4.06695e-20)
(0.83091 0.22322 -2.44802e-20)
(0.8104 0.20983 1.60259e-19)
(0.79247 0.199098 1.9651e-20)
(0.764451 0.188353 9.41056e-20)
(0.666438 0.162571 -4.5594e-19)
(0.416086 0.102708 2.71389e-19)
(0.0813256 0.020311 -3.28259e-19)
(0.264446 0.0808276 1.38527e-19)
(1.20386 0.354057 -2.55028e-20)
(1.32345 0.395938 1.89415e-20)
(1.30442 0.402233 5.09113e-20)
(1.25918 0.401639 3.06749e-20)
(1.20874 0.398742 1.62927e-21)
(1.15426 0.392996 1.21386e-21)
(1.09606 0.383212 7.419e-21)
(1.03461 0.368061 -3.01181e-20)
(0.970437 0.346039 0)
(0.912526 0.319913 -2.73935e-20)
(0.868021 0.295559 -1.46581e-21)
(0.834442 0.274922 -4.5397e-20)
(0.808441 0.257864 0)
(0.787854 0.24402 -3.48879e-20)
(0.770374 0.232954 -8.47804e-20)
(0.744356 0.221591 2.347e-19)
(0.651698 0.192436 -2.34475e-19)
(0.409116 0.121555 3.33807e-19)
(0.0804313 0.0240364 -3.47942e-19)
(0.257299 0.0911957 -4.46216e-22)
(1.19458 0.409928 3.1292e-20)
(1.32172 0.459392 9.1044e-20)
(1.30217 0.464093 -3.14007e-20)
(1.25543 0.460254 1.76052e-20)
(1.20309 0.453936 0)
(1.14634 0.444716 7.18047e-21)
(1.08548 0.431443 -6.03113e-21)
(1.02103 0.41275 -1.38635e-20)
(0.953703 0.387145 0)
(0.893162 0.357829 -2.6714e-20)
(0.847037 0.331077 -3.7335e-20)
(0.812653 0.308688 4.95456e-20)
(0.786429 0.29039 -3.16781e-20)
(0.765996 0.275648 -1.53243e-19)
(0.749034 0.263837 9.41753e-20)
(0.724378 0.251451 2.98308e-20)
(0.635066 0.218701 0)
(0.399202 0.137649 -3.23364e-19)
(0.0783829 0.027096 -1.18808e-20)
(0.251763 0.101058 2.27115e-20)
(1.18287 0.462387 -3.6024e-20)
(1.31606 0.519845 -4.97388e-20)
(1.2964 0.523382 -9.63605e-20)
(1.24861 0.516716 8.61208e-20)
(1.19483 0.507347 -4.46867e-20)
(1.13626 0.494973 -1.51808e-20)
(1.07318 0.478477 -8.76511e-21)
(1.00619 0.456454 1.32257e-20)
(0.936196 0.42735 -9.50865e-20)
(0.87327 0.394682 -3.27059e-20)
(0.825655 0.365202 0)
(0.790581 0.340685 5.40989e-20)
(0.764224 0.320752 6.68082e-20)
(0.744032 0.304756 8.22085e-20)
(0.727599 0.291869 -1.02629e-19)
(0.703935 0.278087 -3.09137e-20)
(0.617065 0.241741 3.675e-20)
(0.38734 0.151352 0)
(0.0756486 0.0295703 -2.58744e-20)
(0.247479 0.110531 -2.63564e-19)
(1.16995 0.511623 1.65451e-19)
(1.3077 0.577189 5.46277e-20)
(1.28803 0.579788 -7.37444e-20)
(1.23946 0.570643 5.18045e-20)
(1.18458 0.558582 -3.80628e-21)
(1.1246 0.543401 1.47136e-20)
(1.05972 0.52398 -3.64561e-21)
(0.990486 0.498912 -2.46299e-20)
(0.917909 0.466456 1.40183e-22)
(0.852722 0.430373 -9.74876e-20)
(0.803674 0.397921 9.46971e-20)
(0.767955 0.370947 -6.05336e-20)
(0.741497 0.34903 7.52266e-20)
(0.721572 0.331464 0)
(0.705638 0.31726 -5.57011e-20)
(0.682717 0.301891 -1.34196e-21)
(0.597856 0.261844 -1.6052e-19)
(0.373928 0.162891 -2.37619e-20)
(0.0722873 0.0313961 0)
(0.244217 0.119712 0)
(1.15653 0.557934 1.78869e-19)
(1.29735 0.63126 1.27752e-19)
(1.27776 0.633139 8.33733e-20)
(1.22864 0.621863 4.96696e-20)
(1.17297 0.607443 0)
(1.11183 0.589768 1.53448e-20)
(1.04539 0.567744 -1.22514e-21)
(0.974122 0.539914 5.19987e-20)
(0.899047 0.504349 -1.16563e-20)
(0.831653 0.46492 -7.13917e-20)
(0.781131 0.42934 4.7447e-20)
(0.744673 0.399635 -1.92662e-21)
(0.718056 0.375407 7.92805e-20)
(0.698379 0.355935 5.17228e-20)
(0.682914 0.340154 -1.2131e-19)
(0.660608 0.322934 1.4695e-19)
(0.577503 0.279006 4.40079e-20)
(0.359014 0.17211 1.82185e-19)
(0.0683338 0.0325638 -4.87683e-19)
(0.24184 0.128732 -6.75198e-20)
(1.14319 0.60149 1.03382e-19)
(1.28565 0.682028 -7.99413e-20)
(1.26623 0.683427 -9.6973e-20)
(1.21669 0.670306 0)
(1.16039 0.653828 3.99752e-20)
(1.09832 0.633965 -4.39123e-20)
(1.03056 0.609663 2.90628e-21)
(0.957482 0.579389 0)
(0.879992 0.540991 -1.7964e-19)
(0.81022 0.498353 1.94325e-19)
(0.758049 0.459614 0)
(0.720636 0.426951 7.16637e-20)
(0.693722 0.400101 -1.95567e-21)
(0.674227 0.378395 -1.63914e-19)
(0.659249 0.36077 6.4442e-20)
(0.637485 0.341469 0)
(0.555732 0.29335 2.38456e-19)
(0.342521 0.179009 0)
(0.0638312 0.0330373 -2.32514e-19)
(0.240129 0.137591 7.52036e-20)
(1.13016 0.642463 1.18254e-19)
(1.27313 0.729631 -8.36265e-20)
(1.25385 0.730721 0)
(1.20402 0.715998 6.88891e-20)
(1.14727 0.697723 0)
(1.08445 0.675951 5.89458e-20)
(1.01556 0.649684 5.65958e-21)
(0.940821 0.617327 5.63724e-21)
(0.861012 0.576419 -8.86173e-20)
(0.788604 0.530801 1.88798e-20)
(0.734481 0.488882 0)
(0.695823 0.453068 -1.52576e-19)
(0.668349 0.423323 2.03223e-21)
(0.648954 0.399044 0)
(0.634556 0.379277 2.42092e-21)
(0.613268 0.357499 2.16524e-19)
(0.532434 0.304809 -2.09192e-19)
(0.324408 0.183457 6.17576e-20)
(0.0587328 0.0328135 0)
(0.238705 0.146168 0)
(1.11747 0.681079 1.32142e-19)
(1.26022 0.774178 9.82082e-20)
(1.24095 0.775129 -2.13993e-21)
(1.19098 0.758974 4.33335e-20)
(1.13392 0.739136 9.44861e-20)
(1.07051 0.71573 -1.886e-20)
(1.00063 0.687803 1.19969e-21)
(0.924347 0.653711 3.21122e-20)
(0.842212 0.610731 -1.37818e-19)
(0.767002 0.562433 -3.03826e-21)
(0.71053 0.517305 -6.24668e-20)
(0.670359 0.478139 2.50217e-19)
(0.642065 0.445226 -2.44706e-21)
(0.622722 0.418088 -1.29597e-19)
(0.60871 0.395726 -2.3671e-19)
(0.58768 0.371142 0)
(0.50739 0.313454 0)
(0.304537 0.185378 6.80788e-20)
(0.0531051 0.0317704 -3.97645e-20)
(0.237796 0.154548 9.3312e-20)
(1.10528 0.717322 -2.88538e-19)
(1.24707 0.815823 -1.05009e-19)
(1.22781 0.816721 0)
(1.17779 0.799293 -1.45663e-21)
(1.12054 0.778095 1.13968e-19)
(1.0567 0.753315 -6.43237e-20)
(0.986005 0.724036 -2.46493e-20)
(0.908286 0.688546 3.37786e-20)
(0.823823 0.643911 -1.06125e-19)
(0.745652 0.593276 -1.63968e-19)
(0.686373 0.545135 1.66529e-19)
(0.644384 0.502524 0)
(0.615075 0.466134 -5.84202e-20)
(0.595405 0.435811 -1.42474e-19)
(0.581382 0.41046 -1.7189e-19)
(0.560264 0.38248 -2.08985e-19)
(0.480138 0.319134 6.26918e-20)
(0.282687 0.184401 -3.68053e-20)
(0.0469427 0.0299007 4.74412e-22)
(0.236911 0.162605 0)
(1.09393 0.751113 0)
(1.23386 0.854725 2.34043e-21)
(1.21463 0.855587 0)
(1.16466 0.837049 -1.62963e-19)
(1.10732 0.814672 -1.00965e-19)
(1.04321 0.788744 0)
(0.971852 0.7584 -6.66618e-21)
(0.892843 0.721859 4.36097e-20)
(0.806086 0.675997 -2.43345e-19)
(0.724721 0.623503 0)
(0.662138 0.572722 -1.066e-19)
(0.617634 0.526757 -3.01451e-21)
(0.586815 0.486585 -2.50101e-21)
(0.566386 0.452452 1.52422e-19)
(0.552306 0.423682 -3.80469e-22)
(0.530972 0.391648 -4.54996e-19)
(0.450529 0.32166 1.3714e-19)
(0.258654 0.180316 4.07647e-20)
(0.0402249 0.0271301 0)
(0.236003 0.170342 -3.42517e-19)
(1.08303 0.782945 -1.77009e-19)
(1.22077 0.891037 -2.62738e-19)
(1.20158 0.891854 3.64881e-19)
(1.15174 0.872322 -3.05609e-19)
(1.09443 0.84894 0)
(1.03016 0.822068 -5.54345e-20)
(0.958293 0.790905 1.23423e-20)
(0.878138 0.753665 3.62824e-21)
(0.789125 0.707029 1.91341e-20)
(0.704359 0.653265 2.051e-19)
(0.637988 0.60026 -3.64381e-20)
(0.589902 0.551022 -1.54526e-19)
(0.556757 0.506625 -6.95342e-20)
(0.535536 0.468328 8.50153e-20)
(0.521195 0.435262 -3.30391e-22)
(0.499518 0.398598 1.25326e-19)
(0.418133 0.320955 -2.97959e-19)
(0.231842 0.172627 3.56018e-19)
(0.0329438 0.0235104 5.14996e-20)
(0.234963 0.177653 1.25612e-19)
(1.07256 0.812858 -9.66223e-20)
(1.2079 0.924894 5.6992e-21)
(1.18877 0.925648 2.06009e-19)
(1.13913 0.905229 7.1461e-20)
(1.08194 0.880979 2.01712e-19)
(1.01765 0.853343 -2.47297e-20)
(0.945405 0.821577 5.99572e-20)
(0.864257 0.783936 -2.61304e-20)
(0.773104 0.736965 -1.32652e-19)
(0.684799 0.682467 0)
(0.614329 0.627746 -1.63694e-19)
(0.561912 0.575397 2.2423e-19)
(0.525396 0.5268 0)
(0.502579 0.483782 -1.82076e-19)
(0.487725 0.445749 1.13212e-19)
(0.465439 0.402852 -1.35674e-19)
(0.38276 0.316315 -1.64145e-19)
(0.202573 0.161255 -2.90802e-19)
(0.0252685 0.0190479 -2.26956e-19)
(0.234006 0.18469 -1.3789e-19)
(1.06237 0.840874 1.03315e-19)
(1.19535 0.956405 2.44678e-19)
(1.17629 0.957075 2.83127e-19)
(1.12691 0.935875 -1.49483e-19)
(1.06994 0.910888 1.39257e-19)
(1.00574 0.88263 -7.68912e-20)
(0.933259 0.850464 7.52309e-20)
(0.851262 0.812692 -9.33076e-21)
(0.758143 0.765807 1.2664e-19)
(0.666308 0.711128 4.34634e-19)
(0.591407 0.655281 0)
(0.534255 0.600515 0)
(0.493108 0.547992 -8.04147e-20)
(0.467486 0.499562 0)
(0.451273 0.454923 2.4702e-19)
(0.428083 0.404194 2.97608e-19)
(0.344347 0.30688 0)
(0.171736 0.145993 0)
(0.0177231 0.0140914 2.4835e-19)
(0.232813 0.191115 1.51844e-19)
(1.05247 0.867032 1.23639e-19)
(1.18317 0.985707 1.75673e-19)
(1.16419 0.986278 -2.52437e-19)
(1.11513 0.964376 -1.66582e-19)
(1.05847 0.938753 -1.84728e-19)
(0.994477 0.91 1.14123e-19)
(0.921895 0.877603 4.56874e-22)
(0.839217 0.839939 -4.64408e-21)
(0.744279 0.793526 -6.00025e-21)
(0.64905 0.739278 2.19935e-19)
(0.569474 0.682941 0)
(0.507232 0.626462 2.2569e-19)
(0.460396 0.570828 1.69119e-19)
(0.42976 0.517033 4.33233e-19)
(0.410557 0.463869 1.33061e-19)
(0.385669 0.400838 -1.65474e-19)
(0.303013 0.289808 -9.78214e-20)
(0.142416 0.126126 0)
(0.0118886 0.00938709 2.71272e-19)
(0.231817 0.197377 -3.33464e-19)
(1.04287 0.891548 0)
(1.17136 1.01291 1.95938e-19)
(1.1525 1.01336 -2.06571e-19)
(1.10384 0.990839 1.88384e-19)
(1.04755 0.964671 2.69794e-19)
(0.983872 0.935519 -2.64899e-19)
(0.91132 0.903032 2.36254e-21)
(0.828133 0.865684 0)
(0.731582 0.82006 -1.18199e-19)
(0.63309 0.766781 -4.55069e-19)
(0.548876 0.710741 2.21913e-20)
(0.481071 0.653404 3.05429e-19)
(0.427612 0.595511 0)
(0.389744 0.536996 2.91199e-19)
(0.364163 0.473891 0)
(0.333973 0.392205 0)
(0.256675 0.25779 -1.0961e-19)
(0.124991 0.0927344 0)
(0.0265945 0.0129483 7.34912e-20)
(0.2305 0.20299 -3.63902e-19)
(1.03351 0.914604 0)
(1.15992 1.03822 3.1708e-19)
(1.1412 1.03856 0)
(1.09299 1.01552 -1.02134e-19)
(1.03711 0.988914 0)
(0.973847 0.959479 -1.98376e-20)
(0.901428 0.927069 -1.32843e-20)
(0.817886 0.890254 2.69206e-23)
(0.719914 0.845779 -1.16095e-19)
(0.618338 0.794023 1.19286e-20)
(0.529514 0.739073 1.82965e-19)
(0.455862 0.681634 2.9509e-19)
(0.394608 0.623145 4.21746e-20)
(0.346897 0.562522 2.26487e-19)
(0.309908 0.489459 0)
(0.262178 0.381553 3.61381e-19)
(0.184877 0.198039 -2.16967e-19)
(0.0726544 0.0823266 2.50915e-19)
(-0.0639865 0.377289 -2.94866e-19)
(0.22918 0.208326 2.96322e-19)
(1.0242 0.936116 4.67469e-19)
(1.14874 1.06195 0)
(1.13016 1.06227 4.41976e-21)
(1.08241 1.03893 2.77258e-19)
(1.02694 1.0121 -5.21648e-19)
(0.964154 0.9826 -1.1691e-19)
(0.891912 0.95057 0)
(0.808098 0.914676 -2.15795e-20)
(0.708802 0.871935 -3.5617e-21)
(0.604141 0.822499 0)
(0.510454 0.769788 0)
(0.430642 0.713381 2.57564e-19)
(0.360972 0.655391 -1.30979e-19)
(0.300356 0.597141 -2.23869e-19)
(0.245742 0.519658 0)
(0.15129 0.379329 1.82555e-19)
(0.041694 0.460851 -2.18515e-19)
(0.0500128 1.70852 -1.14295e-19)
(0.0881644 2.72036 -1.4686e-19)
(0.227735 0.212772 -2.16663e-19)
(1.01523 0.956266 -5.88911e-19)
(1.13781 1.08411 1.82263e-19)
(1.11937 1.08435 1.74868e-19)
(1.07216 1.0609 0)
(1.01706 1.03396 -3.73276e-19)
(0.954939 1.0046 -1.95925e-19)
(0.882906 0.973131 8.9388e-21)
(0.798966 0.938449 -2.82146e-21)
(0.698548 0.897905 8.8354e-20)
(0.591039 0.851497 2.01275e-19)
(0.49265 0.802119 1.86216e-19)
(0.406584 0.747912 2.5107e-19)
(0.328977 0.69066 -2.96445e-19)
(0.256312 0.642067 -3.27939e-19)
(0.180577 0.56908 0)
(0.0871703 0.815202 0)
(0.144575 2.41023 9.4709e-20)
(0.151877 3.14541 0)
(0.152437 3.36577 2.17521e-19)
(0.228596 0.217223 0)
(1.00695 0.97509 0)
(1.12693 1.10457 0)
(1.10862 1.10461 4.8649e-20)
(1.06192 1.08121 2.47154e-19)
(1.00726 1.05439 -2.84614e-19)
(0.946094 1.02538 -1.403e-19)
(0.874365 0.994657 1.01946e-20)
(0.790455 0.961437 -5.79871e-20)
(0.689168 0.923533 -9.95919e-21)
(0.579128 0.880862 3.61767e-19)
(0.476422 0.835863 -2.17199e-20)
(0.38408 0.785627 2.79832e-20)
(0.300121 0.726608 4.18904e-20)
(0.223479 0.691236 1.33218e-21)
(0.148544 0.921341 1.6562e-21)
(0.192381 2.52119 -4.52926e-19)
(0.22132 3.25842 -1.72081e-19)
(0.202065 3.42322 7.93507e-20)
(0.181033 3.45228 -8.05484e-20)
(0.144886 0.174384 1.2338e-19)
(0.991419 0.995664 0)
(1.11596 1.12352 -3.56972e-19)
(1.09874 1.12375 -4.53411e-19)
(1.05243 1.10064 5.14312e-19)
(0.9984 1.07401 3.02172e-19)
(0.937529 1.04504 1.63843e-19)
(0.866369 1.01526 -1.75951e-19)
(0.782712 0.983782 6.36838e-20)
(0.680998 0.948797 0)
(0.569076 0.910295 1.5493e-19)
(0.462695 0.870098 -1.376e-19)
(0.364647 0.8268 0)
(0.274806 0.768022 3.64371e-20)
(0.213558 0.861244 8.65071e-20)
(0.190623 2.12231 -1.07483e-19)
(0.294469 3.29107 1.19176e-19)
(0.27221 3.4466 5.57179e-20)
(0.22835 3.4766 6.37676e-20)
(0.198357 3.48984 7.26196e-20)
(0.26836 0.249847 -2.2898e-19)
(0.971961 0.998569 0)
(1.09535 1.14279 3.63556e-19)
(1.0847 1.15188 4.66918e-19)
(1.0373 1.12859 -5.28575e-19)
(0.983727 1.10253 -3.20871e-19)
(0.923333 1.07506 -2.52852e-19)
(0.852826 1.04683 -1.30568e-20)
(0.769267 1.01831 -9.40841e-20)
(0.666341 0.988548 9.5416e-21)
(0.550859 0.958184 5.97782e-21)
(0.438539 0.927731 1.04313e-19)
(0.33032 0.898166 2.23938e-20)
(0.252314 0.989357 -3.16368e-20)
(0.296603 2.05381 -7.35206e-20)
(0.378359 3.2839 4.557e-20)
(0.36976 3.48828 -3.52708e-20)
(0.324592 3.51873 -1.93749e-20)
(0.278182 3.55365 2.06034e-20)
(0.21136 3.54447 9.80906e-22)
(0.254064 0.2447 0)
(0.966575 1.0163 9.58532e-20)
(1.08655 1.16236 -7.20678e-20)
(1.07451 1.17121 -5.20632e-20)
(1.02783 1.14802 -3.47026e-19)
(0.974876 1.12215 3.13327e-19)
(0.914899 1.0949 1.70224e-19)
(0.845209 1.06771 -1.37316e-20)
(0.762359 1.0412 1.17443e-19)
(0.659649 1.01515 -1.36697e-20)
(0.543119 0.990591 -1.95962e-19)
(0.428557 0.967615 1.46421e-20)
(0.321719 0.95838 -1.91287e-20)
(0.301524 1.34799 -2.54505e-20)
(0.41657 2.90467 1.91994e-20)
(0.466143 3.47034 5.71225e-22)
(0.412901 3.5642 -7.55735e-20)
(0.368792 3.59284 -8.02061e-20)
(0.30443 3.62387 1.03356e-19)
(0.228608 3.61743 4.61368e-20)
(0.235948 0.240939 2.35297e-19)
(0.959078 1.03641 6.4401e-19)
(1.07691 1.18328 -2.05482e-19)
(1.06382 1.19167 -1.97482e-19)
(1.01783 1.16829 0)
(0.965625 1.14241 4.58163e-19)
(0.906441 1.11546 2.59654e-19)
(0.837923 1.0893 -1.44752e-20)
(0.756202 1.06491 1.21461e-20)
(0.654317 1.04285 5.54694e-20)
(0.53757 1.02446 -5.84589e-20)
(0.422525 1.0097 -9.84517e-20)
(0.329165 1.04939 -1.2195e-19)
(0.386819 1.87888 1.30173e-19)
(0.52542 3.31048 4.40952e-20)
(0.534755 3.55419 0)
(0.468375 3.61631 0)
(0.421052 3.67921 9.71871e-20)
(0.335815 3.74764 0)
(0.242684 3.71874 2.07585e-19)
(0.222973 0.240034 -3.42853e-19)
(0.949661 1.05717 -5.35517e-19)
(1.06562 1.20487 0)
(1.05185 1.21254 4.86502e-21)
(1.00665 1.18872 -3.37185e-19)
(0.955371 1.16268 6.80171e-19)
(0.89738 1.13602 1.7452e-19)
(0.830341 1.11081 -1.80678e-20)
(0.750112 1.08851 1.33126e-19)
(0.649545 1.07046 -6.6255e-21)
(0.533241 1.05846 0)