/*--------------------------------*- C++ -*----------------------------------*\
| =========                 |                                                 |
| \\      /  F ield         | OpenFOAM: The Open Source CFD Toolbox           |
|  \\    /   O peration     | Version:  2112                                  |
|   \\  /    A nd           | Website:  www.openfoam.com                      |
|    \\/     M anipulation  |                                                 |
\*---------------------------------------------------------------------------*/
FoamFile
{
    version     2.0;
    format      ascii;
    arch        "LSB;label=32;scalar=64";
    class       volScalarField;
    location    "1.5";
    object      Ma;
}
// * * * * * * * * * * * * * * * * * * * * * * * * * * * * * * * * * * * * * //

dimensions      [0 0 0 0 0 0 0];

internalField   nonuniform List<scalar> 
7000
(
3.00001
3
3
3
3
3
3
3
3
3
2.99999
2.99989
2.9998
2.99886
2.99807
2.99331
2.98528
2.96844
2.88801
2.6903
2.16602
1.43368
0.580882
0.255084
0.332891
0.37882
0.374757
0.353169
0.326141
0.305858
0.289626
0.274506
0.259254
0.243509
0.227883
0.213114
0.198996
0.185009
0.17151
0.15926
0.147862
0.136202
0.123681
0.110352
0.096221
0.0810277
0.064704
0.0469954
0.0293884
0.0184201
3.00001
3
3
3
3
3
3
3
3
3
2.99999
2.9999
2.99983
2.99897
2.99828
2.99391
2.98626
2.97575
2.8891
2.70881
2.18901
1.47274
0.604088
0.271054
0.342177
0.385677
0.380137
0.357518
0.329392
0.307771
0.290603
0.274955
0.259447
0.243747
0.228511
0.214389
0.201008
0.1877
0.17463
0.162338
0.150386
0.137717
0.124001
0.109699
0.0951517
0.0802727
0.0648805
0.0487574
0.0339619
0.027246
3.00001
3
3
3
3
3
3
3
3
3
2.99999
2.99991
2.99985
2.99905
2.9985
2.99444
2.98666
2.97571
2.89418
2.70874
2.22338
1.50639
0.621881
0.273949
0.344566
0.387372
0.381559
0.359458
0.331882
0.309937
0.292639
0.277071
0.261614
0.24598
0.230872
0.216816
0.203375
0.189944
0.176731
0.164247
0.152069
0.139212
0.125456
0.111413
0.0975517
0.0838601
0.0702105
0.0566786
0.0458576
0.0421292
3.00001
3
3
3
3
3
3
3
3
3
2.99999
2.99992
2.99987
2.99916
2.99866
2.99498
2.98751
2.97944
2.89579
2.72563
2.25832
1.55169
0.651854
0.288563
0.352442
0.391046
0.384588
0.363322
0.336583
0.314113
0.296487
0.280932
0.265566
0.250051
0.235073
0.221069
0.207534
0.193873
0.180341
0.167492
0.154992
0.141996
0.128471
0.115159
0.102526
0.0905279
0.0789768
0.0680641
0.0600814
0.0576118
3.00001
3
3
3
3
3
3
3
3
3
2.99999
2.99992
2.99987
2.9992
2.99868
2.99533
2.98797
2.97744
2.90341
2.72814
2.30645
1.59683
0.688249
0.30618
0.358615
0.391324
0.386839
0.368027
0.342824
0.319863
0.301979
0.286503
0.271301
0.255969
0.241157
0.227235
0.213644
0.199801
0.186016
0.172893
0.160156
0.14712
0.133948
0.121495
0.110179
0.0998829
0.0902768
0.0814749
0.0754635
0.0736526
3.00001
3
3
3
3
3
3
3
3
3
2.99999
2.99993
2.99988
2.99928
2.99864
2.99598
2.98801
2.97849
2.91317
2.74807
2.34312
1.64774
0.729064
0.328805
0.361636
0.388013
0.389961
0.37462
0.350984
0.327529
0.309421
0.294026
0.279041
0.263967
0.249357
0.235516
0.221875
0.207865
0.193828
0.180458
0.167606
0.154674
0.141943
0.130382
0.120359
0.111611
0.103671
0.0965626
0.0919068
0.0904587
3.00001
3
3
3
3
3
3
3
3
3
2.99999
2.99994
2.9999
2.99936
2.99897
2.99629
2.98981
2.98154
2.91352
2.75725
2.38484
1.7073
0.777045
0.361132
0.362349
0.386664
0.394419
0.381974
0.360229
0.336711
0.318487
0.303254
0.288629
0.273892
0.259491
0.245734
0.232048
0.217877
0.20366
0.190164
0.177284
0.164541
0.152375
0.141768
0.132976
0.125585
0.118958
0.113083
0.109365
0.108154
3.00001
3
3
3
3
3
3
3
3
3
3
2.99994
2.9999
2.99937
2.99902
2.9964
2.99059
2.98705
2.9179
2.77597
2.42367
1.77625
0.838869
0.399931
0.363765
0.3878
0.399428
0.389967
0.370321
0.347215
0.329002
0.31407
0.29993
0.28565
0.271555
0.25791
0.244196
0.229908
0.215528
0.201942
0.189196
0.176835
0.16532
0.155642
0.147899
0.141648
0.136009
0.130994
0.127988
0.126849
3.00001
3
3
3
3
3
3
3
3
3
3
2.99995
2.99992
2.99947
2.99911
2.99677
2.99144
2.98336
2.92764
2.79274
2.46941
1.84859
0.91349
0.446616
0.365193
0.389737
0.405826
0.399427
0.381992
0.359667
0.341278
0.326725
0.313299
0.299635
0.285867
0.272331
0.258579
0.244141
0.229583
0.215931
0.20334
0.191385
0.180533
0.171732
0.16497
0.159566
0.154813
0.150498
0.147883
0.146852
3.00001
3.00001
3
3
3
3
3
3
3
3
3
2.99996
2.99991
2.99951
2.99919
2.99725
2.99281
2.98739
2.93632
2.81027
2.51582
1.93393
1.00609
0.499849
0.364486
0.391753
0.414478
0.41174
0.396251
0.374894
0.356644
0.342698
0.329993
0.316772
0.303063
0.289342
0.27534
0.260615
0.245804
0.232093
0.219724
0.208247
0.198094
0.190156
0.184231
0.179694
0.175412
0.171552
0.169349
0.168345
3.00001
3.00001
3
3
3
3
3
3
3
3
3
2.99995
2.99989
2.99945
2.99904
2.99687
2.99232
2.9884
2.93967
2.83772
2.56333
2.02717
1.11568
0.560152
0.363588
0.396228
0.427465
0.428613
0.41472
0.394635
0.376841
0.363147
0.350582
0.337208
0.323015
0.308647
0.294021
0.278843
0.263828
0.250164
0.238178
0.227336
0.217932
0.210813
0.205684
0.201783
0.198076
0.194638
0.192658
0.191516
3.00001
3.00001
3
3
3
3
3
3
3
3
3
2.99995
2.99988
2.99944
2.99906
2.99692
2.9928
2.98673
2.94918
2.85741
2.62051
2.13711
1.25324
0.628402
0.366515
0.407832
0.448813
0.453674
0.44063
0.420706
0.40215
0.387404
0.373782
0.359342
0.344041
0.328697
0.313394
0.297873
0.282876
0.269562
0.258242
0.248301
0.239891
0.233733
0.229449
0.226248
0.223171
0.219685
0.21782
0.216953
3.00001
3.00001
3.00001
3
3
3
3
3
3
3
3
2.99995
2.99988
2.99952
2.99914
2.99743
2.99385
2.9915
2.9563
2.88756
2.67532
2.24526
1.41296
0.713149
0.390006
0.436241
0.480047
0.484365
0.468958
0.44709
0.426024
0.409245
0.394193
0.378681
0.362525
0.346725
0.331539
0.316557
0.302302
0.289936
0.279735
0.270984
0.263734
0.258677
0.255333
0.252885
0.250189
0.247627
0.246143
0.244751
3.00001
3.00001
3.00001
3.00001
3
3
3
3
3
3
2.99998
2.99996
2.99976
2.99958
2.99845
2.99761
2.99097
2.9894
2.96862
2.91562
2.73529
2.3455
1.57542
0.781569
0.39121
0.442208
0.487083
0.495278
0.481274
0.460255
0.438601
0.421515
0.406757
0.391845
0.376432
0.361624
0.347666
0.33416
0.321611
0.310999
0.302521
0.295476
0.289641
0.285907
0.28375
0.282334
0.280584
0.278093
0.276822
0.276092
3.00001
3.00001
3.00001
3.00001
3.00001
3
3
3
3
3
2.99999
2.99997
2.99982
2.99968
2.99888
2.99814
2.99345
2.9931
2.97617
2.94907
2.78447
2.42464
1.66129
0.841982
0.391363
0.434551
0.473916
0.488611
0.478431
0.460317
0.440272
0.424823
0.411892
0.399013
0.38584
0.373399
0.361953
0.351
0.340804
0.332465
0.326218
0.321462
0.317557
0.315468
0.31485
0.314763
0.314299
0.312863
0.312354
0.311277
3.00001
3.00001
3.00001
3.00001
3.00001
3.00001
3.00001
3
3
3
2.99999
2.99994
2.99987
2.99959
2.99912
2.9982
2.99402
2.99407
2.9663
2.9656
2.80506
2.49
1.74368
0.927441
0.433471
0.428796
0.462413
0.478932
0.472051
0.456868
0.439093
0.425488
0.414695
0.404179
0.393591
0.383882
0.375319
0.3674
0.360102
0.354591
0.351025
0.348968
0.347693
0.34779
0.349142
0.350966
0.35238
0.352434
0.352635
0.352741
3.00001
3.00001
3.00001
3.00001
3.00001
3.00001
3.00001
3.00001
3
3
2.99999
2.99993
2.99986
2.99959
2.99913
2.99803
2.99633
2.98782
2.9834
2.93145
2.81322
2.49373
1.8922
0.9493
0.480817
0.406277
0.440011
0.461318
0.460768
0.450512
0.436515
0.425367
0.417091
0.409335
0.401627
0.394827
0.389207
0.384405
0.380216
0.377675
0.377118
0.378057
0.379798
0.383083
0.387467
0.392049
0.396068
0.398766
0.401808
0.40247
3.00001
3.00001
3.00001
3.00001
3.00001
3.00001
3.00001
3.00001
3
3
2.99999
2.99992
2.99986
2.99951
2.99917
2.99736
2.99571
2.98317
2.9782
2.94543
2.84929
2.57472
2.0493
1.10743
0.57943
0.409017
0.433396
0.454986
0.45788
0.449962
0.438485
0.428995
0.422434
0.416802
0.411626
0.407474
0.404576
0.402891
0.401996
0.402656
0.405314
0.409625
0.414754
0.421376
0.429554
0.439074
0.448126
0.455368
0.462219
0.467989
3.00001
3.00001
3.00001
3.00001
3.00001
3.00001
3.00001
3.00001
3.00001
3
2.99999
2.99998
2.99993
2.99988
2.99963
2.99906
2.99824
2.99199
2.99231
2.95421
2.8847
2.65581
2.21565
1.32827
0.717205
0.453234
0.466483
0.483414
0.485209
0.474504
0.460878
0.448731
0.440416
0.434197
0.429279
0.425982
0.42445
0.424645
0.426236
0.429827
0.435743
0.443946
0.453789
0.464784
0.477971
0.492845
0.509879
0.526999
0.545903
0.563033
3.00001
3.00001
3.00001
3.00001
3.00001
3.00001
3.00001
3.00001
3.00001
3
3
2.99999
2.99996
2.99991
2.99982
2.9993
2.99854
2.9941
2.9916
2.97118
2.93299
2.76363
2.3921
1.62895
0.857404
0.488272
0.496519
0.515486
0.522773
0.513068
0.498731
0.483737
0.472444
0.464164
0.457825
0.453615
0.45179
0.452122
0.45453
0.460024
0.468704
0.480409
0.494842
0.511905
0.531993
0.556132
0.585508
0.620063
0.667642
0.74872
3.00001
3.00001
3.00001
3.00001
3.00001
3.00001
3.00001
3.00001
3.00001
3.00001
3
3
2.99998
2.99996
2.9998
2.99961
2.99823
2.99727
2.98608
2.98472
2.9201
2.7795
2.4448
1.81382
0.905945
0.516728
0.492997
0.521173
0.538605
0.538056
0.53018
0.520111
0.51176
0.50567
0.500999
0.49779
0.49645
0.49777
0.502115
0.509418
0.520425
0.535377
0.55469
0.57858
0.608291
0.645637
0.696197
0.762256
0.868962
1.00296
3.00001
3.00001
3.00001
3.00001
3.00001
3.00001
3.00001
3.00001
3.00001
3.00001
3.00001
3
2.99999
2.99998
2.99989
2.99979
2.99898
2.99821
2.99069
2.98859
2.94503
2.84808
2.57905
2.06534
1.15212
0.670436
0.526335
0.537852
0.553284
0.55994
0.557082
0.55137
0.545924
0.542835
0.540935
0.540203
0.54181
0.546295
0.553187
0.562874
0.576264
0.594722
0.618316
0.648629
0.685614
0.732214
0.793832
0.8739
0.996567
1.13941
3.00001
3.00001
3.00001
3.00001
3.00001
3.00001
3.00001
3.00001
3.00001
3.00001
3.00001
3.00001
3
2.99999
2.99994
2.99989
2.99944
2.99888
2.99495
2.99306
2.96774
2.91743
2.7489
2.37392
1.62515
0.902051
0.57815
0.571001
0.589166
0.602876
0.602003
0.59636
0.591429
0.588211
0.586501
0.587558
0.591725
0.598116
0.606901
0.618545
0.633845
0.654004
0.680416
0.713336
0.755641
0.805595
0.870318
0.947315
1.05352
1.1652
3.00001
3.00001
3.00001
3.00001
3.00001
3.00001
3.00001
3.00001
3.00001
3.00001
3.00001
3.00001
3
2.99999
2.99994
2.99992
2.99944
2.99885
2.99463
2.99351
2.96667
2.96786
2.82203
2.51769
1.8534
1.07647
0.604633
0.569185
0.600104
0.626575
0.633626
0.631727
0.629737
0.628696
0.62935
0.633335
0.640154
0.648913
0.659702
0.673425
0.690885
0.712134
0.739381
0.771723
0.812549
0.860862
0.919494
0.989509
1.07602
1.16653
3.00001
3.00001
3.00001
3.00001
3.00001
3.00001
3.00001
3.00001
3.00001
3.00001
3.00001
3.00001
3
3
2.99996
2.99993
2.99961
2.99928
2.99655
2.99516
2.9764
2.9814
2.86759
2.65906
2.06753
1.32949
0.743235
0.608729
0.622997
0.642392
0.654009
0.655718
0.655927
0.657395
0.661269
0.66876
0.678949
0.690205
0.703688
0.719178
0.738667
0.761147
0.788539
0.821214
0.859276
0.904642
0.956544
1.01693
1.08968
1.16221
3.00001
3.00001
3.00001
3.00001
3.00001
3.00001
3.00001
3.00001
3.00001
3.00001
3.00001
3.00001
3
2.99999
2.99998
2.99987
2.99979
2.99899
2.99805
2.99052
2.99246
2.95845
2.96203
2.79951
2.45918
1.78332
1.0384
0.678488
0.654663
0.669801
0.683358
0.686855
0.68731
0.689597
0.695081
0.703602
0.714601
0.726899
0.741638
0.758345
0.778372
0.80151
0.827995
0.858828
0.894086
0.934757
0.981252
1.03344
1.09572
1.15817
3.00001
3.00001
3.00001
3.00001
3.00001
3.00001
3.00001
3.00001
3.00001
3.00001
3.00001
3.00001
3.00001
3
2.99999
2.99994
2.99992
2.99946
2.99901
2.99487
2.99623
2.97506
2.98009
2.86452
2.63689
2.06897
1.34111
0.790795
0.677091
0.68713
0.703139
0.716073
0.720411
0.723103
0.728286
0.736246
0.746874
0.759583
0.774481
0.791702
0.811438
0.834544
0.860472
0.889675
0.922794
0.959367
1.00096
1.0467
1.09957
1.15332
3.00001
3.00001
3.00001
3.00001
3.00001
3.00001
3.00001
3.00001
3.00001
3.00001
3.00001
3.00001
3.00001
3
3
2.99997
2.99995
2.99973
2.99946
2.99743
2.99656
2.98348
2.98248
2.91834
2.76705
2.43486
1.80799
1.01388
0.73281
0.712151
0.728418
0.744023
0.751928
0.75544
0.759856
0.767332
0.777218
0.789665
0.803807
0.820654
0.839207
0.860529
0.884829
0.912023
0.942481
0.976162
1.01353
1.05519
1.10233
1.14937
3.00001
3.00001
3.00001
3.00001
3.00001
3.00001
3.00001
3.00001
3.00001
3.00001
3.00001
3.00001
3.00001
3.00001
3
3
2.99999
2.99993
2.99987
2.99923
2.99853
2.99228
2.99027
2.95155
2.88343
2.64881
2.18533
1.36143
0.902421
0.77278
0.765958
0.775361
0.783816
0.787112
0.790177
0.796132
0.805148
0.817224
0.831299
0.847508
0.865897
0.886025
0.908613
0.933156
0.960675
0.990955
1.02408
1.06123
1.10308
1.14517
3.00001
3.00001
3.00001
3.00001
3.00001
3.00001
3.00001
3.00001
3.00001
3.00001
3.00001
3.00001
3.00001
3.00001
3
3
2.99997
2.99996
2.99976
2.99958
2.99792
2.99715
2.98539
2.9914
2.92544
2.80568
2.52372
1.92841
1.18291
0.881631
0.819684
0.815754
0.817456
0.821653
0.823989
0.827689
0.834102
0.843551
0.856162
0.871097
0.888544
0.908236
0.929603
0.953472
0.978662
1.00709
1.03667
1.06968
1.10642
1.14365
3.00001
3.00001
3.00001
3.00001
3.00001
3.00001
3.00001
3.00001
3.00001
3.00001
3.00001
3.00001
3.00001
3.00001
3
3
2.99999
2.99997
2.99986
2.9998
2.99917
2.99857
2.99381
2.98988
2.97281
2.92752
2.77154
2.45742
1.74591
1.14116
0.892279
0.857774
0.85566
0.859761
0.86512
0.869087
0.873512
0.879761
0.888982
0.900797
0.915309
0.932361
0.9513
0.972658
0.995805
1.02159
1.04949
1.07982
1.11391
1.14757
3.00001
3.00001
3.00001
3.00001
3.00001
3.00001
3.00001
3.00001
3.00001
3.00001
3.00001
3.00001
3.00001
3.00001
3.00001
3.00001
3
2.99999
2.99998
2.99991
2.99985
2.99925
2.99874
2.99335
2.99195
2.95709
2.89161
2.69999
2.23144
1.51089
1.04182
0.893483
0.880895
0.88707
0.896564
0.905544
0.913704
0.921192
0.929963
0.939805
0.951198
0.964631
0.980148
0.998145
1.0179
1.04013
1.06464
1.09153
1.1221
1.15274
3.00001
3.00001
3.00001
3.00001
3.00001
3.00001
3.00001
3.00001
3.00001
3.00001
3.00001
3.00001
3.00001
3.00001
3.00001
3.00001
3
3
2.99998
2.99996
2.99984
2.99967
2.99855
2.99781
2.98895
2.99249
2.93794
2.8471
2.60745
2.0512
1.34727
1.00576
0.920827
0.914654
0.923148
0.935098
0.946653
0.956772
0.966318
0.977026
0.988059
1.00102
1.01471
1.0304
1.04746
1.06616
1.08701
1.10999
1.13656
1.16343
3.00001
3.00001
3.00001
3.00001
3.00001
3.00001
3.00001
3.00001
3.00001
3.00001
3.00001
3.00001
3.00001
3.00001
3.00001
3.00001
3.00001
3
3
2.99997
2.99995
2.99979
2.99965
2.99816
2.99691
2.99031
2.97168
2.93341
2.81136
2.54266
1.94972
1.2784
1.01173
0.960096
0.95432
0.961406
0.972301
0.983195
0.992896
1.00319
1.01417
1.02663
1.04062
1.05576
1.07237
1.09009
1.10952
1.13052
1.15457
1.17865
3.00001
3.00001
3.00001
3.00001
3.00001
3.00001
3.00001
3.00001
3.00001
3.00001
3.00001
3.00001
3.00001
3.00001
3.00001
3.00001
3.00001
3
3
2.99997
2.99994
2.99967
2.99964
2.99899
2.99815
2.99125
2.99404
2.96057
2.96095
2.80215
2.49283
1.89446
1.29575
1.03869
1.00114
0.998218
1.0044
1.01418
1.02395
1.0329
1.04224
1.05256
1.06473
1.07814
1.09301
1.10928
1.12687
1.14625
1.16815
1.19076
3.00001
3.00001
3.00001
3.00001
3.00001
3.00001
3.00001
3.00001
3.00001
3.00001
3.00001
3.00001
3.00001
3.00001
3.00001
3.00001
3.00001
3.00001
3
3
2.99999
2.99994
2.99988
2.99958
2.9993
2.99767
2.99511
2.99284
2.96302
2.94409
2.77855
2.48399
1.86029
1.31346
1.06561
1.02839
1.02678
1.03547
1.0481
1.06045
1.07143
1.08184
1.09233
1.1039
1.11624
1.13038
1.14579
1.16304
1.18301
1.20324
3.00001
3.00001
3.00001
3.00001
3.00001
3.00001
3.00001
3.00001
3.00001
3.00001
3.00001
3.00001
3.00001
3.00001
3.00001
3.00001
3.00001
3.00001
3.00001
3
3
2.99998
2.99996
2.99986
2.99968
2.99947
2.99745
2.99633
2.98228
2.98948
2.90522
2.77902
2.41231
1.81943
1.22986
1.06763
1.04293
1.04767
1.05948
1.07467
1.08898
1.10153
1.11286
1.12458
1.13677
1.14985
1.16437
1.18016
1.19847
1.21684
3.00001
3.00001
3.00001
3.00001
3.00001
3.00001
3.00001
3.00001
3.00001
3.00001
3.00001
3.00001
3.00001
3.00001
3.00001
3.00001
3.00001
3.00001
3.00001
3.00001
3
3
2.99999
2.99995
2.99992
2.99967
2.99944
2.9978
2.99657
2.98496
2.98129
2.91122
2.78653
2.40189
1.80293
1.2317
1.09292
1.06893
1.07254
1.083
1.09766
1.11256
1.12603
1.13872
1.15111
1.16373
1.17768
1.19264
1.20984
1.22721
3.00001
3.00001
3.00001
3.00001
3.00001
3.00001
3.00001
3.00001
3.00001
3.00001
3.00001
3.00001
3.00001
3.00001
3.00001
3.00001
3.00001
3.00001
3.00001
3.00001
3
3
2.99999
2.99998
2.99991
2.99986
2.99942
2.99925
2.99703
2.99542
2.98334
2.97005
2.89785
2.78791
2.47123
1.84236
1.36187
1.16322
1.12749
1.12245
1.12732
1.13809
1.15064
1.1623
1.17364
1.18448
1.19629
1.20839
1.22315
1.2384
3.00001
3.00001
3.00001
3.00001
3.00001
3.00001
3.00001
3.00001
3.00001
3.00001
3.00001
3.00001
3.00001
3.00001
3.00001
3.00001
3.00001
3.00001
3.00001
3.00001
3.00001
3.00001
3
2.99999
2.99999
2.99993
2.99988
2.99948
2.99931
2.99703
2.99618
2.98455
2.97384
2.91561
2.80977
2.52177
1.95484
1.46016
1.21165
1.16541
1.15895
1.16349
1.17356
1.1849
1.19608
1.20725
1.2183
1.23036
1.24307
1.25676
3.00001
3.00001
3.00001
3.00001
3.00001
3.00001
3.00001
3.00001
3.00001
3.00001
3.00001
3.00001
3.00001
3.00001
3.00001
3.00001
3.00001
3.00001
3.00001
3.00001
3.00001
3.00001
3.00001
3
3
2.99997
2.99995
2.99979
2.99971
2.99884
2.99836
2.99321
2.98963
2.96374
2.92864
2.81292
2.5506
2.06433
1.5073
1.26424
1.20541
1.19729
1.19869
1.20478
1.21369
1.22496
1.23585
1.2482
1.26136
1.27544
3.00001
3.00001
3.00001
3.00001
3.00001
3.00001
3.00001
3.00001
3.00001
3.00001
3.00001
3.00001
3.00001
3.00001
3.00001
3.00001
3.00001
3.00001
3.00001
3.00001
3.00001
3.00001
3.00001
3.00001
3
3
2.99997
2.99996
2.99983
2.99976
2.99904
2.99868
2.99476
2.99194
2.97261
2.94285
2.85708
2.64893
2.20899
1.68209
1.38144
1.27627
1.2428
1.23596
1.23715
1.24386
1.25334
1.2646
1.27749
1.2916
3.00001
3.00001
3.00001
3.00001
3.00001
3.00001
3.00001
3.00001
3.00001
3.00001
3.00001
3.00001
3.00001
3.00001
3.00001
3.00001
3.00001
3.00001
3.00001
3.00001
3.00001
3.00001
3.00001
3.00001
3.00001
3
3
2.99999
2.99998
2.99992
2.99983
2.99967
2.99883
2.99871
2.9933
2.98275
2.94771
2.89996
2.73505
2.39748
1.95155
1.50503
1.31952
1.27808
1.26928
1.26934
1.27326
1.28181
1.29421
1.30822
3.00001
3.00001
3.00001
3.00001
3.00001
3.00001
3.00001
3.00001
3.00001
3.00001
3.00001
3.00001
3.00001
3.00001
3.00001
3.00001
3.00001
3.00001
3.00001
3.00001
3.00001
3.00001
3.00001
3.00001
3.00001
3.00001
3.00001
3
3
2.99999
2.99995
2.99986
2.99966
2.99908
2.997
2.9959
2.98229
2.97049
2.90387
2.82051
2.57424
2.1442
1.67927
1.3998
1.33082
1.31018
1.30532
1.30765
1.31607
1.32786
3.00001
3.00001
3.00001
3.00001
3.00001
3.00001
3.00001
3.00001
3.00001
3.00001
3.00001
3.00001
3.00001
3.00001
3.00001
3.00001
3.00001
3.00001
3.00001
3.00001
3.00001
3.00001
3.00001
3.00001
3.00001
3.00001
3.00001
3.00001
3.00001
3
2.99999
2.99996
2.99992
2.9997
2.99973
2.99866
3.00236
2.99443
2.98577
2.94319
2.8926
2.73191
2.37452
1.95778
1.55207
1.38555
1.34915
1.3435
1.34728
1.35601
3.00001
3.00001
3.00001
3.00001
3.00001
3.00001
3.00001
3.00001
3.00001
3.00001
3.00001
3.00001
3.00001
3.00001
3.00001
3.00001
3.00001
3.00001
3.00001
3.00001
3.00001
3.00001
3.00001
3.00001
3.00001
3.00001
3.00001
3.00001
3.00001
3
3
2.99999
2.99998
2.99991
2.99989
2.99962
2.99929
2.99834
2.99465
2.98817
2.96841
2.93773
2.82158
2.61878
2.20936
1.79911
1.50881
1.41411
1.39546
1.39576
3.00001
3.00001
3.00001
3.00001
3.00001
3.00001
3.00001
3.00001
3.00001
3.00001
3.00001
3.00001
3.00001
3.00001
3.00001
3.00001
3.00001
3.00001
3.00001
3.00001
3.00001
3.00001
3.00001
3.00001
3.00001
3.00001
3.00001
3.00001
3.00001
3.00001
3.00001
3
3
2.99997
2.99997
2.99984
2.99981
2.99911
2.99894
2.99519
2.99355
2.9781
2.95735
2.8707
2.76981
2.51984
2.13176
1.76588
1.53869
1.48413
3.00001
3.00001
3.00001
3.00001
3.00001
3.00001
3.00001
3.00001
3.00001
3.00001
3.00001
3.00001
3.00001
3.00001
3.00001
3.00001
3.00001
3.00001
3.00001
3.00001
3.00001
3.00001
3.00001
3.00001
3.00001
3.00001
3.00001
3.00001
3.00001
3.00001
3.00001
3.00001
3.00001
3
3
2.99999
2.99995
2.99991
2.99965
2.99971
2.99833
3.00308
2.99315
2.98465
2.94296
2.90028
2.78484
2.48028
2.21212
1.86017
3.00001
3.00001
3.00001
3.00001
3.00001
3.00001
3.00001
3.00001
3.00001
3.00001
3.00001
3.00001
3.00001
3.00001
3.00001
3.00001
3.00001
3.00001
3.00001
3.00001
3.00001
3.00001
3.00001
3.00001
3.00001
3.00001
3.00001
3.00001
3.00001
3.00001
3.00001
3.00001
3.00001
3.00001
3.00001
3
3
2.99998
2.99997
2.99985
3.00002
2.99917
2.99905
2.99204
2.99532
2.96525
3.06179
2.91373
2.76769
2.31878
3.00001
3.00001
3.00001
3.00001
3.00001
3.00001
3.00001
3.00001
3.00001
3.00001
3.00001
3.00001
3.00001
3.00001
3.00001
3.00001
3.00001
3.00001
3.00001
3.00001
3.00001
3.00001
3.00001
3.00001
3.00001
3.00001
3.00001
3.00001
3.00001
3.00001
3.00001
3.00001
3.00001
3.00001
3.00001
3.00001
3.00001
3
3
2.99997
3.00004
3.00011
3.00104
3.001
3.0068
3.00018
3.04829
2.98681
2.94346
2.7052
3.00001
3.00001
3.00001
3.00001
3.00001
3.00001
3.00001
3.00001
3.00001
3.00001
3.00001
3.00001
3.00001
3.00001
3.00001
3.00001
3.00001
3.00001
3.00001
3.00001
3.00001
3.00001
3.00001
3.00001
3.00001
3.00001
3.00001
3.00001
3.00001
3.00001
3.00001
3.00001
3.00001
3.00001
3.00001
3.00001
3.00001
3.00001
3
2.99999
3.00001
3.00003
3.0003
3.00026
3.00158
2.99785
3.01489
2.99131
2.96613
2.87524
3.00001
3.00001
3.00001
3.00001
3.00001
3.00001
3.00001
3.00001
3.00001
3.00001
3.00001
3.00001
3.00001
3.00001
3.00001
3.00001
3.00001
3.00001
3.00001
3.00001
3.00001
3.00001
3.00001
3.00001
3.00001
3.00001
3.00001
3.00001
3.00001
3.00001
3.00001
3.00001
3.00001
3.00001
3.00001
3.00001
3.00001
3.00001
3.00001
3
3.00001
3.00002
3.0001
3.00004
3.00043
2.99854
3.0055
2.9953
2.98307
2.94114
3.00001
3.00001
3.00001
3.00001
3.00001
3.00001
3.00001
3.00001
3.00001
3.00001
3.00001
3.00001
3.00001
3.00001
3.00001
3.00001
3.00001
3.00001
3.00001
3.00001
3.00001
3.00001
3.00001
3.00001
3.00001
3.00001
3.00001
3.00001
3.00001
3.00001
3.00001
3.00001
3.00001
3.00001
3.00001
3.00001
3.00001
3.00001
3.00001
3
3.00001
3.00001
3.00008
3.00008
3.00042
2.99958
3.00357
2.99794
2.99247
2.9701
3.00001
3.00001
3.00001
3.00001
3.00001
3.00001
3.00001
3.00001
3.00001
3.00001
3.00001
3.00001
3.00001
3.00001
3.00001
3.00001
3.00001
3.00001
3.00001
3.00001
3.00001
3.00001
3.00001
3.00001
3.00001
3.00001
3.00001
3.00001
3.00001
3.00001
3.00001
3.00001
3.00001
3.00001
3.00001
3.00001
3.00001
3.00001
3.00001
3.00001
3.00001
3.00002
3.00005
3.00005
3.00021
2.99978
3.00178
2.99893
2.99613
2.98505
3.00001
3.00001
3.00001
3.00001
3.00001
3.00001
3.00001
3.00001
3.00001
3.00001
3.00001
3.00001
3.00001
3.00001
3.00001
3.00001
3.00001
3.00001
3.00001
3.00001
3.00001
3.00001
3.00001
3.00001
3.00001
3.00001
3.00001
3.00001
3.00001
3.00001
3.00001
3.00001
3.00001
3.00001
3.00001
3.00001
3.00001
3.00001
3.00001
3.00001
3.00001
3.00001
3.00003
3.00003
3.00011
2.9999
3.00089
2.99949
2.99811
2.99268
3.00001
3.00001
3.00001
3.00001
3.00001
3.00001
3.00001
3.00001
3.00001
3.00001
3.00001
3.00001
3.00001
3.00001
3.00001
3.00001
3.00001
3.00001
3.00001
3.00001
3.00001
3.00001
3.00001
3.00001
3.00001
3.00001
3.00001
3.00001
3.00001
3.00001
3.00001
3.00001
3.00001
3.00001
3.00001
3.00001
3.00001
3.00001
3.00001
3.00001
3.00001
3.00001
3.00002
3.00001
3.00005
2.99995
3.00043
2.99974
2.99908
2.9964
3.00001
3.00001
3.00001
3.00001
3.00001
3.00001
3.00001
3.00001
3.00001
3.00001
3.00001
3.00001
3.00001
3.00001
3.00001
3.00001
3.00001
3.00001
3.00001
3.00001
3.00001
3.00001
3.00001
3.00001
3.00001
3.00001
3.00001
3.00001
3.00001
3.00001
3.00001
3.00001
3.00001
3.00001
3.00001
3.00001
3.00001
3.00001
3.00001
3.00001
3.00001
3.00001
3
3
2.99998
2.99997
2.99985
2.99984
2.99945
2.99902
3.00001
3.00001
3.00001
3.00001
3.00001
3.00001
3.00001
3.00001
3.00001
3.00001
3.00001
3.00001
3.00001
3.00001
3.00001
3.00001
3.00001
3.00001
3.00001
3.00001
3.00001
3.00001
3.00001
3.00001
3.00001
3.00001
3.00001
3.00001
3.00001
3.00001
3.00001
3.00001
3.00001
3.00001
3.00001
3.00001
3.00001
3.00001
3.00001
3.00001
3.00001
3.00001
3
3
2.99999
2.99999
2.99993
2.99992
2.99974
2.99951
3.00001
3.00001
3.00001
3.00001
3.00001
3.00001
3.00001
3.00001
3.00001
3.00001
3.00001
3.00001
3.00001
3.00001
3.00001
3.00001
3.00001
3.00001
3.00001
3.00001
3.00001
3.00001
3.00001
3.00001
3.00001
3.00001
3.00001
3.00001
3.00001
3.00001
3.00001
3.00001
3.00001
3.00001
3.00001
3.00001
3.00001
3.00001
3.00001
3.00001
3.00001
3.00001
3.00001
3.00001
3.00001
3
3.00005
2.99997
2.9999
2.99959
3.00001
3.00001
3.00001
3.00001
3.00001
3.00001
3.00001
3.00001
3.00001
3.00001
3.00001
3.00001
3.00001
3.00001
3.00001
3.00001
3.00001
3.00001
3.00001
3.00001
3.00001
3.00001
3.00001
3.00001
3.00001
3.00001
3.00001
3.00001
3.00001
3.00001
3.00001
3.00001
3.00001
3.00001
3.00001
3.00001
3.00001
3.00001
3.00001
3.00001
3.00001
3.00001
3.00001
3.00001
3.00001
3
2.99998
2.99998
2.99992
2.99987
1.47713
1.64382
1.67995
1.6145
1.50697
1.38261
1.26035
1.1542
1.11816
1.11559
1.12073
1.12336
1.12351
1.12222
1.1175
1.1136
1.11219
1.11468
1.11788
1.12084
1.12314
1.12511
1.12702
1.12909
1.13157
1.13471
1.13893
1.14424
1.14992
1.15574
1.16168
1.1678
1.17416
1.18076
1.18751
1.19441
1.20153
1.20892
1.21648
1.22422
1.23211
1.24012
1.2482
1.25633
1.26453
1.27271
1.2806
1.28761
1.2936
1.29838
1.30098
1.29946
1.29096
1.26643
1.21623
1.13338
1.02985
0.932869
0.861679
0.825774
0.829578
0.852351
0.873428
0.899298
0.926548
0.947355
0.964249
0.981137
0.997553
1.01477
1.03314
1.0536
1.07636
1.0975
1.11676
1.13406
1.15007
1.16443
1.1782
1.19154
1.20513
1.21879
1.23361
1.24856
1.26427
1.27933
1.29436
1.30865
1.32284
1.33616
1.34975
1.36202
1.37512
1.38672
1.39926
1.41032
1.42222
1.43207
1.44171
1.44662
1.43255
1.53396
1.56962
1.57525
1.58107
1.60768
1.63281
1.6365
1.61549
1.57876
1.53872
1.5129
1.50726
1.51042
1.51459
1.51811
1.51917
1.51898
1.5182
1.51867
1.52035
1.52292
1.52549
1.52818
1.53144
1.53515
1.53884
1.54258
1.54651
1.5506
1.55467
1.5586
1.56238
1.56612
1.56994
1.57392
1.57811
1.58253
1.58713
1.59187
1.59689
1.60239
1.60835
1.61461
1.62114
1.62787
1.63405
1.63911
1.64336
1.64625
1.64587
1.63881
1.61721
1.57031
1.50025
1.43476
1.39427
1.36274
1.32522
1.28118
1.23844
1.2074
1.19223
1.19695
1.21111
1.23098
1.25891
1.28704
1.31165
1.33067
1.34449
1.35335
1.3596
1.36636
1.37526
1.38706
1.40171
1.41853
1.436
1.4531
1.46957
1.48473
1.49845
1.51037
1.52129
1.5316
1.54181
1.55194
1.56206
1.57214
1.58231
1.59246
1.60257
1.61266
1.62255
1.63232
1.64166
1.64989
1.6574
1.65913
1.37545
1.46888
1.53813
1.61138
1.69007
1.76683
1.8132
1.82282
1.8176
1.79941
1.76958
1.73713
1.71505
1.70106
1.69711
1.6961
1.69723
1.6982
1.69918
1.70028
1.70182
1.70376
1.70568
1.70746
1.70955
1.71207
1.71488
1.71784
1.72113
1.72464
1.72824
1.73182
1.73533
1.73875
1.7422
1.74573
1.74929
1.75294
1.75675
1.7609
1.76517
1.7699
1.77466
1.7797
1.78467
1.7891
1.79241
1.79506
1.79578
1.79309
1.78087
1.75063
1.68992
1.61059
1.54709
1.53262
1.53922
1.5417
1.53749
1.52314
1.49895
1.46645
1.42816
1.39089
1.36475
1.35488
1.36549
1.3779
1.39526
1.41904
1.44399
1.46595
1.48411
1.49905
1.51132
1.52137
1.5306
1.541
1.55346
1.56769
1.58248
1.59741
1.61185
1.62582
1.63924
1.65202
1.66421
1.67579
1.68705
1.69801
1.70878
1.71965
1.73023
1.74073
1.75108
1.76091
1.77071
1.77909
1.78687
1.78893
1.33856
1.43552
1.51942
1.59671
1.67005
1.73422
1.791
1.83824
1.8708
1.88247
1.88397
1.87609
1.86144
1.83997
1.82452
1.81015
1.80504
1.80185
1.80324
1.80499
1.80683
1.80856
1.81018
1.81186
1.81354
1.81532
1.81748
1.81995
1.82255
1.82543
1.82854
1.83173
1.83502
1.83834
1.84176
1.84523
1.84896
1.85283
1.85702
1.86135
1.8659
1.87048
1.87504
1.87935
1.88239
1.88474
1.88601
1.88459
1.87812
1.85954
1.81748
1.74179
1.65056
1.59311
1.58633
1.60014
1.61418
1.63004
1.64238
1.64977
1.64945
1.64133
1.62468
1.5993
1.56536
1.52619
1.48891
1.46138
1.45099
1.46178
1.4754
1.49327
1.51765
1.54339
1.56568
1.58494
1.60073
1.61391
1.62497
1.6356
1.64654
1.65846
1.6715
1.68508
1.69867
1.71202
1.72487
1.73748
1.74945
1.76123
1.77267
1.7838
1.79506
1.80573
1.81715
1.82749
1.8389
1.84806
1.85778
1.86136
1.31107
1.40219
1.4875
1.56667
1.64043
1.70709
1.76985
1.82508
1.87686
1.91534
1.9356
1.9419
1.94235
1.93622
1.92586
1.91031
1.89914
1.88604
1.88082
1.87601
1.87644
1.87737
1.87846
1.8798
1.88135
1.88301
1.8848
1.88677
1.88905
1.89165
1.89436
1.8973
1.9005
1.90406
1.90763
1.91152
1.91542
1.91961
1.92385
1.92831
1.9329
1.93727
1.94148
1.94397
1.94586
1.94631
1.94393
1.9338
1.90834
1.85396
1.76392
1.66472
1.62073
1.6177
1.63084
1.64699
1.664
1.68359
1.7039
1.72042
1.73254
1.74089
1.74184
1.7356
1.7199
1.6962
1.66351
1.6263
1.58372
1.54819
1.52241
1.51702
1.53156
1.5482
1.56797
1.59509
1.62215
1.64677
1.66796
1.68556
1.70059
1.71262
1.72374
1.73354
1.74302
1.75304
1.76366
1.77469
1.78644
1.79768
1.80976
1.82123
1.83384
1.84525
1.85802
1.86901
1.8818
1.89165
1.90278
1.90701
1.2897
1.37425
1.45449
1.53035
1.60349
1.67073
1.73456
1.79197
1.84423
1.89012
1.93261
1.96257
1.9823
1.98897
1.98913
1.98618
1.97871
1.96592
1.95608
1.9435
1.93749
1.93149
1.93087
1.93111
1.93147
1.93238
1.93411
1.93616
1.93836
1.94071
1.94312
1.94584
1.94917
1.95303
1.95729
1.96184
1.96664
1.97178
1.97679
1.98234
1.98695
1.99156
1.99406
1.99548
1.99513
1.9908
1.97645
1.94244
1.87222
1.77074
1.67051
1.64004
1.63638
1.6482
1.66366
1.68102
1.69994
1.72185
1.74268
1.76346
1.78117
1.79408
1.80275
1.80635
1.80635
1.80111
1.78981
1.77065
1.74586
1.71636
1.67848
1.6441
1.61048
1.58954
1.59123
1.60717
1.62603
1.64557
1.67175
1.69711
1.7195
1.7371
1.75197
1.76382
1.77515
1.78452
1.794
1.80325
1.81317
1.82394
1.8363
1.84838
1.86185
1.87416
1.88806
1.89986
1.91328
1.92356
1.9353
1.93946
1.26894
1.34726
1.42278
1.49538
1.56598
1.6322
1.69533
1.75365
1.80847
1.85835
1.90471
1.94597
1.98094
2.00287
2.01814
2.02301
2.0229
2.02087
2.01427
2.00394
1.99374
1.98315
1.97559
1.97022
1.96798
1.96823
1.9684
1.96946
1.97156
1.97392
1.97632
1.97897
1.98207
1.98561
1.98972
1.99428
1.99957
2.00491
2.01104
2.01645
2.0213
2.02476
2.02599
2.02524
2.01876
2.00003
1.95676
1.87111
1.75604
1.66724
1.64935
1.64862
1.65875
1.67346
1.69016
1.71137
1.73154
1.7534
1.77401
1.79361
1.81006
1.82412
1.83599
1.84468
1.85198
1.85684
1.85895
1.85888
1.85612
1.84667
1.83245
1.81367
1.78624
1.75764
1.71926
1.68654
1.66223
1.66052
1.67376
1.68964
1.70526
1.72661
1.74981
1.7695
1.7876
1.80173
1.81624
1.82835
1.84143
1.85316
1.86555
1.87697
1.88966
1.90139
1.91469
1.92623
1.93951
1.94944
1.96081
1.96503
1.25141
1.32296
1.39323
1.46282
1.53033
1.59522
1.6567
1.71468
1.76921
1.81978
1.86706
1.90946
1.94918
1.98477
2.01382