/*--------------------------------*- C++ -*----------------------------------*\
| =========                 |                                                 |
| \\      /  F ield         | OpenFOAM: The Open Source CFD Toolbox           |
|  \\    /   O peration     | Version:  2112                                  |
|   \\  /    A nd           | Website:  www.openfoam.com                      |
|    \\/     M anipulation  |                                                 |
\*---------------------------------------------------------------------------*/
FoamFile
{
    version     2.0;
    format      ascii;
    arch        "LSB;label=32;scalar=64";
    class       volScalarField;
    location    "1.5";
    object      p;
}
// * * * * * * * * * * * * * * * * * * * * * * * * * * * * * * * * * * * * * //

dimensions      [1 -1 -2 0 0 0 0];

internalField   nonuniform List<scalar> 
7000
(
0.999999
1
1.00001
1.00001
1.00001
1.00001
1.00001
1.00001
1.00001
1.00001
1.00003
1.00006
1.00026
1.00058
1.00195
1.00366
1.01149
1.02317
1.09967
1.11822
1.98187
2.81296
6.99419
11.2843
10.8533
10.4147
10.4195
10.5152
10.7028
10.8449
10.9493
11.0409
11.1294
11.2155
11.298
11.3763
11.4492
11.5169
11.5804
11.6407
11.6974
11.75
11.799
11.8444
11.8853
11.9208
11.95
11.9719
11.9894
12.0003
1
1.00001
1.00001
1.00001
1.00001
1.00001
1.00001
1.00001
1.00001
1.00001
1.00003
1.00005
1.00024
1.00052
1.0018
1.00327
1.01091
1.01672
1.10066
1.09224
1.97558
2.71299
6.77243
11.2282
10.8504
10.413
10.416
10.5077
10.6916
10.8355
10.9416
11.0337
11.1224
11.2087
11.2917
11.3703
11.4437
11.512
11.5761
11.637
11.6944
11.7477
11.7972
11.8432
11.8845
11.9203
11.9497
11.9719
11.9893
12.0001
1
1.00001
1.00001
1.00001
1.00001
1.00001
1.00001
1.00001
1.00001
1.00001
1.00003
1.00005
1.00022
1.00049
1.00163
1.00285
1.01041
1.01729
1.09589
1.10968
1.91271
2.64069
6.53512
11.2608
10.889
10.4381
10.4337
10.5178
10.6922
10.836
10.9427
11.034
11.1216
11.2071
11.2896
11.3679
11.4413
11.5098
11.5742
11.6354
11.693
11.7464
11.7957
11.8413
11.8821
11.9174
11.9462
11.968
11.9846
11.9945
1
1.00001
1.00001
1.00001
1.00001
1.00001
1.00001
1.00001
1.00001
1.00001
1.00003
1.00004
1.0002
1.00042
1.00148
1.00264
1.00955
1.01373
1.09711
1.09112
1.88286
2.54282
6.2228
11.252
10.9077
10.4552
10.4394
10.5158
10.6794
10.8247
10.9335
11.0249
11.1119
11.1973
11.2799
11.3586
11.4326
11.5018
11.5671
11.6291
11.6874
11.7412
11.7908
11.8363
11.8767
11.9114
11.9396
11.9608
11.9769
11.9864
1
1
1.00001
1.00001
1.00001
1.00001
1.00001
1.00001
1.00001
1.00001
1.00002
1.00004
1.00019
1.00041
1.00138
1.00239
1.00899
1.01609
1.09027
1.10823
1.80009
2.44694
5.86362
11.1972
10.925
10.4985
10.4567
10.5209
10.6687
10.816
10.9267
11.0174
11.1033
11.1879
11.2702
11.3489
11.4232
11.493
11.559
11.6218
11.6805
11.7345
11.7838
11.8289
11.8686
11.9025
11.93
11.9507
11.9662
11.9753
1
1
1.00001
1.00001
1.00001
1.00001
1.00001
1.00001
1.00001
1.00001
1.00002
1.00004
1.00017
1.00036
1.00129
1.00263
1.00801
1.01508
1.08407
1.07826
1.77205
2.33982
5.53177
11.0359
10.9145
10.565
10.4755
10.5242
10.6528
10.8026
10.9155
11.0059
11.0909
11.1748
11.2567
11.3356
11.4104
11.481
11.5478
11.6112
11.6705
11.7246
11.7738
11.8183
11.8573
11.8903
11.9169
11.9369
11.9518
11.9607
1
1
1.00001
1.00001
1.00001
1.00001
1.00001
1.00001
1.00001
1.00001
1.00002
1.00004
1.00015
1.00032
1.00111
1.0019
1.00743
1.01327
1.07981
1.09591
1.70135
2.21941
5.27326
10.7147
10.8747
10.6435
10.4985
10.5301
10.6359
10.786
10.9008
10.9912
11.0752
11.1583
11.2399
11.3189
11.3943
11.4655
11.533
11.5971
11.6569
11.711
11.7598
11.8038
11.8418
11.8739
11.8994
11.9187
11.9331
11.9416
1
1
1.00001
1.00001
1.00001
1.00001
1.00001
1.00001
1.00001
1.00001
1.00002
1.00004
1.00015
1.00032
1.00107
1.00191
1.00664
1.00854
1.07746
1.0778
1.65979
2.11771
4.99479
10.3004
10.883
10.6947
10.5168
10.5347
10.6184
10.7653
10.8824
10.9732
11.0561
11.1382
11.2194
11.2985
11.3742
11.446
11.5142
11.5787
11.6386
11.6925
11.7407
11.7838
11.8208
11.8519
11.8765
11.895
11.9088
11.9172
1
1
1.00001
1.00001
1.00001
1.00001
1.00001
1.00001
1.00001
1.00001
1.00002
1.00003
1.00013
1.00027
1.00098
1.00175
1.00655
1.01259
1.06659
1.08143
1.59329
2.00843
4.69785
9.78518
10.9131
10.7479
10.5297
10.5338
10.5994
10.7384
10.8598
10.9514
11.0329
11.1137
11.1944
11.2735
11.3495
11.4217
11.4901
11.5546
11.6144
11.6678
11.7152
11.7573
11.7933
11.8232
11.8467
11.8644
11.8777
11.8859
1
1
1.00001
1.00001
1.00001
1.00001
1.00001
1.00001
1.00001
1.00001
1.00002
1.00003
1.00012
1.00025
1.00084
1.00153
1.00521
1.00881
1.05947
1.0692
1.53409
1.90331
4.37761
9.17119
10.9724
10.8145
10.5393
10.5216
10.5779
10.7081
10.8329
10.9251
11.005
11.0844
11.1645
11.2432
11.3192
11.3913
11.4594
11.5235
11.5827
11.635
11.6813
11.7221
11.7567
11.7856
11.8081
11.8251
11.8379
11.8457
1
1
1
1.00001
1.00001
1.00001
1.00001
1.00001
1.00001
1.00001
1.00001
1.00003
1.00014
1.00028
1.00096
1.00173
1.00591
1.00898
1.05505
1.05483
1.4867
1.77937
4.02494
8.4385
11.0668
10.8962
10.546
10.4954
10.5486
10.6748
10.8013
10.8935
10.9717
11.0496
11.1285
11.2066
11.2819
11.3531
11.4201
11.4829
11.5408
11.5917
11.6364
11.6758
11.709
11.7368
11.7582
11.7742
11.7867
11.7947
1
1
1
1
1.00001
1.00001
1.00001
1.00001
1.00001
1.00001
1.00001
1.00004
1.00014
1.0003
1.00094
1.00171
1.00541
1.01067
1.04571
1.05485
1.4122
1.66484
3.64416
7.59024
11.2132
10.9997
10.5527
10.4603
10.5108
10.6347
10.7638
10.8562
10.9325
11.0081
11.0851
11.1615
11.2352
11.3046
11.3696
11.4303
11.4862
11.535
11.5777
11.6151
11.6467
11.673
11.6937
11.7094
11.7216
11.7293
1
1
1
1
1.00001
1.00001
1.00001
1.00001
1.00001
1.00001
1.00001
1.00003
1.00013
1.00026
1.00082
1.00146
1.00465
1.00733
1.0375
1.03584
1.35906
1.52857
3.26238
6.61207
11.3813
11.1241
10.5751
10.4306
10.4742
10.589
10.7198
10.812
10.8854
10.9576
11.0315
11.1051
11.176
11.2424
11.3044
11.3622
11.4152
11.4618
11.5022
11.5375
11.5672
11.5921
11.6113
11.6258
11.6375
11.646
1
1
1
1
1
1
1.00001
1.00001
1.00001
1.00001
1.00002
1.00006
1.00013
1.00042
1.00085
1.00249
1.00464
1.01522
1.02441
1.0225
1.29823
1.39413
2.9375
5.61973
11.3983
11.1375
10.602
10.4021
10.433
10.5305
10.6629
10.7557
10.8262
10.8944
10.9643
11.0342
11.1012
11.1637
11.2217
11.2757
11.325
11.3686
11.4058
11.4383
11.4653
11.4881
11.5062
11.5201
11.5316
11.5391
1
1
1
1
1
1
1
1
1
1.00001
1.00001
1.00005
1.00011
1.00033
1.00064
1.0019
1.0037
1.01179
1.01589
1.01141
1.24565
1.26924
2.78837
4.9619
11.1012
10.986
10.6216
10.371
10.3858
10.461
10.5929
10.686
10.754
10.8178
10.883
10.9477
11.0094
11.0669
11.1201
11.1691
11.2134
11.2533
11.2852
11.3138
11.3371
11.3564
11.372
11.3831
11.3937
11.4023
1
1
1
1
1
1
1
1
1.00001
1.00001
1.00002
1.00004
1.00012
1.00026
1.00067
1.00156
1.00325
1.0094
1.01499
1.02267
1.1945
1.21925
2.62608
4.46622
10.4078
10.8142
10.5828
10.3356
10.3403
10.3971
10.5151
10.6062
10.6708
10.7293
10.7884
10.8466
10.9016
10.9528
10.9994
11.0416
11.0791
11.1122
11.1372
11.1594
11.1764
11.19
11.2005
11.2077
11.2158
11.223
1
1
1
1
1
1
1
1
1
1.00001
1.00002
1.00005
1.00012
1.00027
1.00055
1.00147
1.00254
1.00745
1.0136
1.05781
1.07002
1.55897
1.91298
4.50424
9.3747
10.6516
10.5119
10.2894
10.2855
10.3303
10.4307
10.518
10.5787
10.6308
10.6823
10.7324
10.7792
10.8225
10.8597
10.8931
10.921
10.9442
10.9586
10.97
10.9761
10.979
10.9791
10.9776
10.9792
10.9843
1
1
1
1
1
1
1
1
1
1.00001
1.00002
1.00005
1.00014
1.00027
1.00079
1.00146
1.00472
1.00817
1.02687
1.04634
1.05146
1.46265
1.73011
3.95996
8.23301
10.5985
10.4985
10.2627
10.2182
10.2542
10.3395
10.4222
10.4788
10.524
10.5668
10.6073
10.6442
10.6768
10.7017
10.7229
10.7377
10.7461
10.7455
10.7404
10.7276
10.7105
10.6898
10.6687
10.6543
10.649
1
1
1
1
1
1
1
1
1
1
1.00001
1.00002
1.00005
1.00013
1.0002
1.00086
1.00119
1.0052
1.00702
1.03856
1.03488
1.38439
1.5391
3.42503
6.89465
10.6458
10.5612
10.2884
10.1671
10.1851
10.2433
10.3201
10.3728
10.4107
10.4438
10.4735
10.4982
10.5178
10.5283
10.5328
10.5298
10.5188
10.4958
10.4618
10.4189
10.3661
10.3049
10.2379
10.1779
10.1369
1
1
1
1
1
1
1
1
1
1
1.00001
1.00002
1.00003
1.00008
1.00012
1.00063
1.00088
1.00368
1.00787
1.02079
1.02171
1.26671
1.32379
2.83144
5.18929
10.5475
10.5686
10.333
10.1167
10.1071
10.1374
10.2041
10.2552
10.286
10.3083
10.3258
10.3374
10.3414
10.3367
10.323
10.295
10.2554
10.2004
10.1283
10.0364
9.92167
9.78089
9.61225
9.42147
9.21724
1
1
1
1
1
1
1
1
1
1
1
1
1.00002
1.00003
1.00016
1.00016
1.00142
1.00251
1.00771
1.01186
1.07278
1.08683
1.63053
2.03967
4.78095
9.72028
10.373
10.2115
9.98083
9.95435
9.9815
10.0431
10.0942
10.1207
10.1335
10.1385
10.1362
10.125
10.0982
10.054
9.99435
9.91691
9.81483
9.68241
9.50947
9.27841
8.96317
8.49447
7.75813
6.23867
1
1
1
1
1
1
1
1
1
1
1
1
1.00001
1.00002
1.00009
1.00009
1.0009
1.00134
1.00549
1.00954
1.04693
1.05297
1.46604
1.71236
3.89466
7.96117
10.1752
10.1221
9.93423
9.81439
9.81932
9.84764
9.89187
9.91168
9.91272
9.90719
9.88897
9.85064
9.79374
9.72003
9.62512
9.50386
9.34689
9.14512
8.88222
8.5338
8.06437
7.41152
6.53067
5.13831
1
1
1
1
1
1
1
1
1
1
1
1
1.00001
1.00001
1.00005
1.00009
1.00046
1.00065
1.00342
1.00657
1.0247
1.0265
1.28208
1.36906
2.79056
5.23172
10.0334
10.2053
10.0029
9.7471
9.67627
9.68084
9.69314
9.69241
9.68356
9.65885
9.60935
9.54448
9.46341
9.3621
9.23448
9.07418
8.8736
8.62265
8.30823
7.91185
7.4136
6.78311
6.03195
5.06113
1
1
1
1
1
1
1
1
1
1
1
1
1.00001
1.00001
1.00004
1.00006
1.00048
1.0005
1.00373
1.00818
1.01676
1.02132
1.17704
1.20973
2.41196
3.94689
9.10626
10.048
9.88719
9.57476
9.4495
9.4475
9.45256
9.44986
9.4343
9.39484
9.32215
9.23666
9.13602
9.01338
8.86246
8.67758
8.4538
8.18232
7.85697
7.46699
7.0052
6.46254
5.85087
5.10232
1
1
1
1
1
1
1
1
1
1
1
1
1
1.00001
1.00004
1.00006
1.0003
1.00034
1.00254
1.00523
1.01214
1.01824
1.11475
1.09655
2.13943
3.00658
7.30812
9.67322
9.61586
9.40883
9.23667
9.20248
9.20489
9.20093
9.18097
9.13129
9.04413
8.9444
8.83019
8.694
8.53054
8.33576
8.10628
7.83803
7.52663
7.16838
6.76032
6.29925
5.7957
5.19869
1
1
1
1
1
1
1
1
1
1
1
1
1
1.00001
1.00002
1.0001
1.00016
1.00075
1.00072
1.00696
1.01663
1.0187
1.02709
1.2012
1.26177
2.51581
4.21092
8.98747
9.5567
9.4073
9.16251
9.05721
9.02775
9.00363
8.95764
8.88626
8.79404
8.68631
8.56285
8.41797
8.24877
8.0527
7.82753
7.57132
7.2822
6.95871
6.60021
6.2046
5.77938
5.28373
1
1
1
1
1
1
1
1
1
1
1
1
1
1.00001
1.00001
1.00005
1.00008
1.00039
1.00042
1.00388
1.00937
1.00962
1.01547
1.11882
1.13334
2.10625
3.05507
7.17009
9.29914
9.28225
9.12521
8.91692
8.82734
8.78612
8.73612
8.6628
8.569
8.45804
8.32995
8.1826
8.01408
7.82298
7.60806
7.36837
7.10319
6.8117
6.49396
6.14835
5.78018
5.35386
1
1
1
1
1
1
1
1
1
1
1
1
1
1
1.00001
1.00003
1.00003
1.00024
1.00022
1.00187
1.00406
1.00854
1.01421
1.07596
1.08396
1.65649
2.00705
4.54732
8.55811
9.10939
9.00965
8.78677
8.64166
8.57794
8.52807
8.45923
8.36751
8.2567
8.12858
7.98295
7.81862
7.63531
7.43174
7.20886
6.96586
6.70269
6.41862
6.11218
5.78561
5.41406
1
1
1
1
1
1
1
1
1
1
1
1
1
1
1
1.00001
1.00002
1.00005
1.00007
1.00062
1.00072
1.00512
1.00897
1.0378
1.0355
1.40192
1.51634
3.38917
6.51322
8.63269
8.78926
8.69857
8.51628
8.4138
8.35394
8.28921
8.20109
8.09238
7.96618
7.82368
7.66486
7.48941
7.29815
7.08983
6.8651
6.62326
6.36405
6.08723
5.79552
5.46538
1
1
1
1
1
1
1
1
1
1
1
1
1
1
1
1
1.00002
1.00004
1.00018
1.00023
1.00147
1.00324
1.00727
1.00971
1.0663
1.06166
1.56416
1.80619
3.97283
7.40568
8.54506
8.54528
8.47829
8.34363
8.23408
8.14828
8.05771
7.95216
7.82926
7.69122
7.53794
7.37016
7.18855
6.99341
6.78471
6.56295
6.3283
6.07869
5.81503
5.51346
1
1
1
1
1
1
1
1
1
1
1
1
1
1
1
1
1.00002
1.00003
1.00009
1.00012
1.00068
1.00084
1.00421
1.00882
1.02651
1.02088
1.25223
1.2793
2.56179
4.43861
7.834
8.50511
8.47379
8.36586
8.21244
8.08711
7.97626
7.86045
7.73024
7.58671
7.43163
7.26765
7.0944
6.9106
6.71553
6.50933
6.29179
6.06134
5.81801
5.54718
1
1
1
1
1
1
1
1
1
1
1
1
1
1
1
1
1
1.00001
1.00002
1.00007
1.00008
1.00061
1.00068
1.00442
1.00801
1.03326
1.03287
1.35186
1.44564
3.06609
5.65904
8.01515
8.38061
8.32733
8.18741
8.02292
7.88181
7.75167
7.61864
7.47838
7.32996
7.17213
7.00518
6.82962
6.64503
6.45136
6.24876
6.03583
5.81395
5.56291
1
1
1
1
1
1
1
1
1
1
1
1
1
1
1
1
1
1
1.00002
1.00004
1.00013
1.00015
1.00117
1.00182
1.00661
1.00662
1.05378
1.04048
1.4828
1.597
3.52819
6.46408
7.96153
8.15496
8.09186
7.93858
7.76067
7.61505
7.48494
7.35361
7.21431
7.06623
6.90977
6.74576
6.57468
6.39609
6.20884
6.0115
5.80534
5.57282
1
1
1
1
1
1
1
1
1
1
1
1
1
1
1
1
1
1
1
1.00003
1.00004
1.00017
1.00021
1.00143
1.00152
1.01025
1.01679
1.05939
1.06091
1.55644
1.70027
3.75722
6.72752
7.7857
7.87039
7.80428
7.64645
7.47324
7.33035
7.20796
7.08648
6.95639
6.81509
6.66452
6.50615
6.34014
6.16628
5.98316
5.7918
5.57752
1
1
1
1
1
1
1
1
1
1
1
1
1
1
1
1
1
1
1.00001
1.00003
1.00003
1.00024
1.00055
1.00075
1.00097
1.00606
1.015
1.01491
1.02262
1.20177
1.23787
2.29529
3.62826
6.77228
7.65991
7.70873
7.63895
7.48427
7.30883
7.15629
7.02064
6.88743
6.74996
6.60597
6.45617
6.30054
6.13792
5.96808
5.79148
5.58884
1
1
1
1
1
1
1
1
1
1
1
1
1
1
1
1
1
1
1
1.00001
1.00002
1.00003
1.00015
1.00019
1.00086
1.00104
1.00439
1.00559
1.02715
1.03139
1.22737
1.2509
2.33902
3.81599
6.69762
7.50075
7.552
7.48068
7.31807
7.1433
6.98969
6.85094
6.71707
6.58078
6.43826
6.28899
6.13365
5.97031
5.79853
5.60814
1
1
1
1
1
1
1
1
1
1
1
1
1
1
1
1
1
1
1
1
1.00001
1.00002
1.00005
1.00009
1.00025
1.0003
1.00207
1.00323
1.01061
1.01043
1.07812
1.0602
1.75194
1.799
4.34791
6.68196
7.31532
7.34985
7.28417
7.12836
6.95591
6.80786
6.67519
6.54611
6.41367
6.27531
6.13032
5.97591
5.81448
5.63512
1
1
1
1
1
1
1
1
1
1
1
1
1
1
1
1
1
1
1
1
1
1.00001
1.00001
1.00005
1.00008
1.00024
1.00034
1.00176
1.00275
1.00918
1.01645
1.06836
1.05188
1.77222
1.80988
4.39013
6.51967
7.09747
7.14641
7.09183
6.95253
6.80009
6.65815
6.52476
6.39597
6.26629
6.13109
5.98567
5.83352
5.66373
1
1
1
1
1
1
1
1
1
1
1
1
1
1
1
1
1
1
1
1
1
1.00001
1.00001
1.00003
1.00004
1.00018
1.00026
1.00093
1.00134
1.00516
1.00803
1.03301
1.04079
1.23709
1.24886
2.39388
3.88381
6.14293
6.86901
6.98544
6.94424
6.83635
6.68368
6.53903
6.40646
6.27645
6.14376
6.00782
5.86425
5.70029
1
1
1
1
1
1
1
1
1
1
1
1
1
1
1
1
1
1
1
1
1
1
1
1.00001
1.00003
1.00004
1.00016
1.00024
1.0009
1.00132
1.00485
1.00639
1.02918
1.03185
1.20683
1.1871
2.211
3.35901
5.76187
6.63551
6.81775
6.79018
6.70328
6.5663
6.43091
6.29946
6.17057
6.03992
5.90541
5.753
1
1
1
1
1
1
1
1
1
1
1
1
1
1
1
1
1
1
1
1
1
1
1
1
1.00001
1.00002
1.00007
1.0001
1.00037
1.00052
1.00201
1.0033
1.0111
1.01899
1.07232
1.0608
1.55547
1.57611
3.26787
5.31367
6.28472
6.57162
6.59125
6.55114
6.45477
6.32935
6.201
6.07212
5.94055
5.79217
1
1
1
1
1
1
1
1
1
1
1
1
1
1
1
1
1
1
1
1
1
1
1
1
1
1.00001
1.00002
1.00005
1.00008
1.0003
1.00042
1.00172
1.00207
1.00987
1.00969
1.06181
1.03826
1.43512
1.4445
2.79858
4.47589
5.77111
6.30098
6.44022
6.42097
6.35602
6.2446
6.12136
5.99158
5.84367
1
1
1
1
1
1
1
1
1
1
1
1
1
1
1
1
1
1
1
1
1
1
1
1
1
1
1.00001
1.00001
1.00002
1.00007
1.00011
1.00045
1.00044
1.00173
1.0051
1.00322
1.04659
1.10868
1.10579
1.69319
1.8903
3.4098
5.35514
6.06301
6.27569
6.27709
6.24096
6.15264
6.02931
5.88196
1
1
1
1
1
1
1
1
1
1
1
1
1
1
1
1
1
1
1
1
1
1
1
1
1
1
1
1
1.00001
1.00001
1.00005
1.0001
1.00019
1.00111
1.00088
1.00616
1.0068
1.03198
1.05332
1.19179
1.19627
2.01441
2.5346
4.63363
5.65308
6.03528
6.13241
6.11013
6.04411
5.90439
1
1
1
1
1
1
1
1
1
1
1
1
1
1
1
1
1
1
1
1
1
1
1
1
1
1
1
1
1
1
1.00002
1.00002
1.0001
1.00018
1.00056
1.00037
1.00144
1.00197
0.99801
1.04882
1.11543
1.10093
1.70844
1.92298
3.39437
5.07262
5.70594
5.92603
5.92619
5.87998
1
1
1
1
1
1
1
1
1
1
1
1
1
1
1
1
1
1
1
1
1
1
1
1
1
1
1
1
1
1
1.00001
1.00001
1.00003
1.00004
1.00015
1.00016
1.00073
1.00122
1.00403
1.01162
1.01388
1.05414
1.19375
1.1723
1.92495
2.3795
4.01968
5.13289
5.56493
5.67614
1
1
1
1
1
1
1
1
1
1
1
1
1
1
1
1
1
1
1
1
1
1
1
1
1
1
1
1
1
1
1
1
1.00001
1.00001
1.00005
1.00007
1.00028
1.00035
1.0015
1.00186
1.00819
1.0083
1.04769
1.06803
1.24817
1.25793
1.9573
2.67836
4.17882
4.92846
1
1
1
1
1
1
1
1
1
1
1
1
1
1
1
1
1
1
1
1
1
1
1
1
1
1
1
1
1
1
1
1
1
1
1.00001
1.00002
1.00003
1.00012
1.0002
1.00069
1.00041
1.00171
1.00277
0.998655
1.04968
1.1103
1.09387
1.49328
1.8695
2.51888
1
1
1
1
1
1
1
1
1
1
1
1
1
1
1
1
1
1
1
1
1
1
1
1
1
1
1
1
1
1
1
1
1
1
1
1
1.00001
1.00002
1.00003
1.0001
1.00026
1.00015
0.99972
1.00621
1.01521
1.00985
1.03038
1.05119
0.978266
1.65067
1
1
1
1
1
1
1
1
1
1
1
1
1
1
1
1
1
1
1
1
1
1
1
1
1
1
1
1
1
1
1
1
1
1
1
1
1
1.00001
1.00001
1.00002
1.00003
1.00007
0.999313
0.99826
0.997917
0.988712
0.991519
0.990375
0.956179
1.27127
1
1
1
1
1
1
1
1
1
1
1
1
1
1
1
1
1
1
1
1
1
1
1
1
1
1
1
1
1
1
1
1
1
1
1
1
1
1
1
1.00001
1.00002
1.00004
0.999789
0.999526
0.999517
0.997671
0.999363
1.00006
0.98835
1.11661
1
1
1
1
1
1
1
1
1
1
1
1
1
1
1
1
1
1
1
1
1
1
1
1
1
1
1
1
1
1
1
1
1
1
1
1
1
1
1
1
1.00001
1.00001
0.999939
0.999882
1.00004
0.999603
1.00074
1.00118
0.996396
1.05401
1
1
1
1
1
1
1
1
1
1
1
1
1
1
1
1
1
1
1
1
1
1
1
1
1
1
1
1
1
1
1
1
1
1
1
1
1
1
1
1
1
1.00001
0.999947
0.999869
0.999884
0.999347
0.999721
0.999832
0.997261
1.02724
1
1
1
1
1
1
1
1
1
1
1
1
1
1
1
1
1
1
1
1
1
1
1
1
1
1
1
1
1
1
1
1
1
1
1
1
1
1
1
0.999998
0.999998
0.999988
0.99998
0.999936
0.999934
0.999691
0.999888
0.999967
0.99871
1.01365
1
1
1
1
1
1
1
1
1
1
1
1
1
1
1
1
1
1
1
1
1
1
1
1
1
1
1
1
1
1
1
1
1
1
1
1
1
1
1
1
1
1
0.999986
0.999968
0.999966
0.999843
0.999934
0.999964
0.999395
1.00663
1
1
1
1
1
1
1
1
1
1
1
1
1
1
1
1
1
1
1
1
1
1
1
1
1
1
1
1
1
1
1
1
1
1
1
1
1
1
1
1
1
1
0.999994
0.999985
0.999987
0.999927
0.999975
0.999993
0.999695
1.00327
1
1
1
1
1
1
1
1
1
1
1
1
1
1
1
1
1
1
1
1
1
1
1
1
1
1
1
1
1
1
1
1
1
1
1
1
1
1
1
1
1
1
1
1.00001
1.00001
1.00005
1.00005
1.00027
1.00039
1.00042
1
1
1
1
1
1
1
1
1
1
1
1
1
1
1
1
1
1
1
1
1
1
1
1
1
1
1
1
1
1
1
1
1
1
1
1
1
1
1
1
1
1
1
1
1
1.00003
1.00002
1.00014
1.0002
1.00022
1
1
1
1
1
1
1
1
1
1
1
1
1
1
1
1
1
1
1
1
1
1
1
1
1
1
1
1
1
1
1
1
1
1
1
1
1
1
1
1
1
1
1
0.999999
0.999999
0.999996
1
1.00001
0.999974
1.00038
1
1
1
1
1
1
1
1
1
1
1
1
1
1
1
1
1
1
1
1
1
1
1
1
1
1
1
1
1
1
1
1
1
1
1
1
1
1
1
1
1
1
1
1
1
1
1.00002
1.00004
1.00006
1.00007
2.00395
1.00185
0.665832
0.565348
0.579591
0.632989
0.755386
0.981986
1.10731
1.14145
1.14083
1.14108
1.14416
1.15338
1.1731
1.19694
1.21331
1.22089
1.22409
1.22528
1.22629
1.22708
1.22723
1.22715
1.22679
1.22581
1.22364
1.21938
1.21476
1.21024
1.20589
1.20168
1.19758
1.19352
1.18948
1.1855
1.18162
1.17773
1.1739
1.17011
1.16637
1.16257
1.1587
1.15473
1.15067
1.14648
1.14261
1.14021
1.14084
1.14317
1.14925
1.16304
1.19324
1.25758
1.39077
1.66042
2.16375
2.88683
3.64038
4.24408
4.46849
4.44598
4.37382
4.27255
4.14522
4.06198
4.0479
4.03557
4.0099
3.96598
3.90834
3.82682
3.71753
3.6143
3.53
3.45469
3.39181
3.34003
3.29703
3.25768
3.21669
3.17101
3.11949
3.06245
3.00288
2.94394
2.88775
2.83399
2.7831
2.73498
2.68974
2.64683
2.60627
2.56719
2.52992
2.49342
2.45855
2.42451
2.3954
2.3711
2.65605
1.59763
1.16853
1.00717
0.957184
0.94376
0.924469
0.933763
0.960237
1.01533
1.09434
1.16052
1.19071
1.19475
1.19538
1.19713
1.2011
1.20906
1.21805
1.2248
1.22918
1.23018
1.23002
1.22943
1.22809
1.22537
1.22224
1.21874
1.21487
1.21076
1.20652
1.20223
1.19799
1.19383
1.18974
1.18574
1.18184
1.17802
1.17418
1.17039
1.16667
1.16289
1.15898
1.155
1.15099
1.14707
1.14362
1.14401
1.14546
1.14948
1.15984
1.18377
1.23625
1.34321
1.55485
1.89339
2.24817
2.55837
2.86651
3.21435
3.64108
4.05752
4.38141
4.46525
4.43769
4.35519
4.17235
3.99447
3.85265
3.74863
3.68699
3.66255
3.65744
3.64407
3.61758
3.57424
3.5071
3.42493
3.3378
3.25531
3.17878
3.11072
3.05221
3.00255
2.9586
2.91688
2.87516
2.83328
2.79109
2.74835
2.70558
2.66255
2.61988
2.57768
2.53635
2.49572
2.4574
2.41891
2.39016
2.35857
3.50704
2.55193
1.94363
1.53922
1.26679
1.08407
0.959616
0.933704
0.940688
0.962907
1.01092
1.07749
1.13221
1.17466
1.19565
1.20514
1.20973
1.21356
1.21742
1.22131
1.22419
1.2254
1.22536
1.2251
1.22438
1.22283
1.22029
1.21741
1.21408
1.21033
1.20631
1.20213
1.19787
1.19373
1.1897
1.18579
1.18196
1.17823
1.17447
1.1708
1.16703
1.1632
1.15933
1.1554
1.15185
1.14907
1.14946
1.15124
1.15621
1.16848
1.19616
1.25649
1.37946
1.60459
1.96647
2.21415
2.33999
2.43673
2.53884
2.66572
2.83488
3.05836
3.3575
3.73014
4.06988
4.31561
4.29521
4.24871
4.17374
4.0178
3.849
3.70881
3.60648
3.52964
3.47478
3.43706
3.40888
3.37671
3.33297
3.27631
3.21522
3.15376
3.0948
3.03846
2.98458
2.93351
2.88504
2.83876
2.79411
2.75023
2.70662
2.66306
2.61985
2.57717
2.53563
2.49475
2.45644
2.41764
2.3892
2.3561
3.96922
3.13282
2.47727
1.98566
1.63821
1.39787
1.24174
1.12851
1.0586
1.03198
1.03457
1.04566
1.07099
1.11263
1.1512
1.18678
1.20916
1.22135
1.22519
1.22604
1.22598
1.22576
1.22524
1.22451
1.22357
1.22228
1.22047
1.21807
1.21509
1.21166
1.20784
1.20383
1.19973
1.19559
1.19152
1.18754
1.18364
1.17982
1.17602
1.1722
1.16835
1.16446
1.16059
1.1571
1.15537
1.15587
1.15809
1.16442
1.18011
1.21568
1.29014
1.43999
1.71381
2.10017
2.27332
2.35404
2.38517
2.39925
2.40875
2.42982
2.47398
2.55106
2.65731
2.81018
3.01691
3.30467
3.63772
3.94438
4.1495
4.12123
4.04646
3.96045
3.80406
3.6333
3.50017
3.39757
3.32288
3.27226
3.23876
3.21055
3.18165
3.14594
3.101
3.05009
2.99638
2.94219
2.88898
2.83745
2.7877
2.74004
2.69461
2.65106
2.60916
2.5682
2.52855
2.48916
2.45218
2.41413
2.38511
2.35384
4.27382
3.54469
2.92011
2.40914
2.01831
1.72345
1.50447
1.34003
1.21632
1.12488
1.07679
1.06461
1.06718
1.07629
1.09672
1.12762
1.15558
1.1852
1.2056
1.2182
1.22353
1.22391
1.22361
1.22274
1.22089
1.21881
1.21665
1.21434
1.21189
1.20921
1.20627
1.20313
1.19961
1.1959
1.19209
1.18823
1.18435
1.18049
1.17663
1.17274
1.16885
1.16505
1.1616
1.16119
1.16195
1.16484
1.17309
1.19264
1.23716
1.32898
1.50932
1.86041
2.2086
2.34871
2.39997
2.41305
2.40573
2.38852
2.35449
2.33228
2.32374
2.32921
2.34719
2.38827
2.46202
2.5693
2.72335
2.9363
3.22549
3.542
3.832
3.98679
3.95893
3.87897
3.79285
3.63858
3.48416
3.35231
3.25009
3.17348
3.11357
3.06776
3.02998
2.99621
2.96262
2.92586
2.88414
2.83885
2.79281
2.74703
2.70225
2.65821
2.61541
2.5733
2.5329
2.4929
2.45558
2.41729
2.38701
2.35635
4.50054
3.86365
3.2936
2.79354
2.38258
2.05305
1.79565
1.59512
1.43992
1.32342
1.22627
1.15922
1.118
1.09941
1.10045
1.10557
1.11787
1.14029
1.1629
1.1875
1.20627
1.21868
1.2236
1.22354
1.22301
1.22157
1.21857
1.21544
1.21265
1.20977
1.2071
1.20455
1.2017
1.1985
1.19508
1.19144
1.18761
1.18365
1.1796
1.1755
1.17164
1.16811
1.16844
1.16988
1.17401
1.18463
1.21004
1.26607
1.38262
1.59602
2.02272
2.29383
2.41756
2.45393
2.45288
2.43889
2.41034
2.37107
2.32942
2.28907
2.25448
2.22989
2.21253
2.21043
2.21729
2.23825
2.28561
2.36305
2.47353
2.62666
2.84429
3.12118
3.41833
3.69105
3.80727
3.77803
3.69433
3.61122
3.46469
3.31458
3.18713
3.0884
3.01372
2.95324
2.90514
2.8656
2.83165
2.80006
2.76782
2.73295
2.69471
2.65418
2.61325
2.57212
2.5321
2.49197
2.45414
2.41548
2.38399
2.35282
4.67647
4.1184
3.60258
3.12668
2.7136
2.36624
2.08198
1.85077
1.66413
1.51276
1.39081
1.29093
1.21148
1.15988
1.12947
1.11441
1.11501
1.11844
1.127
1.14416
1.16237
1.18232
1.19921
1.21027
1.21658
1.21693
1.21658
1.21546
1.21303
1.20961
1.20656
1.20371
1.20083
1.19799
1.19505
1.19189
1.18847
1.18473
1.18076
1.17698
1.17381
1.17418
1.17609
1.18172
1.19566
1.22809
1.29753
1.43976
1.72318
2.18439
2.38543
2.47517
2.50239
2.49774
2.47831
2.43977
2.39993
2.35529
2.30924
2.26471
2.22268
2.18388
2.15146
2.12611
2.1074
2.09571
2.09839
2.10849
2.13217
2.18113
2.25882
2.36536
2.51448
2.71397
2.9802
3.26035
3.51785
3.62777
3.59847
3.51344
3.43686
3.30775
3.16769
3.04492
2.95086
2.87604
2.81765
2.76786
2.72625
2.68906
2.6563
2.62485
2.59335
2.55959
2.52422
2.48706
2.45112
2.41401
2.38321
2.35316
4.81808
4.32319
3.85638
3.41037
3.0062
2.65343
2.35319
2.10109
1.8914
1.71726
1.57403
1.45451
1.35904
1.27565
1.21256
1.16791
1.14064
1.1252
1.12537
1.12762
1.13365
1.14613
1.16256
1.17983
1.19559
1.20583
1.21303
1.2138
1.21352
1.21258
1.21049
1.20697
1.20372
1.20046
1.19716
1.19388
1.19058
1.18696
1.18362
1.18172
1.18227
1.18472
1.19193
1.20991
1.25103
1.33833
1.51551
1.87191
2.30024
2.47067
2.52864
2.54622
2.53823
2.51557
2.47348
2.42874
2.38182
2.33433
2.2875
2.24293
2.20038
2.16027
2.12243
2.08753
2.05676
2.03019
2.01012
1.99381
1.98488
1.98783
1.99841
2.02157
2.06781
2.13725
2.23699
2.36951
2.5624
2.79757
3.08455
3.32631
3.4375
3.41028
3.33143
3.26489
3.15303
3.026
2.90909
2.8161
2.7438
2.68468
2.63512
2.59138
2.55361
2.51923
2.48878
2.45906
2.43062
2.39995
2.37302
2.34688
4.93369
4.48928
4.06492
3.64922
3.26016
2.90993
2.60258
2.33744
2.11125
1.91913
1.75695
1.61942
1.50359
1.40534
1.32274
1.25208
1.20154
1.16515
1.14307
1.12951
1.12961
1.13122
1.13586
1.14558
1.15973
1.17465
1.18893
1.199
1.206
1.2079
1.20775
1.20704
1.20536
1.20192
1.1983
1.19439
1.19068
1.18672
1.18625
1.18712
1.19043
1.19966
1.22232
1.27334
1.38112
1.59792
2.03354
2.37999
2.53582
2.57972
2.58517
2.57455
2.54818
2.50425
2.45503
2.4063
2.35767
2.31053
2.26502
2.22191
2.18073
2.14137
2.10347
2.06705
2.03226
1.99929
1.96859
1.94034
1.91602
1.89728
1.88243
1.87351
1.87595
1.88478
1.90434
1.94448
2.00899
2.09777
2.2269
2.40126
2.63476
2.90646
3.14188
3.26035
3.23551
3.16591
3.10912
3.01103
2.89946
2.7889
2.69661
2.62423
2.56579
2.51622
2.47394
2.43506
2.402
2.36942
2.34358
2.32457
5.02703
4.62236
4.23471
3.84822
3.47785
3.13603
2.82842
2.55677
2.31982
2.11466
1.93801
1.78615
1.65588
1.54425
1.44838
1.36765
1.29701
1.23789
1.19461
1.16281
1.14333
1.13086
1.13093
1.13219
1.13597
1.14402
1.15698
1.17082
1.18443
1.19425
1.20146
1.20351
1.20336
1.20267
1.201
1.19755
1.19312
1.19207
1.19307
1.19706
1.20833
1.23627
1.29891
1.43045
1.69499
2.20851
2.46789
2.58709
2.62497
2.62315
2.60847
2.57831
2.5308
2.47917
2.42815
2.37904
2.33134
2.28583
2.24221
2.20087
2.16113
2.12287
2.08561
2.04939
2.01405
1.97968
1.94634
1.91414
1.88354
1.8545
1.82805
1.80478
1.78687
1.77279
1.76286
1.76452
1.77166
1.78824
1.82336
1.88134
1.96539
2.07799
2.24671
2.44548
2.7113
2.92978
3.08064
3.05406
3.00202
2.95518
2.87748
2.78097
2.68148
2.58867
2.51623
2.45642
2.40942
2.36611
2.33267
2.30259
5.10198
4.72607
4.36878
4.00945
3.65916
3.32962
3.02714
2.75481
2.51259
2.29929
2.11235
1.94934
1.80731
1.6837
1.57619
1.48272
1.40136
1.33128
1.27031
1.22069
1.18396
1.15698
1.14029
1.13011
1.13023
1.13138
1.13476
1.14188
1.15359
1.16625
1.1783
1.18779
1.19358
1.19625
1.19624
1.19607
1.19633
1.19777
1.20255
1.21573
1.24905
1.32367
1.48346
1.81248
2.3564
2.56448
2.6409
2.66729
2.66218
2.64312
2.60626
2.55657
2.5021
2.4496
2.39923
2.35143
2.30536
2.2616
2.21965
2.17969
2.14102
2.10355
2.06687
2.03103
1.99589
1.96147
1.92775
1.89472
1.86256
1.83123
1.80115
1.77227
1.74525
1.72001
1.69782
1.6801
1.66666
1.6564
1.6572
1.66253
1.67616
1.70513
1.75754
1.82769
1.93028
2.06967
2.25628
2.48968
2.71644
2.88813
2.87804
2.85335
2.80691
2.74328
2.66624
2.57767
2.49431
2.41676
2.36535
2.3151
5.15334
4.80637
4.47456
4.13878
3.80845
3.49312
3.19907
2.93019
2.68712
2.46993
2.27668
2.10586
1.95504
1.82218
1.70522
1.60235
1.51182
1.43243
1.36288
1.30223
1.24924
1.20708
1.17541
1.15205
1.13771
1.12911
1.12923
1.13019
1.13309
1.13928
1.1496
1.16081
1.17146
1.1808
1.18602
1.19035
1.19445
1.20299
1.22198
1.26364
1.35386
1.54289
1.93342
2.45225
2.64627
2.69942
2.70951
2.7011
2.67722
2.63657
2.58522
2.52924
2.47369
2.42139
2.37193
2.3255
2.28093
2.23852
2.19766
2.15845
2.12028
2.08312
2.04671
2.01114
1.97626
1.94215
1.90867
1.87583
1.84363
1.81202
1.7812
1.751
1.72181
1.69346
1.66656
1.6409
1.6174
1.59588
1.5788
1.56566
1.55616
1.55444
1.55814
1.56895
1.59173
1.63389
1.69596
1.77852
1.90496
2.05367
2.2778
2.49131
2.67715
2.72327
2.70529
2.65868
2.61327
2.55139
2.49704
2.40318
5.18939
4.86481
4.55771
4.244
3.93196
3.63208
3.34885
3.08599
2.84505
2.62679
2.43027
2.25437
2.0973
1.95742
1.83293
1.72225
1.62381
1.53643
1.45896
1.39025
1.3302
1.27716
1.23056
1.19465
1.16752
1.14764
1.13514
1.12767
1.12704
1.12772
1.12993
1.13484
1.14413
1.15458
1.16535
1.17754
1.19047
1.21553
1.26699
1.37323
1.59209
2.04471
2.52146
2.70867
2.75011
2.74952
2.73804
2.7111
2.66818
2.61624
2.55777
2.49931
2.44424
2.39374
2.34641
2.30162
2.2583
2.21668
2.17627
2.13719
2.09902
2.06182
2.02545
1.99
1.95536
1.92155
1.88839
1.85592
1.82402
1.79269
1.76196
1.73174
1.70225
1.67327
1.64523
1.61782
1.59165
1.5664
1.54282
1.52063
1.50074
1.48374
1.47126
1.46189
1.4574
1.45996
1.46794
1.48427
1.51624
1.56635
1.63784
1.73739
1.87027
2.05217
2.26846
2.4455
2.5623
2.5564
2.54113
2.5127
5.22024
4.91264
4.62481
4.33362
4.04157
3.75548
3.48173
3.22576
2.98885
2.77158
2.57385
2.39497
2.23358
2.08847
1.95813
1.84118
1.7363
1.64235
1.55831
1.48306
1.41623
1.3563
1.30461
1.25762
1.2175
1.18569
1.16143
1.14351
1.13203
1.12476
1.12458
1.12558
1.12865
1.13534
1.14881
1.16865
1.19769
1.25612
1.37446
1.61415
2.10671
2.57105
2.74525
2.78333
2.78107
2.76912
2.74166
2.69383
2.63869
2.58003
2.52141
2.46617
2.41515
2.36796
2.3229
2.27939
2.23677
2.19534
2.15491
2.11558
2.0772
2.03981
2.00342
1.96801
1.93354
1.8999
1.86701
1.8348
1.80319
1.77218
1.74173
1.71182
1.68251
1.65373
1.62567
1.59813
1.57152
1.54544
1.52051
1.49621
1.4733
1.4513
1.43105
1.4122
1.39579
1.38307
1.37374
1.36716
1.36828
1.37306
1.3837
1.40597
1.4462
1.50254
1.58228
1.69111
1.83012
2.04827
2.19949
2.43687
5.25071
4.95642
4.68582
4.41177
4.1364
3.86511
3.60359
3.35508
3.12236
2.90707
2.70932
2.5288
2.36444
2.21545
2.08051
1.95858
1.84839
1.74899
1.65934
1.57847
1.50577
1.44017
1.3816
1.32885
1.28221
1.24042
1.20529
1.17721
1.15454
1.13948
1.12651
1.12663
1.12833
1.1339
1.14748
1.1772
1.23832
1.36273
1.60909
2.11036
2.57584
2.75889
2.79648
2.79576
2.78706
2.76222
2.7091
2.64669
2.58805
2.53284
2.48083
2.43215
2.38628
2.34234
2.29914
2.25652
2.21429
2.17294
2.13245
2.09301
2.05455
2.01712
1.98077
1.94538
1.91101
1.87744
1.8447
1.81262
1.78125
1.75046
1.72032
1.69075
1.66181
1.63343
1.60573
1.57857
1.5522
1.5263
1.50132
1.47676
1.45325
1.43016
1.40827
1.38689
1.36697
1.34777
1.33046
1.31426
1.30142
1.2912
1.28442
1.28184
1.28423
1.29148
1.30609
1.33369
1.37574
1.44288
1.52883
1.71526
5.28599
5.00301
4.74429
4.48537
4.22471
3.96677
3.71582
3.47505
3.2474
3.03485
2.83796
2.65673
2.49051
2.33868
2.20024
2.07436
1.95973
1.85582
1.7613
1.67555
1.59781
1.52708
1.46313
1.40517
1.35261