/*--------------------------------*- C++ -*----------------------------------*\
| =========                 |                                                 |
| \\      /  F ield         | OpenFOAM: The Open Source CFD Toolbox           |
|  \\    /   O peration     | Version:  2112                                  |
|   \\  /    A nd           | Website:  www.openfoam.com                      |
|    \\/     M anipulation  |                                                 |
\*---------------------------------------------------------------------------*/
FoamFile
{
    version     2.0;
    format      ascii;
    arch        "LSB;label=32;scalar=64";
    class       surfaceScalarField;
    location    "1.5";
    object      phi;
}
// * * * * * * * * * * * * * * * * * * * * * * * * * * * * * * * * * * * * * //

dimensions      [1 0 -1 0 0 0 0];

oriented        oriented;

internalField   nonuniform List<scalar> 
13790
(
0.00290515
5.6747e-09
0.00290514
2.85282e-09
0.00290514
1.0839e-09
0.00290514
1.50893e-10
0.00290514
5.46427e-10
0.00290514
8.28373e-10
0.00290514
1.08664e-09
0.00290514
1.29251e-09
0.00290514
1.44134e-09
0.00290514
1.37063e-09
0.00290514
1.2972e-09
0.00290513
3.09798e-09
0.00290511
1.84037e-08
0.00290503
4.78131e-08
0.00290492
1.51556e-07
0.00290409
3.53868e-07
0.00290399
6.94958e-07
0.00289157
2.36448e-06
0.00290026
1.29657e-06
0.00279747
1.22168e-07
0.00289596
4.31777e-06
0.0028289
1.82916e-05
0.00255086
0.000190867
0.00243634
0.000138389
0.00234061
0.000115999
0.00224966
0.000102765
0.00217141
8.77488e-05
0.00209715
8.01189e-05
0.0020115
8.59943e-05
0.00192103
8.99367e-05
0.0018321
9.048e-05
0.00174345
9.08577e-05
0.0016512
9.15994e-05
0.00155696
9.18385e-05
0.00146594
9.13355e-05
0.00137785
9.00636e-05
0.00128845
8.74546e-05
0.00119926
8.33262e-05
0.00111679
7.89257e-05
0.00104114
7.59542e-05
0.000965349
7.52581e-05
0.000884962
7.76004e-05
0.000800282
8.33968e-05
0.000709036
9.25954e-05
0.000608107
0.000103797
0.000496517
0.000113358
0.000376923
0.000119357
0.000257473
0.000119912
0.000134919
0.000123506
0.000132865
0.00301309
6.48284e-09
0.00301309
4.74012e-09
0.00301309
3.36752e-09
0.00301309
2.40103e-09
0.00301308
2.30338e-09
0.00301308
2.35942e-09
0.00301308
2.4188e-09
0.00301308
2.45405e-09
0.00301308
2.48598e-09
0.00301308
2.37717e-09
0.00301308
2.15956e-09
0.00301308
4.86097e-09
0.00301307
2.13591e-08
0.00301307
5.34845e-08
0.0030129
1.67549e-07
0.00301302
4.18499e-07
0.00301229
7.11289e-07
0.0030185
1.83062e-06
0.00300863
2.58834e-06
0.00311654
-8.08718e-06
0.00298638
2.11746e-05
0.00295537
3.35307e-05
0.0027279
0.000312012
0.00260276
0.000287735
0.0024862
0.000255274
0.00238072
0.000220581
0.00228733
0.000190431
0.00219813
0.000173202
0.00209991
0.000182874
0.00199979
0.000188793
0.00190304
0.000188356
0.00180797
0.000187647
0.00171119
0.000187278
0.00161475
0.00018571
0.00152375
0.000182762
0.00143713
0.000178705
0.00134951
0.000173019
0.0012611
0.000165956
0.00117704
0.000159815
0.00109645
0.000157398
0.00101165
0.000159784
0.000919252
0.000166984
0.000822014
0.000179166
0.000719689
0.00019629
0.000610899
0.000215473
0.000494281
0.000231657
0.000372061
0.00024128
0.0002486
0.000243903
0.000124107
0.000248939
0.000254423
0.00312505
6.80171e-09
0.00312504
6.04054e-09
0.00312504
5.31463e-09
0.00312504
4.56161e-09
0.00312504
4.17348e-09
0.00312504
3.91737e-09
0.00312503
3.67931e-09
0.00312503
3.42829e-09
0.00312503
3.14247e-09
0.00312503
2.48411e-09
0.00312503
2.87888e-09
0.00312503
4.69359e-09
0.00312502
1.96225e-08
0.00312502
5.00813e-08
0.00312507
1.56013e-07
0.0031251
3.17172e-07
0.00312526
7.78703e-07
0.00311766
1.55232e-06
0.00312828
1.40194e-06
0.0030242
-2.22622e-06
0.00311595
2.51174e-05
0.00306258
4.85959e-05
0.00286947
0.000406166
0.00273373
0.000447248
0.00260071
0.0004108
0.00249082
0.000343526
0.00239247
0.000297323
0.00229431
0.000273237
0.00219011
0.000285056
0.00208729
0.000290711
0.00198767
0.000289226
0.0018888
0.000287637
0.00178831
0.000286052
0.00168893
0.000282691
0.00159512
0.000277478
0.00150494
0.000270767
0.00141311
0.000262208
0.00132027
0.000252674
0.00123152
0.000245525
0.00114555
0.000244461
0.00105443
0.000250653
0.000954936
0.000263386
0.000850343
0.000282371
0.000741008
0.000307107
0.000625988
0.000333425
0.000504204
0.000354954
0.000377301
0.000367728
0.000250783
0.000370909
0.000124399
0.000376223
0.000375886
0.00324116
6.61991e-09
0.00324116
6.42458e-09
0.00324116
6.28528e-09
0.00324115
6.17565e-09
0.00324115
5.76425e-09
0.00324115
5.35891e-09
0.00324115
4.93423e-09
0.00324115
4.45207e-09
0.00324115
3.89754e-09
0.00324114
2.87213e-09
0.00324115
4.29591e-09
0.00324115
3.55691e-09
0.00324115
7.59508e-09
0.00324121
1.43128e-08
0.00324119
7.0502e-08
0.00324071
1.25636e-07
0.00324041
4.59337e-07
0.00324928
2.57212e-07
0.00323779
2.87687e-06
0.00334218
-5.7928e-06
0.00322113
3.45582e-05
0.00318844
5.71056e-05
0.0030713
0.000422459
0.00291391
0.000617784
0.00273443
0.000609948
0.00261596
0.000475516
0.00250888
0.000411626
0.00240187
0.000380645
0.00229161
0.000393314
0.00218505
0.000396648
0.00208157
0.000393812
0.0019788
0.000391009
0.00187485
0.000387864
0.00177254
0.00038258
0.00167581
0.00037528
0.00158195
0.000366468
0.00148524
0.000355927
0.00138654
0.000345004
0.00129118
0.000337965
0.00119786
0.000339154
0.00109885
0.000349483
0.000991608
0.000367434
0.000880089
0.000392538
0.000764796
0.000423959
0.0006448
0.000456322
0.000518636
0.000482616
0.00038816
0.000497813
0.000257436
0.000502222
0.000127463
0.000507039
0.000500012
0.00336158
6.36918e-09
0.00336158
6.49421e-09
0.00336158
6.74239e-09
0.00336158
7.20137e-09
0.00336158
6.9247e-09
0.00336158
6.57861e-09
0.00336158
6.13959e-09
0.00336158
5.58238e-09
0.00336157
4.90979e-09
0.00336157
3.80183e-09
0.00336157
4.95516e-09
0.00336157
5.54315e-09
0.00336157
1.42375e-08
0.00336158
2.95531e-08
0.0033615
9.49705e-08
0.00336161
6.06098e-08
0.00336042
7.88492e-07
0.00335125
5.99461e-07
0.00336031
3.69357e-06
0.0032586
5.9436e-06
0.00335086
2.50372e-05
0.0033078
6.23379e-05
0.00330644
0.000333368
0.00307679
0.000834618
0.00285896
0.000841348
0.00274859
0.000597681
0.00263366
0.000531426
0.00252096
0.000494458
0.00240878
0.000504162
0.00229939
0.000505383
0.00219214
0.000501672
0.00208574
0.00049742
0.00197864
0.000492446
0.00187352
0.000485243
0.00177393
0.000476162
0.00167639
0.000465939
0.00157462
0.000454445
0.00146964
0.000443371
0.00136709
0.000437765
0.00126544
0.000442417
0.00115709
0.000457519
0.00104045
0.000480755
0.000920324
0.000511451
0.000797251
0.000548741
0.000670505
0.000586077
0.000538188
0.000616382
0.000401816
0.000633493
0.000266866
0.00063746
0.000132396
0.000642129
0.000628685
0.00348648
6.06703e-09
0.00348648
6.28742e-09
0.00348648
6.71483e-09
0.00348648
7.47088e-09
0.00348648
7.5047e-09
0.00348648
7.37263e-09
0.00348648
7.08129e-09
0.00348648
6.60987e-09
0.00348648
5.98974e-09
0.00348647
4.98985e-09
0.00348647
5.93662e-09
0.00348647
8.45605e-09
0.00348648
2.21269e-08
0.00348646
4.74195e-08
0.00348622
1.366e-07
0.00348566
4.21049e-07
0.00348015
5.11974e-07
0.00349677
1.04192e-06
0.00347669
3.03947e-06
0.00356029
-2.67627e-06
0.00348566
3.22548e-05
0.00344956
6.73877e-05
0.00344034
0.000293932
0.00317891
0.00103077
0.00303041
0.000983687
0.00289488
0.000752549
0.00277091
0.000661349
0.00265483
0.000613706
0.00254193
0.00061606
0.00242955
0.000616726
0.00231846
0.000612517
0.00220887
0.000606357
0.00209925
0.000599413
0.00199176
0.000590521
0.00188932
0.000580142
0.00178788
0.000569387
0.0016806
0.000558271
0.00156841
0.000548577
0.00145745
0.000545788
0.00134673
0.000555025
0.00122844
0.000575832
0.00110117
0.000604613
0.000970774
0.00064038
0.00083834
0.000682688
0.000703001
0.000724216
0.000563433
0.000756899
0.000420812
0.000775008
0.000279203
0.000779409
0.000138518
0.000783302
0.000762914
0.00361602
5.77023e-09
0.00361602
5.97465e-09
0.00361602
6.53021e-09
0.00361602
7.37708e-09
0.00361602
7.77541e-09
0.00361602
7.88896e-09
0.00361602
7.7842e-09
0.00361602
7.4834e-09
0.00361602
7.01174e-09
0.00361602
6.19868e-09
0.00361602
6.8226e-09
0.00361602
7.80453e-09
0.00361603
1.19243e-08
0.00361604
2.34414e-08
0.003616
6.75317e-08
0.00361625
1.34868e-07
0.00361408
4.41847e-07
0.00360494
1.23444e-06
0.00361391
2.72158e-06
0.00351809
3.7867e-06
0.00359277
3.07754e-05
0.00359462
6.17142e-05
0.00352136
0.000314965
0.00328372
0.00119196
0.00317747
0.0010902
0.003046
0.000896428
0.00292184
0.000790852
0.00280403
0.000734673
0.00269017
0.000728858
0.00257465
0.000730103
0.00246076
0.000725241
0.00234951
0.000716992
0.00223842
0.000708391
0.00212875
0.000698227
0.00202327
0.000687324
0.00191747
0.000677276
0.00180386
0.000668051
0.0016837
0.000661328
0.00156368
0.000663042
0.00144252
0.000678344
0.0013125
0.000705529
0.00117328
0.000739912
0.00103153
0.000780594
0.000888692
0.00082724
0.000743731
0.000872263
0.000594956
0.000907022
0.000443892
0.000925092
0.000294447
0.000928809
0.000146529
0.000931411
0.000904781
0.00375038
5.4729e-09
0.00375038
5.58043e-09
0.00375038
6.25677e-09
0.00375038
6.96782e-09
0.00375038
7.87616e-09
0.00375038
8.05813e-09
0.00375038
8.08853e-09
0.00375038
7.92309e-09
0.00375038
7.57825e-09
0.00375037
6.89182e-09
0.00375037
7.79934e-09
0.00375037
9.37352e-09
0.00375036
1.94604e-08
0.00375032
3.86086e-08
0.00375048
9.68611e-08
0.00375004
1.78158e-07
0.00375294
4.26057e-07
0.00375182
-3.24253e-07
0.0037452
4.98627e-06
0.00380788
3.17832e-06
0.00372549
3.53866e-05
0.00372404
7.17233e-05
0.0036616
0.000334439
0.00343144
0.00133499
0.00330175
0.00122061
0.00319526
0.00101076
0.00308165
0.000907305
0.00296612
0.000852702
0.00285254
0.000840136
0.00273411
0.000846024
0.00262002
0.000838228
0.00250855
0.000827878
0.00239683
0.000818062
0.00228583
0.000807637
0.00217747
0.000797627
0.00206682
0.00078997
0.00194613
0.000784682
0.00181657
0.00078303
0.00168569
0.000790746
0.00155322
0.000813074
0.00141121
0.000847689
0.00125912
0.000888247
0.00110461
0.000933599
0.000949419
0.000984123
0.000793328
0.00103129
0.000633236
0.00106804
0.000471572
0.00108526
0.000313309
0.00108698
0.000155546
0.00108917
0.0010546
0.00388972
5.13459e-09
0.00388972
5.20566e-09
0.00388972
5.87896e-09
0.00388972
6.54513e-09
0.00388972
7.58132e-09
0.00388972
7.9833e-09
0.00388972
8.16431e-09
0.00388972
8.13468e-09
0.00388972
7.922e-09
0.00388972
7.3552e-09
0.00388972
8.56672e-09
0.00388972
7.25629e-09
0.00388971
8.01908e-09
0.00388973
5.14688e-09
0.00388955
4.53698e-08
0.00388954
6.03495e-08
0.00388785
4.765e-07
0.00387615
5.34447e-07
0.00388717
3.78217e-06
0.00379452
6.16349e-06
0.00386942
3.47225e-05
0.00386401
7.05622e-05
0.00379837
0.000355383
0.00359028
0.00145733
0.00345937
0.00135482
0.0033608
0.00111596
0.00325829
0.00101052
0.00313803
0.000973843
0.00302413
0.000952048
0.0029124
0.00095482
0.00280041
0.000947942
0.00269016
0.000937319
0.00257977
0.000927868
0.00246817
0.000918897
0.00235654
0.000911645
0.00224009
0.000908709
0.00211066
0.000909977
0.00196957
0.000915693
0.00182556
0.000931168
0.0016793
0.000961752
0.00152299
0.00100418
0.00135618
0.00105067
0.00118735
0.00110007
0.00101889
0.00115361
0.000849481
0.00120311
0.000678803
0.00123905
0.000505465
0.00125674
0.000334481
0.00125721
0.000166637
0.00125598
0.00121561
0.00403424
4.75302e-09
0.00403424
4.84795e-09
0.00403424
5.42276e-09
0.00403425
6.12626e-09
0.00403425
7.01729e-09
0.00403425
7.76306e-09
0.00403425
8.0269e-09
0.00403425
8.14423e-09
0.00403425
8.09669e-09
0.00403425
7.75032e-09
0.00403425
8.68103e-09
0.00403425
4.79278e-09
0.00403425
-6.82997e-09
0.00403424
-2.79588e-08
0.00403438
-8.38088e-08
0.00403395
-1.97551e-07
0.00403515
-3.57353e-07
0.00402038
-1.20791e-06
0.00404008
2.36465e-06
0.00391479
3.13888e-06
0.00404002
3.39591e-05
0.00401697
7.92793e-05
0.00394925
0.000376213
0.00375698
0.00155634
0.00363764
0.0014808
0.00354756
0.00121527
0.00345422
0.00110505
0.00334739
0.00107956
0.00323449
0.00106253
0.00312547
0.00106069
0.00301735
0.00105506
0.00291062
0.00104632
0.00280127
0.00103935
0.00268635
0.00103418
0.00256733
0.00103226
0.00244097
0.00103667
0.00229911
0.00104711
0.00214295
0.00106237
0.00198274
0.00108706
0.00182025
0.00112666
0.0016478
0.00117697
0.00146478
0.00122893
0.0012806
0.00128147
0.00109775
0.00133716
0.000915472
0.00138757
0.000729435
0.00142568
0.000543402
0.00143952
0.000361041
0.00143833
0.00017976
0.00143689
0.00138853
0.00418414
4.35748e-09
0.00418414
4.46339e-09
0.00418414
4.95556e-09
0.00418414
5.64979e-09
0.00418414
6.41423e-09
0.00418414
7.25436e-09
0.00418414
7.69006e-09
0.00418414
7.99099e-09
0.00418414
8.13055e-09
0.00418414
8.03752e-09
0.00418414
7.93087e-09
0.00418414
4.13443e-09
0.00418411
-2.83014e-09
0.00418411
-1.75201e-08
0.00418386
-2.90269e-08
0.00418389
-7.05091e-08
0.0041828
-1.27612e-08
0.00418862
-7.46246e-07
0.00417328
3.13214e-06
0.00424279
2.7606e-06
0.00415681
3.73528e-05
0.00414819
7.79931e-05
0.0041022
0.00039402
0.00396321
0.00158564
0.00386719
0.00159036
0.00378696
0.00130856
0.00369897
0.00119761
0.00360224
0.00117595
0.00350152
0.00116382
0.00339771
0.0011646
0.0032911
0.00116222
0.00318243
0.00115767
0.00306722
0.00115635
0.00294165
0.00115848
0.00280807
0.00116524
0.00266489
0.00117969
0.00250514
0.00120092
0.00233075
0.0012266
0.00215242
0.0012608
0.00197247
0.00130879
0.00178354
0.00136651
0.00158358
0.0014234
0.00138295
0.00147847
0.0011849
0.00153569
0.000987508
0.00158745
0.000788663
0.00162487
0.000587969
0.00163924
0.00038999
0.00163441
0.000193971
0.0016305
0.00157461
0.0043396
3.95808e-09
0.0043396
4.03607e-09
0.0043396
4.49897e-09
0.0043396
5.09545e-09
0.0043396
5.83599e-09
0.0043396
6.53716e-09
0.0043396
7.17219e-09
0.0043396
7.5977e-09
0.0043396
7.9372e-09
0.0043396
7.69185e-09
0.0043396
6.51501e-09
0.00433961
1.07896e-09
0.0043396
1.94695e-09
0.00433957
-1.20026e-08
0.00433956
1.2836e-08
0.00433914
-5.05469e-08
0.00433937
1.90509e-07
0.00433235
-1.21056e-07
0.00433711
4.17378e-06
0.00426992
8.09533e-06
0.00432552
3.62563e-05
0.00430003
8.9596e-05
0.00428448
0.000377287
0.00425566
0.00149759
0.00420552
0.0016675
0.00412684
0.00141216
0.00403957
0.00129624
0.00394628
0.0012728
0.00384847
0.00126263
0.00373907
0.00127356
0.00362013
0.00128018
0.00349503
0.00128359
0.00336118
0.00129075
0.00321488
0.00130215
0.00305932
0.00131845
0.00289461
0.0013432
0.00271406
0.00137507
0.00251994
0.00141048
0.00232341
0.00145266
0.00212695
0.00150733
0.00192344
0.00157065
0.00170921
0.00163154
0.00149419
0.00168894
0.00128177
0.00174783
0.00107011
0.00180106
0.000855966
0.00183971
0.000636141
0.00185496
0.00042224
0.0018459
0.00021155
0.00183881
0.00177751
0.00450084
3.52951e-09
0.00450084
3.60902e-09
0.00450084
4.00212e-09
0.00450084
4.54744e-09
0.00450084
5.19578e-09
0.00450084
5.82415e-09
0.00450084
6.47472e-09
0.00450084
7.08318e-09
0.00450084
7.65746e-09
0.00450084
6.48287e-09
0.00450084
4.89631e-09
0.00450085
-5.19756e-09
0.00450084
-2.38156e-10
0.0045009
-5.71857e-08
0.00450075
-7.75641e-09
0.00450137
-3.54106e-07
0.00450093
-1.66561e-08
0.00450673
-2.39882e-06
0.00449701
4.61789e-06
0.00455113
8.32691e-06
0.00448784
3.58868e-05
0.00446694
8.70124e-05
0.00453469
0.000291144
0.00478313
0.0011262
0.00480605
0.00167259
0.00462155
0.001615
0.00447939
0.00144754
0.00435014
0.00140538
0.00422118
0.00139314
0.00408333
0.00141018
0.00393677
0.00142363
0.0037859
0.00143356
0.00362817
0.0014481
0.0034586
0.0014673
0.00328161
0.00149117
0.00309967
0.00152423
0.00290549
0.00156543
0.00269806
0.00160928
0.00248827
0.00165833
0.00227933
0.00171894
0.00206412
0.00178709
0.00183773
0.00185158
0.0016103
0.00191062
0.00138475
0.00197156
0.00115866
0.00202722
0.000929286
0.00206795
0.000697494
0.00208111
0.000464092
0.00207706
0.000229726
0.00207091
0.00199758
0.00466807
3.0831e-09
0.00466807
3.1639e-09
0.00466807
3.4849e-09
0.00466807
3.98195e-09
0.00466807
4.51781e-09
0.00466807
5.09738e-09
0.00466807
5.71563e-09
0.00466807
6.20297e-09
0.00466807
6.37256e-09
0.00466807
6.59005e-09
0.00466807
6.022e-09
0.00466805
7.50487e-09
0.00466804
1.18758e-08
0.00466793
3.28124e-08
0.00466776
7.69407e-08
0.00466726
1.90615e-07
0.00466631
4.1863e-07
0.00465618
1.10104e-06
0.00465777
4.24537e-06
0.00471101
5.66461e-06
0.00466387
2.86921e-05
0.0046548
6.9255e-05
0.00477055
0.00015808
0.00514869
0.000614241
0.00511288
0.00171727
0.00488495
0.0018355
0.00473719
0.00159307
0.00458966
0.00154954
0.00444545
0.00153471
0.00429735
0.00155415
0.00414033
0.00157399
0.0039801
0.00159123
0.00381509
0.0016129
0.00363843
0.00163933
0.00345463
0.00167073
0.00326679
0.00171216
0.00306775
0.0017616
0.00285643
0.00181336
0.00264279
0.00186902
0.00242898
0.00193548
0.00220828
0.0020095
0.00197328
0.00207958
0.00173547
0.00214123
0.00149898
0.00220505
0.00126035
0.00226514
0.00101619
0.00231168
0.000761068
0.00233262
0.000508075
0.00232527
0.000255632
0.00231911
0.00224375
0.00484151
2.62153e-09
0.00484151
2.69519e-09
0.00484151
2.95317e-09
0.00484151
3.39115e-09
0.00484151
3.81926e-09
0.00484151
4.34785e-09
0.00484151
4.88557e-09
0.00484151
5.49748e-09
0.00484151
4.96817e-09
0.00484151
5.31903e-09
0.00484152
2.26384e-09
0.00484152
4.53845e-09
0.00484154
-7.07869e-09
0.0048415
2.34963e-08
0.00484161
2.13848e-09
0.00484126
1.33382e-07
0.00484096
2.00093e-07
0.00483371
1.04195e-06
0.00483797
1.57279e-06
0.00492675
-4.32575e-06
0.00486409
2.19879e-05
0.0049083
4.23346e-06
0.00491164
0.000136007
0.00508643
0.000391853
0.00506895
0.00169488
0.00503598
0.00185135
0.00481849
0.0018092
0.00465762
0.00170524
0.00451244
0.00167566
0.00437806
0.00168419
0.00423132
0.00171481
0.00407813
0.00174131
0.00391937
0.00177046
0.00375004
0.00180403
0.00357445
0.00184328
0.00339528
0.00189323
0.00320491
0.00195194
0.00299838
0.00201262
0.0027869
0.00207507
0.00257451
0.00214793
0.00235477
0.00222911
0.00211846
0.0023087
0.00187337
0.00237731
0.0016282
0.00244686
0.00137781
0.00251423
0.00111919
0.0025693
0.000847378
0.002601
0.000568186
0.00260155
0.000283693
0.00260007
0.00251705
0.00502139
2.14865e-09
0.00502139
2.19632e-09
0.00502139
2.41712e-09
0.0050214
2.75932e-09
0.0050214
3.13608e-09
0.0050214
3.57518e-09
0.0050214
3.91457e-09
0.0050214
4.2356e-09
0.0050214
4.67705e-09
0.0050214
3.64849e-09
0.0050214
5.65443e-10
0.00502141
-3.00847e-09
0.00502143
-8.09004e-09
0.0050214
-2.11109e-08
0.00502166
-2.53829e-08
0.0050213
-4.82483e-08
0.00502085
-1.17333e-07
0.00502122
1.54409e-07
0.00501734
-1.03194e-06
0.00501532
-1.59213e-05
0.00499611
3.70013e-05
0.00527764
-0.000104283
0.00492765
0.000237225
0.0051891
0.000189658
0.00505143
0.00177311
0.00492958
0.00196101
0.00481412
0.00191921
0.00467696
0.00183836
0.00454229
0.00180809
0.00441473
0.00181153
0.00428125
0.00184622
0.00414105
0.00188065
0.00399317
0.00191744
0.00383422
0.00195817
0.00366966
0.00200485
0.00350251
0.00206256
0.00332571
0.00212962
0.0031311
0.0021996
0.002929
0.00226996
0.00272424
0.00235061
0.00251069
0.00244056
0.00228045
0.00253116
0.0020337
0.00261206
0.00178225
0.00269441
0.00152152
0.00277428
0.00124799
0.00284378
0.000954517
0.0028908
0.000643895
0.00290551
0.000326409
0.00291322
0.00283283
0.00520796
1.65602e-09
0.00520796
1.67986e-09
0.00520796
1.86759e-09
0.00520797
2.1208e-09
0.00520797
2.44712e-09
0.00520797
2.76999e-09
0.00520797
3.09811e-09
0.00520797
3.30998e-09
0.00520797
3.65559e-09
0.00520797
3.43385e-09
0.00520798
3.29817e-09
0.00520796
4.59021e-09
0.00520804
6.77826e-09
0.00520781
1.74585e-08
0.00520831
1.97164e-08
0.0052078
8.13275e-08
0.00520944
-1.5765e-07
0.0052082
1.96326e-07
0.00520073
-2.62222e-06
0.00519302
-5.06039e-07
0.00511347
9.78693e-06
0.00510128
4.39679e-06
0.00524577
8.57443e-05
0.00497703
0.000431672
0.0048466
0.00184913
0.00475866
0.00204551
0.00469761
0.0019782
0.00462799
0.00190549
0.00453005
0.00190381
0.00442393
0.00191547
0.00431034
0.00195614
0.00418877
0.00200155
0.00405838
0.00204713
0.00391608
0.0020958
0.00376708
0.00215076
0.00361453
0.00221662
0.00345279
0.00229181
0.00327307
0.00237175
0.00308249
0.00245252
0.00288877
0.00254218
0.00268519
0.00264242
0.00246435
0.00274474
0.00222504
0.00283939
0.00197553
0.00293778
0.00170836
0.00303814
0.00141993
0.00313252
0.00110357
0.00320534
0.000759097
0.0032445
0.000386248
0.00327999
0.00320615
0.00540147
1.14074e-09
0.00540147
1.15219e-09
0.00540147
1.31389e-09
0.00540147
1.48675e-09
0.00540147
1.77228e-09
0.00540147
1.9826e-09
0.00540147
2.31464e-09
0.00540147
2.38957e-09
0.00540147
2.78906e-09
0.00540147
3.61361e-09
0.00540147
8.7297e-09
0.00540146
1.61861e-08
0.00540141
4.97589e-08
0.00540135
9.07561e-08
0.00540106
2.85171e-07
0.00540083
4.21963e-07
0.00539894
1.45241e-06
0.00539704
1.92503e-06
0.00540132
6.45617e-06
0.0053842
7.00539e-06
0.00529426
9.72089e-06
0.00533452
4.7214e-05
0.00530554
0.000109306
0.00524485
0.000463663
0.00509451
0.0019265
0.00490681
0.00223533
0.00478999
0.00209759
0.00470048
0.00199513
0.0046015
0.00200182
0.00450191
0.00201503
0.00439211
0.00206513
0.00427781
0.00211712
0.00415671
0.00216885
0.00402644
0.00222247
0.0038915
0.00228338
0.00375297
0.00235543
0.0036071
0.00243742
0.00344722
0.00252667
0.00327211
0.00261754
0.00309248
0.00271903
0.00290291
0.00283059
0.00269584
0.00294761
0.00246404
0.00306058
0.00221936
0.00317447
0.00195596
0.00329522
0.00166511
0.00342353
0.00132458
0.00354185
0.000933459
0.0036294
0.000495571
0.00371252
0.0036897
0.00560216
6.02804e-10
0.00560216
6.61e-10
0.00560216
7.8857e-10
0.00560216
9.54519e-10
0.00560216
1.14628e-09
0.00560216
1.36296e-09
0.00560216
1.56242e-09
0.00560216
1.74641e-09
0.00560216
1.90547e-09
0.00560216
2.51946e-09
0.00560217
4.32092e-09
0.00560218
9.73924e-09
0.0056022
2.18958e-08
0.00560225
5.06946e-08
0.00560239
1.12553e-07
0.00560261
2.38153e-07
0.00560347
5.14819e-07
0.00560469
1.13164e-06
0.00561355
1.9941e-06
0.00560569
8.61689e-06
0.00568159
7.2035e-06
0.00559987
5.04914e-05
0.00561582
9.35766e-05
0.0056246
0.000426985
0.00587809
0.00158095
0.00566395
0.00245199
0.00540579
0.0023618
0.00520369
0.00220342
0.00503167
0.00217823
0.00486395
0.00218439
0.00470723
0.00222416
0.00455599
0.00227399
0.0044079
0.00232091
0.00425964
0.00237132
0.00411405
0.00242997
0.00397106
0.00250064
0.00382636
0.00258258
0.00367395
0.00267332
0.00351395
0.00276718
0.00335319
0.00287393
0.00318307
0.00299704
0.00299468
0.00313042
0.00278003
0.00326529
0.00254727
0.00339957
0.00229319
0.0035452
0.0020132
0.00370223
0.00167571
0.00387847
0.00125672
0.00404514
0.000714394
0.00424982
0.00439252
0.00581031
1.11569e-10
0.00581031
2.03486e-10
0.00581031
3.18715e-10
0.00581031
4.70148e-10
0.00581031
6.2391e-10
0.00581031
8.19286e-10
0.00581031
9.95511e-10
0.00581031
1.27029e-09
0.00581031
1.57901e-09
0.00581031
2.48065e-09
0.00581031
3.3181e-09
0.00581032
7.62302e-09
0.00581029
9.34478e-09
0.00581044
2.80272e-08
0.0058101
2.16916e-08
0.00581043
1.84145e-07
0.00581081
4.63897e-08
0.00581307
5.75904e-07
0.00581432
6.32742e-07
0.00582337
4.094e-06
0.00580631
-6.55024e-06
0.0058241
5.56107e-05
0.00590777
-9.36468e-06
0.006
0.00031317
0.00667461
0.000781081
0.00640681
0.00272652
0.0061507
0.00262682
0.00583728
0.00251908
0.00562035
0.0023947
0.00540827
0.00239763
0.005211
0.00242262
0.00502369
0.00246592
0.00483913
0.00251044
0.00465761
0.00255464
0.00448347
0.0026055
0.00431854
0.00266898
0.00415994
0.00274325
0.00400284
0.00282545
0.00384172
0.00291898
0.00368238
0.00302703
0.00352512
0.0031492
0.00336454
0.00328593
0.00318768
0.00343248
0.00299225
0.00358622
0.00277822
0.00375238
0.00254185
0.00394202
0.00224396
0.00417378
0.00185396
0.00442689
0.00130013
0.0047969
0.00568203
0.00840003
9.56e-12
0.00840003
3.75357e-11
0.00840003
8.26469e-11
0.00840003
1.47354e-10
0.00840003
2.29197e-10
0.00840003
3.26248e-10
0.00840003
4.48289e-10
0.00840003
5.725e-10
0.00840003
7.75772e-10
0.00840004
1.05327e-09
0.00840004
1.78983e-09
0.00840005
2.92056e-09
0.00840003
6.52278e-09
0.00840013
1.21015e-08
0.00840001
2.96091e-08
0.00840057
6.32947e-08
0.00840028
1.88642e-07
0.00839993
4.96504e-07
0.00839902
1.14386e-06
0.00838275
2.01972e-06
0.00839397
5.77696e-06
0.00824913
1.79624e-05
0.00836132
5.21009e-05
0.00852366
0.000141143
0.00850268
0.000740022
0.00861549
0.00254534
0.00843917
0.00279937
0.00824961
0.00270934
0.00806502
0.00258067
0.00788279
0.00258214
0.00769546
0.00261101
0.00748995
0.00267196
0.00727357
0.00272609
0.00704909
0.00277572
0.00682591
0.00282695
0.00661337
0.002883
0.00640877
0.0029492
0.00620209
0.00302967
0.00599229
0.00311717
0.00580021
0.00321202
0.00562301
0.00332147
0.00545872
0.00344618
0.00529977
0.00358081
0.00514947
0.00372522
0.00502126
0.0038698
0.00494319
0.00401534
0.00495137
0.00417294
0.00511131
0.00427264
0.00559387
0.00431013
0.00382645
0.00744074
0.00840003
1.16405e-12
0.00840003
5.66673e-12
0.00840003
1.51369e-11
0.00840003
3.13751e-11
0.00840003
5.80156e-11
0.00840003
9.46032e-11
0.00840003
1.43588e-10
0.00840003
2.09695e-10
0.00840003
2.87395e-10
0.00840003
3.74796e-10
0.00840003
6.9859e-10
0.00840004
9.65024e-10
0.00840003
2.96061e-09
0.00840006
5.89491e-09
0.00840004
1.67606e-08
0.00840046
2.28526e-08
0.00840019
1.43597e-07
0.00840021
3.27357e-07
0.00839974
8.38329e-07
0.00839067
1.12392e-06
0.00840074
6.94675e-06
0.00827267
1.21173e-05
0.00838379
6.46373e-05
0.00837768
0.000144758
0.00840072
0.00066745
0.00866218
0.00219143
0.0085108
0.00295969
0.00837788
0.00285358
0.00824137
0.00272653
0.00808581
0.00274066
0.00792408
0.00277482
0.00777105
0.00282333
0.00760426
0.00288844
0.00742737
0.0029464
0.0072551
0.00299619
0.0070863
0.00305204
0.00691868
0.003117
0.00675956
0.00318671
0.00660729
0.0032611
0.00646836
0.0033416
0.00635265
0.00342882
0.00626802
0.00352729
0.00621237
0.00363151
0.00618972
0.00373691
0.00620904
0.00383575
0.00631048
0.00390008
0.00653702
0.00394115
0.00692271
0.00388633
0.00748116
0.00375714
0.00331623
0.00799483
0.00840003
1.35974e-13
0.00840003
8.33201e-13
0.00840003
2.64948e-12
0.00840003
6.38168e-12
0.00840003
1.35019e-11
0.00840003
2.42779e-11
0.00840003
4.08041e-11
0.00840003
6.19745e-11
0.00840003
1.01206e-10
0.00840003
1.48961e-10
0.00840003
2.47067e-10
0.00840003
4.35535e-10
0.00840003
9.32119e-10
0.00840003
1.88186e-09
0.00840007
5.45675e-09
0.00839979
1.11885e-08
0.00840056
3.55599e-08
0.0083975
9.76087e-08
0.00840301
2.06341e-07
0.0083999
2.04466e-07
0.0084083
2.83799e-06
0.00830968
4.21138e-06
0.0084445
3.49295e-05
0.00844106
7.72232e-05
0.00880094
0.000294068
0.00986373
0.000949826
0.00959492
0.00322721
0.00928699
0.00317198
0.00893587
0.00309719
0.00870437
0.00297841
0.00851366
0.00296608
0.0083207
0.00301287
0.00813312
0.00306734
0.00795038
0.00311804
0.00777438
0.00316479
0.00761305
0.00321211
0.00747003
0.00326194
0.00734398
0.0033165
0.00723054
0.00337412
0.00713254
0.0034339
0.0070594
0.00349499
0.00702663
0.00355425
0.00703786
0.00361817
0.00710577
0.00366756
0.00722224
0.00371352
0.00739839
0.00371661
0.00764402
0.00368719
0.00793901
0.0035847
0.00827329
0.00342002
0.00304602
0.00854472
0.00840003
2.85802e-14
0.00840003
1.60671e-13
0.00840003
5.42975e-13
0.00840003
1.31412e-12
0.00840003
3.12383e-12
0.00840003
5.92248e-12
0.00840003
1.18126e-11
0.00840003
2.10292e-11
0.00840003
3.57104e-11
0.00840003
4.46751e-11
0.00840003
1.67213e-10
0.00840003
2.016e-10
0.00840003
1.01842e-09
0.0084
2.10234e-09
0.00840011
4.47505e-09
0.00839996
2.94773e-09
0.00840005
5.04449e-08
0.00840034
5.61322e-08
0.00840009
3.60821e-07
0.00840118
7.75064e-07
0.00839581
1.58486e-06
0.00837135
1.68374e-06
0.00844153
2.04822e-05
0.00795077
4.01389e-05
0.00859796
0.000198636
0.00890038
0.000557336
0.0093656
0.0026868
0.00924471
0.00329687
0.00905056
0.00330002
0.00889951
0.00313038
0.00875035
0.00310555
0.00861064
0.00314127
0.00847678
0.0031882
0.00834324
0.00323625
0.00821453
0.00328159
0.00809637
0.00332444
0.00799268
0.00336331
0.00790667
0.00340301
0.00783609
0.00344467
0.00778641
0.00348256
0.00775511
0.00352174
0.00775457
0.00354904
0.00778943
0.00357515
0.0078638
0.00358482
0.00798786
0.00358025
0.0081464
0.0035485
0.00834812
0.00347811
0.00856095
0.00336439
0.00877811
0.00319914
0.00290934
0.00891273
0.00840003
7.8891e-15
0.00840003
2.83234e-14
0.00840003
1.37494e-13
0.00840003
2.44276e-13
0.00840003
8.44763e-13
0.00840003
1.1131e-12
0.00840003
4.5451e-12
0.00840003
4.00987e-12
0.00840003
2.52039e-11
0.00840003
9.51506e-12
0.00840003
1.06886e-10
0.00840003
-2.76337e-11
0.00840003
9.04831e-10
0.00840004
-1.18541e-10
0.00840003
6.60829e-09
0.00840011
3.13246e-10
0.00839997
4.33726e-08
0.00840066
-7.99127e-09
0.00840001
4.81097e-07
0.00839779
3.04468e-07
0.00840748
4.67881e-07
0.00838868
1.25139e-06
0.00838323
2.36375e-05
0.00875154
4.89887e-06
0.00833416
0.000250806
0.00854873
0.000385595
0.00919256
0.00194946
0.00913936
0.00334228
0.00902633
0.0034098
0.00886429
0.00328896
0.00874805
0.00321328
0.00866692
0.00321058
0.00859704
0.00324522
0.00852899
0.00329082
0.00845949
0.00333949
0.00839533
0.00338198
0.00834193
0.00341217
0.00830535
0.00343737
0.00828166
0.00346518
0.00827638
0.00348384
0.00829024
0.00350238
0.00832343
0.00350848
0.0083905
0.00350504
0.00848297
0.00348996
0.00860488
0.00345472
0.00874795
0.00340081
0.00890204
0.00331566
0.00906231
0.00319634
0.00920477
0.00304648
0.00281669
0.0092896
0.00840003
1.54794e-15
0.00840003
1.3098e-14
0.00840003
3.54702e-14
0.00840003
1.11234e-13
0.00840003
2.54028e-13
0.00840003
5.96601e-13
0.00840003
1.26534e-12
0.00840003
3.78509e-12
0.00840003
7.15046e-12
0.00840003
3.72335e-11
0.00840003
8.50121e-11
0.00840003
1.97659e-10
0.00840004
5.21513e-10
0.00840001
1.41056e-09
0.00840006
3.5904e-09
0.00839994
1.45445e-08
0.0084003
3.76975e-08
0.00839975
9.87224e-08
0.00840235
1.99615e-07
0.00840149
9.28155e-07
0.0083987
2.31137e-06
0.00839436
3.61472e-06
0.0082615
7.85008e-06
0.00842992
2.38456e-05
0.00806797
6.55471e-05
0.0087179
0.000260718
0.00985389
0.000761175
0.00991976
0.00320644
0.00964519
0.00367418
0.00928707
0.00363973
0.00913093
0.003364
0.00900912
0.00332537
0.00890867
0.00333964
0.00882665
0.00336897
0.00876431
0.00339814
0.00872256
0.00342087
0.00869104
0.00344027
0.0086718
0.00345268
0.00866981
0.00346362
0.00868223
0.00346615
0.00871599
0.00346323
0.00876334
0.00345322
0.00882901
0.00342994
0.00891451
0.00339434
0.0090186
0.00334347
0.00913971
0.00327309
0.00926615
0.00318332
0.00939329
0.00306514
0.00951489
0.0029243