/*--------------------------------*- C++ -*----------------------------------*\
| =========                 |                                                 |
| \\      /  F ield         | OpenFOAM: The Open Source CFD Toolbox           |
|  \\    /   O peration     | Version:  2112                                  |
|   \\  /    A nd           | Website:  www.openfoam.com                      |
|    \\/     M anipulation  |                                                 |
\*---------------------------------------------------------------------------*/
FoamFile
{
    version     2.0;
    format      ascii;
    arch        "LSB;label=32;scalar=64";
    class       volScalarField;
    location    "1.5";
    object      T;
}
// * * * * * * * * * * * * * * * * * * * * * * * * * * * * * * * * * * * * * //

dimensions      [0 0 0 1 0 0 0];

internalField   nonuniform List<scalar> 
7000
(
1
1
1
1
1
1
1
1
1
1.00001
1.00001
1.00005
1.00007
1.00056
1.00086
1.00327
1.00735
1.01151
1.06209
1.13465
1.49779
2.18003
2.62264
2.72177
2.70373
2.67548
2.67557
2.67674
2.68503
2.69501
2.70237
2.70575
2.71093
2.72286
2.73353
2.73554
2.73899
2.75553
2.7755
2.78179
2.78304
2.79424
2.80966
2.81288
2.80775
2.8043
2.81016
2.83017
2.81807
2.92875
1
1
1
1
1
1
1
1
1
1
1.00001
1.00005
1.00006
1.00051
1.00077
1.00296
1.00702
1.00693
1.06224
1.12368
1.48518
2.14011
2.60408
2.71788
2.69928
2.67163
2.67267
2.67647
2.68739
2.69832
2.70601
2.70985
2.71555
2.72759
2.73775
2.73939
2.74299
2.75912
2.7777
2.7828
2.78279
2.79405
2.81022
2.81362
2.80869
2.80516
2.81247
2.83104
2.81966
2.93873
1
1
1
1
1
1
1
1
1
1
1.00001
1.00004
1.00005
1.00047
1.00066
1.00268
1.00694
1.00721
1.05828
1.12708
1.4567
2.11253
2.58375
2.71321
2.69556
2.66919
2.66916
2.67626
2.68853
2.69891
2.7056
2.70972
2.71647
2.72844
2.73727
2.73858
2.74341
2.76043
2.77861
2.78316
2.78301
2.79433
2.81013
2.8129
2.80787
2.80473
2.81291
2.83221
2.82145
2.94561
1
1
1
1
1
1
1
1
1
1
1
1.00004
1.00005
1.00042
1.0006
1.00242
1.00659
1.00498
1.05762
1.11874
1.4316
2.07446
2.54953
2.70622
2.6912
2.66752
2.66784
2.67776
2.68956
2.6993
2.70576
2.7102
2.7174
2.72914
2.73734
2.7385
2.74384
2.76126
2.7792
2.78339
2.78322
2.79475
2.81031
2.81277
2.80804
2.80494
2.81347
2.83049
2.8207
2.94993
1
1
1
1
1
1
1
1
1
1
1
1.00004
1.00005
1.0004
1.00059
1.00223
1.00634
1.00669
1.05217
1.12222
1.39285
2.04427
2.49641
2.70013
2.68701
2.66851
2.66882
2.67982
2.68901
2.69834
2.70508
2.71005
2.7175
2.72895
2.73659
2.73744
2.74303
2.76087
2.77865
2.78239
2.78262
2.79479
2.81017
2.812
2.80712
2.80357
2.81244
2.83062
2.82133
2.95243
1
1
1
1
1
1
1
1
1
1
1
1.00004
1.00005
1.00036
1.00062
1.00189
1.00646
1.00655
1.04687
1.11163
1.36929
1.9974
2.44154
2.69899
2.68303
2.67514
2.67183
2.68006
2.68742
2.69695
2.7044
2.71013
2.71766
2.72836
2.73531
2.73609
2.74179
2.75963
2.77768
2.78186
2.78178
2.7934
2.8089
2.81096
2.80627
2.80358
2.8131
2.82941
2.82037
2.95449
1
1
1
1
1
1
1
1
1
1
1
1.00003
1.00004
1.00032
1.00046
1.00176
1.00542
1.00503
1.04679
1.10901
1.34217
1.92432
2.40247
2.693
2.6851
2.67742
2.6723
2.68006
2.68541
2.69557
2.70424
2.71041
2.71703
2.72678
2.73347
2.73423
2.74005
2.75825
2.77605
2.77962
2.78
2.79294
2.80893
2.81113
2.80611
2.80302
2.81272
2.82779
2.82003
2.95384
1
1
1
1
1
1
1
1
1
1
1
1.00003
1.00004
1.00032
1.00043
1.00172
1.00507
1.00172
1.04475
1.10003
1.31814
1.84521
2.35912
2.68374
2.68595
2.67993
2.67335
2.67924
2.68457
2.69512
2.70363
2.70962
2.71609
2.72513
2.73121
2.73223
2.73827
2.75628
2.7744
2.77865
2.77832
2.79012
2.80558
2.80763
2.80332
2.79892
2.81026
2.82707
2.81797
2.95446
1
1
1
1
1
1
1
1
1
1
1
1.00003
1.00003
1.00027
1.00041
1.00156
1.0045
1.00503
1.03901
1.09221
1.28962
1.76852
2.30633
2.66717
2.68897
2.68259
2.67453
2.67832
2.68512
2.69384
2.70315
2.71014
2.71556
2.7229
2.72871
2.72992
2.73569
2.75348
2.77191
2.77662
2.77624
2.78793
2.80371
2.80646
2.80191
2.79988
2.80767
2.82228
2.81695
2.95276
1
1
1
1
1
1
1
1
1
1
1
1.00002
1.00003
1.00024
1.00037
1.00131
1.00382
1.00299
1.03437
1.08484
1.26102
1.6827
2.23968
2.64677
2.69535
2.68641
2.67532
2.67606
2.68482
2.69389
2.70362
2.70895
2.71184
2.71778
2.72442
2.72717
2.73294
2.75018
2.76889
2.77397
2.77339
2.78511
2.80127
2.80436
2.80019
2.79457
2.80638
2.82183
2.81455
2.94786
1
1
1
1
1
1
1
1
1
1
1
1.00002
1.00005
1.00027
1.00044
1.00151
1.00396
1.00278
1.03305
1.06977
1.235
1.59723
2.16013
2.6191
2.70146
2.69086
2.67627
2.67534
2.68341
2.68993
2.69841
2.70376
2.70648
2.71275
2.72091
2.72539
2.73205
2.74861
2.76597
2.77058
2.76905
2.77984
2.79671
2.80139
2.79765
2.79339
2.80334
2.81567
2.80863
2.94544
1
1
1
1
1
1
1
1
1
1
1
1.00003
1.00005
1.00028
1.00043
1.00149
1.00365
1.00445
1.02724
1.06125
1.20072
1.50261
2.06053
2.59056
2.70812
2.69097
2.67058
2.66872
2.67635
2.68403
2.69353
2.70052
2.70434
2.71087
2.71974
2.7249
2.73126
2.74699
2.76356
2.76808
2.7662
2.77544
2.79081
2.79519
2.79107
2.78549
2.79138
2.81423
2.81174
2.93774
1
1
1
1
1
1
1
1
1
1
1
1.00003
1.00005
1.00024
1.0004
1.00124
1.00312
1.00215
1.02418
1.0454
1.17164
1.42303
1.94506
2.5326
2.69892
2.68384
2.66578
2.66305
2.67182
2.67934
2.69007
2.69819
2.70226
2.70913
2.71968
2.72589
2.73015
2.74259
2.7579
2.76265
2.76124
2.77044
2.78616
2.79095
2.78737
2.78228
2.79196
2.80156
2.79557
2.93353
1
1
1
1
1
1
1
1
1
1
1.00001
1.00002
1.00012
1.00019
1.00078
1.00106
1.00452
1.00411
1.0178
1.03157
1.13993
1.35471
1.83168
2.55024
2.70632
2.68516
2.66585
2.661
2.67049
2.67675
2.68849
2.69788
2.70099
2.70626
2.71604
2.72142
2.72522
2.73673
2.74996
2.75367
2.75213
2.75978
2.77788
2.78454
2.78161
2.77534
2.7797
2.79848
2.79572
2.9188
1
1
1
1
1
1
1
1
1
1
1.00001
1.00002
1.00009
1.00015
1.00056
1.00084
1.00326
1.00262
1.01385
1.01336
1.11655
1.29692
1.80667
2.57907
2.71744
2.68264
2.67552
2.66678
2.67552
2.67867
2.68767
2.6963
2.70018
2.70558
2.71393
2.71737
2.7184
2.72682
2.7401
2.74535
2.74426
2.74877
2.76734
2.7764
2.77421
2.76773
2.76831
2.78386
2.77861
2.90807
1
1
1
1
1
1
1
1
1
1
1
1.00003
1.00006
1.0002
1.00042
1.00083
1.00301
1.00206
1.02019
1.0055
1.10798
1.24787
1.76997
2.54539
2.70004
2.69359
2.67855
2.66868
2.67558
2.67882
2.68548
2.69139
2.69405
2.6997
2.70824
2.71202
2.71257
2.71861
2.73158
2.73694
2.73624
2.73868
2.75307
2.7633
2.76343
2.75696
2.75447
2.76807
2.76972
2.88474
1
1
1
1
1
1
1
1
1
1
1.00001
1.00004
1.00007
1.0002
1.00041
1.00094
1.00153
1.00643
1.00512
1.03714
1.07915
1.27822
1.7182
2.30463
2.66363
2.69535
2.68462
2.67241
2.67321
2.67771
2.68361
2.68881
2.68997
2.69343
2.70007
2.70317
2.70377
2.70846
2.72127
2.72861
2.7287
2.73108
2.74332
2.74798
2.74534
2.73943
2.73889
2.75023
2.74251
2.86421
1
1
1
1
1
1
1
1
1
1
1.00001
1.00004
1.00006
1.00025
1.00038
1.00127
1.00186
1.00846
1.00885
1.03017
1.06235
1.2297
1.57244
2.17949
2.5909
2.68727
2.68108
2.67544
2.67571
2.67952
2.68382
2.68739
2.6882
2.69103
2.69501
2.69624
2.69593
2.69732
2.70603
2.71251
2.7132
2.71489
2.72715
2.73651
2.73504
2.71852
2.70965
2.72158
2.72459
2.82409
1
1
1
1
1
1
1
1
1
1
1.00001
1.00001
1.00004
1.00006
1.00017
1.00047
1.00067
1.00434
1.00145
1.02542
1.04509
1.18477
1.43771
2.02342
2.51092
2.65396
2.64532
2.64653
2.64892
2.65994
2.66959
2.67619
2.67902
2.68278
2.68736
2.68909
2.68914
2.69055
2.69628
2.69912
2.69793
2.69586
2.69949
2.71084
2.71178
2.70412
2.6857
2.68165
2.6678
2.76984
1
1
1
1
1
1
1
1
1
1
1.00001
1.00001
1.00002
1.00005
1.00006
1.00035
1.00058
1.00287
1.00311
1.01616
1.02175
1.12591
1.32112
1.80809
2.50415
2.65862
2.63509
2.63119
2.62491
2.63263
2.64055
2.64962
2.65553
2.66125
2.66758
2.67126
2.67261
2.67583
2.68352
2.68763
2.68673
2.68289
2.68059
2.68095
2.67852
2.66488
2.63897
2.62858
2.6032
2.63124
1
1
1
1
1
1
1
1
1
1
1
1
1.00002
1.00001
1.00011
1.00013
1.00088
1.00101
1.00791
1.0034
1.04305
1.09794
1.30631
1.80422
2.32829
2.6416
2.64591
2.63689
2.62375
2.62377
2.62711
2.63169
2.63624
2.64032
2.64467
2.64624
2.64606
2.64625
2.64862
2.65324
2.65302
2.65069
2.64708
2.64463
2.63819
2.62192
2.57543
2.53098
2.42913
2.36932
1
1
1
1
1
1
1
1
1
1
1
1
1.00001
1.00001
1.00007
1.00006
1.00051
1.00065
1.00515
1.00313
1.03013
1.0631
1.22761
1.56192
2.14637
2.53354
2.61592
2.60973
2.61129
2.61075
2.61403
2.61756
2.62229
2.62705
2.63069
2.63172
2.63074
2.62723
2.62461
2.62246
2.6188
2.60884
2.59922
2.58406
2.57373
2.55729
2.51843
2.46585
2.35824
2.23664
1
1
1
1
1
1
1
1
1
1
1
1
1
1.00001
1.00004
1.00003
1.0003
1.00042
1.00258
1.00214
1.01811
1.03087
1.13178
1.33938
1.78347
2.40298
2.60972
2.60294
2.58654
2.57464
2.57532
2.57923
2.58495
2.59135
2.59871
2.60241
2.60184
2.59976
2.5959
2.59196
2.5879
2.5803
2.56487
2.5476
2.51671
2.49402
2.44742
2.40144
2.31649
2.22487
1
1
1
1
1
1
1
1
1
1
1
1
1
1.00001
1.00004
1.00002
1.0003
1.00043
1.00265
1.00239
1.01966
1.00524
1.09821
1.23723
1.689
2.42616
2.60284
2.61607
2.59752
2.57635
2.56764
2.56792
2.5678
2.56837
2.56989
2.56871
2.56639
2.56133
2.5557
2.54824
2.53852
2.53101
2.515
2.50232
2.47611
2.44935
2.41206
2.36163
2.30172
2.22645
1
1
1
1
1
1
1
1
1
1
1
1
1
1
1.00003
1.00003
1.00022
1.00025
1.00171
1.00187
1.01347
1.00174
1.07659
1.14758
1.57012
2.28002
2.48605
2.57836
2.56944
2.56648
2.55874
2.55791
2.55791
2.5574
2.55617
2.55376
2.54869
2.54352
2.53337
2.52554
2.51019
2.49808
2.47987
2.45729
2.43344
2.40091
2.36805
2.32535
2.2731
2.22121
1
1
1
1
1
1
1
1
1
1
1
1
1
1.00001
1.00001
1.00007
1.00007
1.00057
1.00068
1.00451
1.0023
1.02505
1.00671
1.10923
1.27786
1.7333
2.41856
2.54766
2.54714
2.54128
2.53148
2.52977
2.53074
2.53024
2.52801
2.52534
2.51973
2.51575
2.50678
2.49913
2.48592
2.47102
2.45516
2.43464
2.41149
2.38255
2.34874
2.31119
2.26298
2.21457
1
1
1
1
1
1
1
1
1
1
1
1
1
1
1
1.00004
1.00002
1.0003
1.00034
1.00249
1.00112
1.01516
1.0022
1.0762
1.16426
1.55728
2.24648
2.47617
2.54832
2.53397
2.52742
2.51712
2.51223
2.50988
2.50601
2.50247
2.4967
2.49027
2.48241
2.47322
2.46243
2.44597
2.42849
2.40859
2.38427
2.35939
2.32813
2.29523
2.25762
2.21623
1
1
1
1
1
1
1
1
1
1
1
1
1
1
1
1.00002
1.00002
1.00015
1.0002
1.00127
1.00133
1.00951
1.0045
1.04431
1.10511
1.31299
1.83374
2.25858
2.49947
2.51264
2.50576
2.49795
2.49164
2.48765
2.48342
2.47619
2.46994
2.46152
2.45556
2.44595
2.43903
2.42878
2.41423
2.39657
2.37482
2.35034
2.3225
2.28931
2.25336
2.21691
1
1
1
1
1
1
1
1
1
1
1
1
1
1
1
1.00001
1.00001
1.00004
1.00003
1.00042
1.00051
1.00407
1.00278
1.02738
1.04359
1.19031
1.47815
1.97654
2.36991
2.46611
2.47555
2.4747
2.47328
2.47252
2.47021
2.46433
2.45623
2.44345
2.43139
2.41897
2.4061
2.39514
2.38216
2.36999
2.35355
2.3346
2.31343
2.28505
2.25335
2.21975
1
1
1
1
1
1
1
1
1
1
1
1
1
1
1
1
1.00002
1.00001
1.00014
1.00015
1.00103
1.0011
1.00847
0.999624
1.04136
1.08589
1.25908
1.71652
2.116
2.38031
2.4167
2.41887
2.42489
2.42888
2.43809
2.44128
2.43945
2.43318
2.42165
2.40905
2.39395
2.37724
2.36171
2.34315
2.32752
2.30573
2.28827
2.26541
2.24205
2.21563
1
1
1
1
1
1
1
1
1
1
1
1
1
1
1
1
1.00001
1.00001
1.00008
1.00006
1.00043
1.00052
1.00309
1.00402
1.01476
1.02731
1.12362
1.27976
1.71995
2.2016
2.39406
2.39909
2.39744
2.39234
2.38848
2.3888
2.391
2.3939
2.39261
2.38814
2.37868
2.36473
2.35008
2.33247
2.31507
2.29397
2.27233
2.24919
2.2232
2.19843
1
1
1
1
1
1
1
1
1
1
1
1
1
1
1
1
1
1.00001
1.00001
1.00005
1.00005
1.0004
1.00043
1.00348
1.00224
1.0245
1.04268
1.15853
1.45758
1.85124
2.27499
2.39354
2.39329
2.38698
2.37737
2.36761
2.35693
2.35134
2.34513
2.34099
2.33711
2.33123
2.32298
2.31054
2.29752
2.28075
2.26178
2.24063
2.21636
2.1921
1
1
1
1
1
1
1
1
1
1
1
1
1
1
1
1
1
1
1.00001
1.00002
1.00009
1.00012
1.00073
1.0008
1.00627
1.00014
1.03495
1.06296
1.2119
1.61704
1.97064
2.2953
2.36935
2.37699
2.3708
2.36141
2.3493
2.3359
2.32461
2.31171
2.30303
2.2915
2.28284
2.27128
2.25986
2.24793
2.23395
2.21829
2.19906
2.17926
1
1
1
1
1
1
1
1
1
1
1
1
1
1
1
1
1
1
1
1.00002
1.00002
1.00012
1.00011
1.00097
1.00113
1.00452
1.01317
1.03698
1.08172
1.25028
1.71205
2.02696
2.28128
2.31291
2.33401
2.33565
2.33394
2.32738
2.31858
2.30622
2.29516
2.28328
2.27013
2.25676
2.24183
2.22733
2.21153
2.19545
2.17669
2.15864
1
1
1
1
1
1
1
1
1
1
1
1
1
1
1
1
1
1
1
1.00002
1.00002
1.00016
1.00014
1.00055
1.00065
1.00415
1.00152
1.0242
1.00745
1.10748
1.26539
1.62853
2.13826
2.28392
2.28527
2.28354
2.27924
2.27661
2.27536
2.274
2.27086
2.26657
2.2582
2.24829
2.23589
2.22192
2.20741
2.1908
2.17329
2.15432
1
1
1
1
1
1
1
1
1
1
1
1
1
1
1
1
1
1
1
1.00001
1.00001
1.00003
1.00006
1.0002
1.00032
1.00109
1.00238
1.00199
1.02015
1.01668
1.1235
1.26877
1.6511
2.08173
2.29312
2.30173
2.296
2.28133
2.26591
2.25268
2.24309
2.23567
2.22982
2.22284
2.21648
2.20675
2.19608
2.18309
2.16732
2.15117
1
1
1
1
1
1
1
1
1
1
1
1
1
1
1
1
1
1
1
1
1
1.00002
1.00002
1.00007
1.00017
1.00016
1.0013
1.00136
1.00997
0.999467
1.05475
1.08614
1.34242
1.82641
2.12176
2.27164
2.28824
2.28162
2.26856
2.25294
2.23868
2.22648
2.21764
2.20858
2.20022
2.1914
2.1808
2.16978
2.15568
2.14206
1
1
1
1
1
1
1
1
1
1
1
1
1
1
1
1
1
1
1
1
1
1
1.00001
1.00003
1.00003
1.00018
1.0002
1.0011
1.00128
1.00812
1.00561
1.05159
1.07863
1.35299
1.84042
2.11509
2.23597
2.25546
2.2521
2.24548
2.23376
2.22035
2.21009
2.20094
2.19248
2.18458
2.17491
2.16488
2.15202
2.13916
1
1
1
1
1
1
1
1
1
1
1
1
1
1
1
1
1
1
1
1
1
1
1.00001
1.00001
1.00005
1.00006
1.00029
1.00033
1.00146
1.00209
1.0079
1.01459
1.04799
1.11307
1.27821
1.65874
2.03364
2.19535
2.19965
2.19789
2.19302
2.18472
2.17581
2.16821
2.1608
2.15648
2.15088
2.14704
2.13946
2.13099
1
1
1
1
1
1
1
1
1
1
1
1
1
1
1
1
1
1
1
1
1
1
1
1.00001
1.00001
1.00004
1.00006
1.00027
1.0003
1.00149
1.00167
1.0075
1.01259
1.03818
1.10398
1.24518
1.58878
1.97382
2.1808
2.19697
2.19318
2.18437
2.17028
2.15742
2.14487
2.1333
2.12413
2.11426
2.10756
2.0996
1
1
1
1
1
1
1
1
1
1
1
1
1
1
1
1
1
1
1
1
1
1
1
1
1
1.00002
1.00003
1.00011
1.00013
1.00057
1.00073
1.00339
1.00473
1.01713
1.03775
1.07992
1.25094
1.60462
1.90331
2.12871
2.17307
2.17232
2.16803
2.15726
2.14624
2.13057
2.11804
2.10276
2.08982
2.07588
1
1
1
1
1
1
1
1
1
1
1
1
1
1
1
1
1
1
1
1
1
1
1
1
1
1
1.00002
1.00002
1.00009
1.00011
1.00048
1.00059
1.00254
1.00374
1.01262
1.02966
1.0597
1.19236
1.48679
1.76558
2.0283
2.11068
2.14036
2.14313
2.14091
2.13117
2.11894
2.10384
2.08873
2.0721
1
1
1
1
1
1
1
1
1
1
1
1
1
1
1
1
1
1
1
1
1
1
1
1
1
1
1
1.00001
1.00001
1.00004
1.00008
1.00016
1.0006
1.00031
1.00389
1.00749
1.02326
1.0531
1.12149
1.33409
1.66952
1.90895
2.08084
2.105
2.11161
2.11265
2.10949
2.10118
2.08754
2.07157
1
1
1
1
1
1
1
1
1
1
1
1
1
1
1
1
1
1
1
1
1
1
1
1
1
1
1
1
1.00001
1.00001
1.00003
1.00007
1.00013
1.00047
1.00143
1.00178
1.00881
1.01355
1.04713
1.09671
1.21404
1.49064
1.85099
2.01354
2.0657
2.07498
2.08026
2.07937
2.07366
2.06458
1
1
1
1
1
1
1
1
1
1
1
1
1
1
1
1
1
1
1
1
1
1
1
1
1
1
1
1
1
1
1.00001
1.00002
1.00004
1.00015
1.00011
1.00073
0.998154
1.00378
1.00554
1.02567
1.05806
1.12033
1.35136
1.65778
1.88235
2.03459
2.05409
2.053
2.048
2.03847
1
1
1
1
1
1
1
1
1
1
1
1
1
1
1
1
1
1
1
1
1
1
1
1
1
1
1
1
1
1
1
1.00001
1.00001
1.00005
1.00005
1.00018
1.00033
1.00074
1.00244
1.00633
1.0149
1.02155
1.09799
1.18678
1.44573
1.74796
1.93447
2.01742
2.01922
2.01542
1
1
1
1
1
1
1
1
1
1
1
1
1
1
1
1
1
1
1
1
1
1
1
1
1
1
1
1
1
1
1
1
1
1.00002
1.00002
1.00009
1.00009
1.00045
1.00046
1.00242
1.00295
1.01022
1.02037
1.065
1.12353
1.25421
1.47857
1.73666
1.92434
1.96325
1
1
1
1
1
1
1
1
1
1
1
1
1
1
1
1
1
1
1
1
1
1
1
1
1
1
1
1
1
1
1
1
1
1
1.00001
1.00001
1.00003
1.00005
1.00017
1.00012
1.00093
0.997596
1.00456
1.00617
1.02605
1.05267
1.09671
1.26668
1.41416
1.66597
1
1
1
1
1
1
1
1
1
1
1
1
1
1
1
1
1
1
1
1
1
1
1
1
1
1
1
1
1
1
1
1
1
1
1
1
1
1.00001
1.00001
1.00007
0.999957
1.00056
1.00013
1.00374
1.00144
1.02054
0.953809
1.05708
1.10229
1.35857
1
1
1
1
1
1
1
1
1
1
1
1
1
1
1
1
1
1
1
1
1
1
1
1
1
1
1
1
1
1
1
1
1
1
1
1
1
1
1
1.00002
0.999972
0.999988
0.999503
0.999629
0.99656
1.00138
0.969818
1.01336
1.01747
1.15165
1
1
1
1
1
1
1
1
1
1
1
1
1
1
1
1
1
1
1
1
1
1
1
1
1
1
1
1
1
1
1
1
1
1
1
1
1
1
1
1.00001
0.999994
1
0.999862
0.999902
0.999183
1.00166
0.990151
1.0069
1.01368
1.0599
1
1
1
1
1
1
1
1
1
1
1
1
1
1
1
1
1
1
1
1
1
1
1
1
1
1
1
1
1
1
1
1
1
1
1
1
1
1
1
1
0.999997
0.999996
0.999959
0.999999
0.999772
1.00097
0.996185
1.00339
1.00708
1.02795
1
1
1
1
1
1
1
1
1
1
1
1
1
1
1
1
1
1
1
1
1
1
1
1
1
1
1
1
1
1
1
1
1
1
1
1
1
1
1
1
0.999998
1
0.999965
0.999973
0.99979
1.00035
0.997647
1.00164
1.00293
1.01417
1
1
1
1
1
1
1
1
1
1
1
1
1
1
1
1
1
1
1
1
1
1
1
1
1
1
1
1
1
1
1
1
1
1
1
1
1
1
0.999999
0.999999
0.999997
0.999995
0.99998
0.999985
0.999896
1.00018
0.998824
1.00084
1.00153
1.00706
1
1
1
1
1
1
1
1
1
1
1
1
1
1
1
1
1
1
1
1
1
1
1
1
1
1
1
1
1
1
1
1
1
1
1
1
1
1
1
1
0.999999
1
0.999991
0.999993
0.999947
1.00009
0.999418
1.0004
1.00075
1.00345
1
1
1
1
1
1
1
1
1
1
1
1
1
1
1
1
1
1
1
1
1
1
1
1
1
1
1
1
1
1
1
1
1
1
1
1
1
1
1
1
1
1
0.999996
0.999997
0.999976
1.00005
0.999716
1.0002
1.00036
1.0017
1
1
1
1
1
1
1
1
1
1
1
1
1
1
1
1
1
1
1
1
1
1
1
1
1
1
1
1
1
1
1
1
1
1
1
1
1
1
1
1
1
1
1
1
1.00001
1.00002
1.00008
1.00006
1.00032
1.00041
1
1
1
1
1
1
1
1
1
1
1
1
1
1
1
1
1
1
1
1
1
1
1
1
1
1
1
1
1
1
1
1
1
1
1
1
1
1
1
1
1
1
1
1
1.00001
1.00001
1.00004
1.00003
1.00015
1.00021
1
1
1
1
1
1
1
1
1
1
1
1
1
1
1
1
1
1
1
1
1
1
1
1
1
1
1
1
1
1
1
1
1
1
1
1
1
1
1
1
1
1
1
1
0.999998
1.00001
0.99997
1.00003
1.00004
1.00019
1
1
1
1
1
1
1
1
1
1
1
1
1
1
1
1
1
1
1
1
1
1
1
1
1
1
1
1
1
1
1
1
1
1
1
1
1
1
1
1
1
1
1
1
1
1
1.00001
1.00001
1.00005
1.00005
2.03146
1.93947
1.94577
2.02758
2.1338
2.25285
2.32981
2.41123
2.43323
2.43603
2.43101
2.4307
2.43176
2.43289
2.43825
2.44057
2.44633
2.44611
2.4472
2.45015
2.45588
2.4635
2.47191
2.48005
2.48753
2.49406
2.49929
2.50234
2.50432
2.50597
2.50746
2.5086
2.50922
2.50936
2.5093
2.50901
2.50824
2.50678
2.50486
2.50263
2.50024
2.4979
2.49579
2.49405
2.49266
2.49162
2.49169
2.49315
2.49602
2.50172
2.51098
2.52548
2.54507
2.58536
2.65473
2.75751
2.89693
3.04765
3.16395
3.23958
3.25994
3.24457
3.23177
3.2154
3.19476
3.18009
3.17398
3.16648
3.15957
3.15029
3.14019
3.12776
3.10938
3.09436
3.08149
3.07301
3.0647
3.06002
3.0552
3.05085
3.04527
3.04026
3.03131
3.02333
3.01199
3.00286
2.99239
2.9838
2.97416
2.96691
2.95705
2.95169
2.94159
2.93687
2.92723
2.92264
2.91328
2.9096
2.90226
2.90524
2.00643
1.94099
1.92175
1.92262
1.92052
1.89746
1.87362
1.86306
1.8792
1.90645
1.9378
1.96013
1.96542
1.96264
1.95883
1.95525
1.95526
1.95608
1.95871
1.9601
1.9611
1.96188
1.96326
1.9648
1.9659
1.96663
1.96763
1.96872
1.9695
1.97002
1.97066
1.97173
1.97324
1.97491
1.97644
1.97763
1.97843
1.97879
1.97882
1.97865
1.97805
1.9766
1.97433
1.97161
1.96856
1.96523
1.96249
1.96148
1.96172
1.96317
1.96776
1.97822
2.00338
2.05392
2.13453
2.22282
2.27914
2.32067
2.36578
2.41886
2.48046
2.53312
2.57036
2.57571
2.57146
2.5585
2.5275
2.50076
2.47951
2.46503
2.45869
2.46091
2.46679
2.47244
2.4744
2.47199
2.46565
2.45511
2.44289
2.43114
2.41999
2.41109
2.40424
2.40074
2.39879
2.39812
2.39767
2.39735
2.39704
2.3969
2.39649
2.39612
2.39573
2.3951
2.39478
2.3941
2.39422
2.39506
2.3963
2.40846
2.04311
1.96474
1.91703
1.86026
1.79831
1.73854
1.70356
1.6954
1.69897
1.71237
1.73309
1.7582
1.77288
1.78422
1.78619
1.78764
1.78682
1.78684
1.78702
1.78743
1.78791
1.7886
1.78981
1.79151
1.79299
1.79417
1.79509
1.79586
1.79612
1.79608
1.79595
1.79595
1.79607
1.79635
1.79655
1.7966
1.79658
1.79646
1.79613
1.79524
1.79429
1.79262
1.79112
1.78924
1.78754
1.78626
1.78641
1.78732
1.79012
1.79515
1.80917
1.83959
1.90102
1.98366
2.07356
2.10531
2.10288
2.10402
2.11011
2.12699
2.15348
2.18998
2.23553
2.28697
2.32873
2.35814
2.34831
2.3425
2.33449
2.31464
2.29208
2.27553
2.26334
2.2549
2.24976
2.2471
2.2455
2.24196
2.23519
2.22566
2.21541
2.20482
2.19513
2.18625
2.17835
2.17156
2.1658
2.16121
2.15721
2.15385
2.151
2.14792
2.14549
2.14311
2.14091
2.13949
2.13784
2.13774
2.13802
2.14767
2.08428
1.99619
1.92544
1.86607
1.80924
1.76096
1.71679
1.68223
1.65585
1.64652
1.6431
1.64844
1.65649
1.67326
1.682
1.69459
1.69723
1.70189
1.7015
1.70171
1.70214
1.70297
1.70423
1.70554
1.70701
1.70854
1.70962
1.71039
1.71109
1.71145
1.71145
1.71137
1.71112
1.71079
1.71022
1.70952
1.70833
1.70691
1.70498
1.70291
1.70059
1.69837
1.69631
1.69455
1.69445
1.69491
1.69653
1.70073
1.70876
1.72744
1.76682
1.83988
1.93445
2.01736
2.03917
2.02694
2.02008
2.00634
1.99564
1.98858
1.98907
1.99739
2.01474
2.04102
2.07968
2.12945
2.1847
2.22984
2.26093
2.25459
2.24518
2.23498
2.21513
2.1902
2.17103
2.15537
2.14403
2.13526
2.12929
2.12355
2.11751
2.11035
2.10186
2.09294
2.08437
2.07643
2.0695
2.06298
2.05773
2.0527
2.04824
2.04424
2.03978
2.03643
2.03127
2.02815
2.0225
2.02039
2.01593
2.02107
2.10593
2.03273
1.9569
1.88904
1.8275
1.77537
1.72532
1.68445
1.64424
1.61556
1.59909
1.59319
1.59159
1.59599
1.60185
1.6147
1.62102
1.63328
1.63669
1.64352
1.64455
1.64622
1.64795
1.64972
1.65145
1.65308
1.6545
1.6556
1.65615
1.65619
1.65607
1.65568
1.65495
1.65363
1.65231
1.65044
1.64859
1.64627
1.64394
1.64134
1.63864
1.63635
1.63399
1.63393
1.63434
1.63604
1.63981
1.65035
1.67387
1.72224
1.80393
1.91348
1.97762
1.99579
1.98639
1.97492
1.96358
1.94677
1.92701
1.9115
1.90047
1.89212
1.89403
1.90323
1.92415
1.95337
1.99452
2.03959
2.09793
2.14886
2.19177
2.21189
2.19949
2.1836
2.16732
2.13886
2.11074
2.08608
2.06585
2.05087
2.03922
2.0324
2.02637
2.02292
2.02032
2.01719
2.01354
2.00949
2.00406
1.99984
1.99382
1.98911
1.98186
1.97705
1.96919
1.96474
1.95634
1.95292
1.94571
1.94896
2.11266
2.05024
1.98351
1.92012
1.85686
1.80154
1.74804
1.70233
1.66042
1.62616
1.59361
1.57246
1.55766
1.55373
1.55436
1.55704
1.56267
1.57435
1.58107
1.59363
1.59869
1.60722
1.60995
1.61258
1.61535
1.61778
1.61922
1.62006
1.6205
1.62054
1.62037
1.61973
1.61816
1.61579
1.61285
1.60954
1.60592
1.60188
1.59815
1.59364
1.59068
1.58715
1.58634
1.58681
1.5887
1.59352
1.60688
1.63643
1.69891
1.78585
1.907
1.95052
1.96878
1.964
1.95328
1.93953
1.92487
1.9041
1.88512
1.86496
1.84902
1.84014
1.83685
1.83995
1.84619
1.85744
1.87416
1.89984
1.92966
1.96224
2.01002
2.05194
2.09921
2.13307
2.13803
2.12444
2.10387
2.08734
2.06087
2.03635
2.01598
2.00291
1.99321
1.98831
1.98298
1.98092
1.97804
1.97566
1.97221
1.96759
1.96023
1.95382
1.94466
1.93784
1.92769
1.92157
1.91204
1.9078
1.8996
1.90264
2.1264
2.06845
2.0076
1.94817
1.8878
1.83255
1.77944
1.73226
1.68817
1.64996
1.61478
1.58542
1.56003
1.54607
1.5349
1.53283
1.53428
1.5368
1.54321
1.55318
1.56248
1.57293
1.58086
1.58784
1.59232
1.59431
1.59676
1.59822
1.5985
1.59845
1.59821
1.59753
1.59608
1.59389
1.59088
1.58726
1.58267
1.57817
1.57257
1.56816
1.56396
1.56119
1.5613
1.56275
1.56892
1.58499
1.62076
1.69459
1.79853
1.91474
1.94156
1.95145
1.94832
1.93897
1.92641
1.90529
1.88762
1.86704
1.8487
1.83193
1.82104
1.8137
1.80897
1.80835
1.80828
1.80998
1.81376
1.81843
1.82302
1.83435
1.84893
1.86639
1.89623
1.92411
1.97461
2.01816
2.05705
2.06979
2.06247
2.04838
2.03892
2.02199
2.00122
1.98621
1.97195
1.96419
1.95399
1.9479
1.939
1.93244
1.92418
1.91786
1.90915
1.90262
1.89321
1.88721
1.87777
1.87398
1.86635
1.86895
2.13799
2.08552
2.03062
1.97367
1.91737
1.86274
1.81169
1.76437
1.72063
1.68124
1.64489
1.61366
1.58447
1.55955
1.53931
1.52688
1.51848
1.51865
1.52163
1.52448
1.53157
1.53937
1.54913
1.55574
1.56432
1.56729
1.57255
1.57305
1.57444
1.57505
1.57494
1.57458
1.57377
1.57203
1.5698
1.56639
1.56273
1.55824
1.55365
1.55054
1.54695
1.54625
1.54745
1.55466
1.5739
1.61778
1.70331
1.8136
1.91174
1.93834
1.93978
1.93511
1.92597
1.90946
1.89006
1.86827
1.85012
1.83158
1.8191
1.80836
1.80269
1.79643
1.79317
1.78902
1.78414
1.77987
1.77234
1.76587
1.75549
1.75092
1.74406
1.745
1.75298
1.76837
1.79498
1.82146
1.87259
1.91547
1.97671
2.01786
2.03363
2.02704
2.01308
2.00352
1.98542
1.96507
1.94115
1.92731
1.90978
1.90068
1.88807
1.88061
1.87132
1.86611
1.85907
1.85598
1.85026
1.84761
1.84202
1.84459
2.1487
2.10116
2.05229
1.99877
1.94421
1.89027
1.83904
1.79125
1.74726
1.70726
1.67035
1.63722
1.60697
1.58029
1.55593
1.53684
1.52288
1.51478
1.50961
1.50995
1.51225
1.51392
1.5185
1.52325
1.53053
1.53489
1.54235
1.54471
1.54977
1.55061
1.55205
1.5524
1.55217
1.55148
1.54975
1.54729
1.54451
1.54049
1.53925
1.53656
1.53651
1.53875
1.54804
1.57203
1.62622
1.72353
1.84609
1.91406
1.94156
1.93783
1.93068
1.91677
1.9009
1.87763
1.85806
1.83773
1.82302
1.80997
1.80273
1.79614
1.79096
1.7853
1.77874
1.77086
1.76085
1.74979
1.73509
1.72207
1.70738
1.69698
1.68705
1.68335
1.68393
1.68707
1.69312
1.70704
1.72715
1.74956
1.78814
1.81919
1.87717
1.92735
1.96814
1.98065
1.97083
1.95473
1.94326
1.92582
1.90298
1.88587
1.8658
1.85695
1.84372
1.83889
1.83041
1.82656
1.81984
1.81765
1.81255
1.81517
2.15288
2.11148
2.07039
2.0244
1.97517
1.92366
1.87301
1.8244
1.77903
1.73756
1.69963
1.66531
1.63455
1.60761
1.58291
1.56228
1.54227
1.52678
1.51434
1.50586
1.50038
1.49771
1.49805
1.49887
1.5011
1.50484
1.51108
1.51584
1.52319
1.52577
1.53142
1.53223
1.53346
1.53361
1.53334
1.53252
1.53058
1.53027
1.53003
1.53081
1.5351
1.54798
1.5788
1.64695
1.7548
1.89118
1.93005
1.94516
1.94028
1.92833
1.91408
1.89142
1.86908
1.84552
1.82895
1.81338
1.804
1.79475
1.78865
1.78093
1.77474
1.76597
1.75679
1.74482
1.73221
1.71727
1.70333
1.68961
1.67683
1.66798
1.65862
1.65458
1.64814
1.64639
1.64287
1.64375
1.64556
1.64952
1.6578
1.67357
1.69603
1.71798
1.76305
1.79965
1.86072
1.8978
1.92124
1.90973
1.8971
1.89057
1.87633
1.86151
1.84166
1.82943
1.81321
1.80771
1.79607
1.79199
1.78322
1.7844
2.14687
2.11101
2.07576
2.03777
1.99741
1.95362
1.90838
1.86266
1.81827
1.77593
1.73699
1.70087
1.66816
1.63886
1.61167
1.58786
1.56529
1.54579
1.52664
1.51213
1.49929
1.49093
1.48455
1.48119
1.48124
1.48177
1.48356
1.48839
1.49255
1.49975
1.5043
1.50998
1.51381
1.5159
1.51811
1.51983
1.52168
1.5239
1.52666
1.53402
1.55151
1.59057
1.67545
1.79666
1.92711
1.95067
1.95056
1.9425
1.92985
1.90824
1.88577
1.85925
1.83871
1.82057
1.80974
1.79899
1.79184
1.78224
1.77451
1.7645
1.75473
1.74284
1.73046
1.71691
1.70337
1.69102
1.67938
1.66973
1.66104
1.65332
1.64557
1.63793
1.6287
1.6211
1.61077
1.60575
1.59745
1.59383
1.59137
1.59171
1.59416
1.60126
1.61615
1.63407
1.66492
1.69174
1.74475
1.79268
1.84246
1.87095
1.85868
1.85312
1.84323
1.83247
1.81612
1.80158
1.78285
1.77334
1.75685
1.75726
2.13805
2.10474
2.07394
2.04005
2.00563
1.96911
1.93149
1.89177
1.85216
1.81197
1.77382
1.73694
1.70265
1.67073
1.6412
1.61375
1.58883
1.56492
1.54365
1.52316
1.50502
1.49028
1.47788
1.4701
1.46367
1.46109
1.46132
1.46265
1.46463
1.47015
1.47536
1.48408
1.48945
1.49794
1.50219
1.50718
1.51328
1.51882
1.53022
1.55348
1.6019
1.70176
1.83135
1.93827
1.96132
1.95469
1.94069
1.92306
1.90264
1.87769
1.8551
1.83501
1.82135
1.8083
1.79966
1.78907
1.77996
1.76805
1.75689
1.74364
1.73098
1.71729
1.70461
1.6926
1.68279
1.67365
1.66628
1.65889
1.65112
1.64289
1.63228
1.62171
1.60954
1.59865
1.5874
1.57785
1.56724
1.56049
1.55124
1.54789
1.54191
1.54142
1.54163
1.544
1.54954
1.56171
1.58038
1.59905
1.63717
1.669
1.7317
1.77309
1.81425
1.80952
1.8023
1.7924
1.78035
1.77054
1.75604
1.74746
2.1324
2.09886
2.06759
2.03758
2.0059
1.97324
1.94054
1.90668
1.87215
1.83636
1.8004
1.76501
1.73075
1.69774
1.66631
1.63636
1.6082
1.58144
1.55651
1.53362
1.5126
1.49319
1.47711
1.46358
1.4548
1.44783
1.4445
1.44476
1.44689
1.44943
1.45485
1.46053
1.46878
1.47761
1.4851
1.49515
1.50404
1.51957
1.54822
1.60562
1.7174
1.85687
1.9384
1.9623
1.95502
1.93655
1.91623
1.89466
1.87386
1.85497
1.83927
1.82455
1.81387
1.80274
1.7927
1.77912
1.76598
1.75056
1.73662
1.72163
1.7087
1.69647
1.68688
1.67845
1.67151
1.66457
1.65743
1.64861
1.63854
1.62667
1.61421
1.60205
1.58957
1.5788
1.56688
1.55744
1.54676
1.53815
1.52875
1.52134
1.5119
1.50671
1.49821
1.49497
1.49031
1.48993
1.49144
1.49628
1.50506
1.52059
1.54398
1.5667
1.60921
1.65194
1.71424
1.73789
1.76679
1.75225
1.7449
1.74337
2.11635
2.08928
2.05844
2.02805
1.99934
1.97052
1.94015
1.90939
1.87862
1.84685
1.81439
1.78136
1.74861
1.71607
1.68402
1.65324
1.62375
1.59576
1.56969
1.54566
1.52367
1.50423
1.48613
1.47086
1.45757
1.44826
1.44187
1.43839
1.43865
1.44024
1.44501
1.44868
1.45624
1.46245
1.47337
1.48708
1.50376
1.53838
1.6006
1.72012
1.86401
1.93314
1.95224
1.94411
1.92833
1.90877
1.88811
1.8698
1.85727
1.84463
1.83215
1.81964
1.80843
1.79441
1.77972
1.76247
1.74606
1.72933
1.71456
1.70142
1.69081
1.6822
1.67489
1.66825
1.66105
1.65249
1.64229
1.63017
1.6173
1.60389
1.59096
1.57839
1.56651
1.55546
1.54488
1.53554
1.52531
1.51703
1.50619
1.49758
1.48656
1.47761
1.46712
1.45993
1.45054
1.44705
1.44103
1.43952
1.43958
1.44115
1.44469
1.45209
1.46579
1.48077
1.50737
1.53269
1.58069
1.62914
1.69301
1.69307
2.1143
2.08243
2.05434
2.02348
1.9931
1.96362
1.93543
1.9077
1.87948
1.85088
1.82125
1.79046
1.75955
1.72804
1.69728
1.66704
1.63836
1.61116
1.58572
1.56223
1.54069
1.52097
1.50311
1.48713
1.4732
1.46164
1.4519
1.44643
1.44162
1.44059
1.44162
1.44468
1.45128
1.45664
1.46785
1.48651
1.52501
1.58785
1.70941
1.85496
1.91887
1.93756
1.9279
1.9146
1.90003
1.88543
1.86987
1.85752
1.84764
1.83724
1.82495
1.81047
1.79403
1.77554
1.75744
1.73856
1.72194
1.70651
1.69445
1.68436
1.67643
1.66925
1.66175
1.65339
1.64294
1.6313
1.61786
1.60434
1.59041
1.57728
1.56468
1.5532
1.54265
1.53313
1.52382
1.51503
1.50528
1.49585
1.48474
1.47487
1.46284
1.4536
1.44225
1.43439
1.42486
1.41906
1.41106
1.40764
1.40141
1.39985
1.39644
1.39664
1.39708
1.39918
1.40431
1.41226
1.4286
1.44437
1.483
1.50374
2.11409
2.08342
2.05353
2.02429
1.99387
1.96403
1.93565
1.9083
1.88118
1.854
1.82647
1.79795
1.76922
1.74026
1.71137
1.68341
1.65655
1.63076
1.60677
1.58423
1.56277
1.54377
1.52557
1.50912
1.49523
1.48198
1.47018
1.46178
1.45344
1.44827
1.44723
1.44976
1.45458
1.46281
1.47956
1.51519
1.57787
1.69598
1.8413
1.90189
1.91855
1.91081
1.89802
1.88841
1.8788
1.86559
1.85381
1.84455
1.83446
1.82158
1.80494
1.78602
1.76575
1.74579
1.7273
1.71061
1.69726
1.68606
1.67731
1.66943
1.66162
1.65323
1.64311
1.63187
1.61874
1.60507
1.59073
1.57702
1.56358
1.55178
1.54056
1.53115
1.52189
1.51338
1.50432
1.49509
1.48472
1.47455
1.46299
1.45279
1.44126
1.43235
1.42188
1.41494
1.4058
1.4005
1.39245
1.38824
1.38082
1.37743
1.37051
1.36783
1.36234
1.36089
1.35771
1.3584
1.35969
1.36303
1.37265
1.37681
2.11037
2.08411
2.05553
2.0268
1.99712
1.96736
1.9387
1.91118
1.8847
1.85875
1.83306
1.80753
1.78148
1.75527
1.7295
1.70294
1.6792
1.65375
1.63194
1.60938
1.58876
1.5701
1.55134
1.53501
1.51975
1.50597
1.4918
1.48258
1.47031