/*--------------------------------*- C++ -*----------------------------------*\
| =========                 |                                                 |
| \\      /  F ield         | OpenFOAM: The Open Source CFD Toolbox           |
|  \\    /   O peration     | Version:  2112                                  |
|   \\  /    A nd           | Website:  www.openfoam.com                      |
|    \\/     M anipulation  |                                                 |
\*---------------------------------------------------------------------------*/
FoamFile
{
    version     2.0;
    format      ascii;
    arch        "LSB;label=32;scalar=64";
    class       volVectorField;
    location    "1.5";
    object      U;
}
// * * * * * * * * * * * * * * * * * * * * * * * * * * * * * * * * * * * * * //

dimensions      [0 1 -1 0 0 0 0];

internalField   nonuniform List<vector> 
7000
(
(3 -5.75514e-07 0.000805021)
(3 -1.37539e-06 0.000764326)
(3 -1.90307e-06 0.00072386)
(3 -2.12991e-06 0.000683628)
(3 -1.8763e-06 0.000643628)
(3 -1.59145e-06 0.000603868)
(3 -1.3136e-06 0.000564359)
(3 -1.0586e-06 0.000525101)
(3 -8.29413e-07 0.000486096)
(3 -7.09881e-07 0.000447429)
(2.99999 -6.11077e-07 0.000409067)
(2.99996 -4.03952e-07 0.000371588)
(2.9999 3.20937e-06 0.000334851)
(2.9997 8.97883e-06 0.00030236)
(2.99935 3.73344e-05 0.000271399)
(2.9982 8.38157e-05 0.00026496)
(2.99622 0.000181831 0.000276678)
(2.98547 0.000479887 0.000575524)
(2.97631 0.000431237 0.000572828)
(2.86569 -0.00197697 0.00473318)
(2.65085 -0.0037197 0.00725418)
(2.11669 -0.00835542 0.0213316)
(0.940481 -0.00375005 0.0205084)
(0.420568 -0.0136263 0.00602324)
(0.547302 -0.00860589 -0.0018217)
(0.619599 -0.00597279 -0.00122245)
(0.612968 -0.00563789 -0.000402792)
(0.577785 -0.00532667 -0.000204552)
(0.5344 -0.00408463 -0.000256013)
(0.502102 -0.00280898 -0.00053132)
(0.476107 -0.00180326 -0.000748293)
(0.451536 -0.000880986 -0.000906102)
(0.426856 3.21393e-05 -0.00104899)
(0.401813 0.000882113 -0.00119693)
(0.376761 0.00160258 -0.00134918)
(0.352468 0.00213121 -0.00150133)
(0.329323 0.00241472 -0.00165642)
(0.307094 0.00246837 -0.00181893)
(0.285715 0.00241605 -0.00198272)
(0.265604 0.00244418 -0.00213766)
(0.246644 0.00275821 -0.00229032)
(0.227634 0.00356615 -0.00245189)
(0.207238 0.00498875 -0.00261808)
(0.184924 0.00702397 -0.00277534)
(0.160927 0.00945646 -0.00292669)
(0.135144 0.0117551 -0.00308139)
(0.10758 0.0134483 -0.0032478)
(0.0776651 0.0143859 -0.00343082)
(0.046708 0.015475 -0.00357465)
(0.0253392 0.0183466 -0.00387917)
(3 -5.97295e-07 0.000777211)
(3 -1.40867e-06 0.00073787)
(3 -1.90442e-06 0.000698756)
(3 -2.07664e-06 0.000659872)
(3 -1.68261e-06 0.000621221)
(3 -1.26473e-06 0.000582809)
(3 -8.68331e-07 0.000544642)
(3 -5.11308e-07 0.000506723)
(3 -2.03625e-07 0.000469053)
(3 -2.28966e-08 0.000431712)
(2.99999 1.15021e-07 0.00039466)
(2.99997 1.25292e-06 0.000358413)
(2.99991 9.87557e-06 0.000322822)
(2.99973 2.73529e-05 0.000291144)
(2.99942 9.30811e-05 0.00026035)
(2.99834 0.000221794 0.000253588)
(2.99671 0.000452132 0.000239068)
(2.98604 0.00116889 0.000562161)
(2.97765 0.00139031 0.000460023)
(2.87143 -0.00169996 0.00440977)
(2.66768 0.00773092 0.00675303)
(2.15433 0.0163242 0.0198572)
(0.97222 0.0682767 0.0201777)
(0.444451 0.045921 0.00613376)
(0.560695 0.0407653 -0.00165563)
(0.629335 0.0364696 -0.0011719)
(0.620633 0.0320151 -0.000395982)
(0.584162 0.0292694 -0.000209144)
(0.53915 0.0299044 -0.000248714)
(0.504652 0.0303065 -0.000504745)
(0.4771 0.029944 -0.000715769)
(0.451654 0.0295329 -0.000870195)
(0.426537 0.029256 -0.00100821)
(0.401511 0.0289647 -0.00115023)
(0.377015 0.0285518 -0.00129615)
(0.353729 0.0279684 -0.00144192)
(0.331793 0.0271856 -0.00159058)
(0.310668 0.0262566 -0.00174604)
(0.289933 0.0253583 -0.00190225)
(0.269668 0.0247373 -0.00205005)
(0.249645 0.0246439 -0.00219568)
(0.228791 0.0253071 -0.00235102)
(0.206119 0.0268137 -0.00251129)
(0.181677 0.0290713 -0.00266229)
(0.156245 0.0317649 -0.00280721)
(0.129972 0.0342635 -0.00295466)
(0.102624 0.0360235 -0.00311474)
(0.0731989 0.0368953 -0.00328778)
(0.0424416 0.0379366 -0.00342548)
(0.0216859 0.0411995 -0.00372436)
(3 -4.22897e-08 0.000748287)
(3 -8.84423e-08 0.00071036)
(3 -1.30641e-07 0.000672657)
(3 -2.05069e-07 0.00063518)
(3 -1.07913e-07 0.000597933)
(3 -1.14771e-09 0.000560923)
(3 1.02381e-07 0.000524154)
(3 1.97024e-07 0.000487628)
(3 2.74403e-07 0.000451347)
(3 2.4722e-07 0.000415386)
(2.99999 2.68237e-07 0.000379699)
(2.99997 1.32769e-06 0.000344751)
(2.99992 9.59071e-06 0.000310429)
(2.99975 2.64216e-05 0.000279445)
(2.99949 8.97386e-05 0.000248848)
(2.99844 0.000199739 0.000242507)
(2.99701 0.000451282 0.000234247)
(2.98641 0.000806536 0.000521706)
(2.97732 0.00106552 0.000518577)
(2.8757 -0.00310946 0.00406135)
(2.68345 0.0104431 0.00610425)
(2.18931 0.0177891 0.0186105)
(0.99597 0.0828651 0.020052)
(0.448573 0.0486181 0.00625207)
(0.564036 0.0434843 -0.00158981)
(0.631714 0.0382676 -0.00115313)
(0.622467 0.0335901 -0.000403245)
(0.587234 0.0309074 -0.000228309)
(0.543169 0.0330954 -0.000253629)
(0.507986 0.0347667 -0.000482621)
(0.480051 0.0353722 -0.000685623)
(0.454676 0.0358995 -0.000836263)
(0.429635 0.0365039 -0.000968484)
(0.404627 0.0369131 -0.00110323)
(0.380176 0.0369504 -0.00124148)
(0.356927 0.0365865 -0.00138016)
(0.33493 0.0359134 -0.00152246)
(0.313612 0.035176 -0.00167136)
(0.292532 0.0347595 -0.0018205)
(0.271744 0.0351072 -0.00196159)
(0.251024 0.0365944 -0.0021009)
(0.229336 0.0394137 -0.00224955)
(0.205749 0.0434858 -0.00240227)
(0.180452 0.0484425 -0.00254563)
(0.154391 0.0536342 -0.00268337)
(0.127804 0.0581589 -0.00282374)
(0.100427 0.0614155 -0.00297654)
(0.0712795 0.0633063 -0.00314166)
(0.0412419 0.0649743 -0.00327299)
(0.0206253 0.0692095 -0.00356323)
(3 -8.8301e-09 0.000718202)
(3 4.81194e-08 0.00068175)
(3 9.17042e-08 0.000645518)
(3 1.00814e-07 0.000609509)
(3 1.3444e-07 0.000573725)
(3 1.70818e-07 0.000538175)
(3 2.05461e-07 0.000502861)
(3 2.25961e-07 0.000467786)
(3 2.24316e-07 0.000432951)
(3 7.12491e-08 0.000398425)
(2.99999 5.96706e-07 0.000364159)
(2.99997 8.96351e-07 0.000330553)
(2.99993 5.4065e-06 0.000297488)
(2.99978 1.34137e-05 0.000267466)
(2.99955 5.41337e-05 0.000237989)
(2.99859 0.000100985 0.000229548)
(2.99733 0.000335379 0.0002105)
(2.98685 0.000345954 0.000509008)
(2.97804 0.00119867 0.000431635)
(2.8829 -0.0025105 0.0036518)
(2.70201 0.0149617 0.00560689)
(2.2347 0.0249353 0.016963)
(1.03565 0.101784 0.0199534)
(0.468062 0.0788599 0.00641441)
(0.572952 0.0775228 -0.00147228)
(0.635227 0.0662756 -0.00111852)
(0.625404 0.0588348 -0.000414318)
(0.59199 0.0549414 -0.000246385)
(0.549045 0.0569582 -0.000255745)
(0.512806 0.0579689 -0.000454953)
(0.48424 0.0579559 -0.000651005)
(0.458842 0.0579582 -0.000798614)
(0.433906 0.0580406 -0.000925152)
(0.409005 0.0579151 -0.00105276)
(0.384665 0.0573966 -0.00118368)
(0.361447 0.0564692 -0.00131534)
(0.339289 0.0553001 -0.00145087)
(0.317559 0.0542248 -0.00159287)
(0.295808 0.0536871 -0.00173499)
(0.274128 0.0541697 -0.00186953)
(0.252404 0.0561067 -0.00200269)
(0.229736 0.0597201 -0.00214484)
(0.205341 0.064908 -0.00229029)
(0.179519 0.0711971 -0.0024265)
(0.153188 0.0777431 -0.00255753)
(0.126544 0.0834657 -0.00269053)
(0.0992691 0.08767 -0.00283549)
(0.0704122 0.0902553 -0.00298949)
(0.0408428 0.0922183 -0.00311478)
(0.0201809 0.0968107 -0.00339597)
(3 1.61439e-08 0.000686908)
(3 2.01821e-07 0.000651993)
(3 4.23732e-07 0.000617296)
(3 6.95187e-07 0.000582817)
(3 7.82225e-07 0.000548559)
(3 8.41936e-07 0.00051453)
(3 8.71803e-07 0.000480732)
(3 8.5934e-07 0.000447168)
(3 7.98092e-07 0.000413838)
(3 5.55639e-07 0.000380802)
(2.99999 1.21369e-06 0.000348028)
(2.99997 9.93411e-07 0.000315867)
(2.99993 3.20634e-06 0.000284221)
(2.99979 5.70427e-06 0.000255247)
(2.99956 3.18284e-05 0.000226529)
(2.99866 -4.81691e-06 0.000217481)
(2.99742 0.000295073 0.00021162)
(2.98738 5.48797e-05 0.00046056)
(2.97818 0.00174659 0.000473713)
(2.89005 0.000176123 0.00322863)
(2.722 0.0147277 0.00494499)
(2.28289 0.0275833 0.0154649)
(1.0831 0.0948833 0.0197928)
(0.492354 0.103294 0.00661024)
(0.577852 0.107914 -0.00125758)
(0.633528 0.0853238 -0.00106197)
(0.627459 0.0752787 -0.000450252)
(0.598314 0.0705874 -0.00027577)
(0.557442 0.0727436 -0.000262833)
(0.520238 0.0736455 -0.000426595)
(0.491165 0.0737272 -0.000616869)
(0.465825 0.0738678 -0.000761448)
(0.441063 0.0740317 -0.000881819)
(0.416333 0.0739281 -0.00100182)
(0.39213 0.0733668 -0.00112488)
(0.368931 0.0723708 -0.00124885)
(0.346595 0.0712188 -0.00137698)
(0.324438 0.0703756 -0.00151168)
(0.301978 0.0703755 -0.00164648)
(0.279321 0.0717414 -0.00177419)
(0.256438 0.0748975 -0.0019013)
(0.232567 0.0799936 -0.00203709)
(0.207078 0.086796 -0.00217522)
(0.180393 0.0946612 -0.00230395)
(0.153451 0.102585 -0.0024278)
(0.126433 0.109444 -0.00255295)
(0.0989753 0.114532 -0.00269004)
(0.0701528 0.117731 -0.00283648)
(0.0408768 0.119946 -0.00295523)
(0.0200898 0.124908 -0.00322342)
(3 1.24234e-08 0.00065435)
(3 2.22293e-07 0.000621041)
(3 4.82981e-07 0.000587944)
(3 8.42721e-07 0.000555061)
(3 9.82518e-07 0.000522395)
(3 1.0782e-06 0.00048995)
(3 1.12457e-06 0.000457731)
(3 1.10755e-06 0.00042574)
(3 1.02841e-06 0.000393978)
(3 7.81384e-07 0.000362495)
(2.99999 1.33638e-06 0.000331266)
(2.99997 2.33483e-06 0.000300591)
(2.99994 8.70644e-06 0.000270372)
(2.99981 2.01646e-05 0.000242658)
(2.99956 6.58588e-05 0.000216572)
(2.9988 0.000135559 0.000203532)
(2.99764 0.000421535 0.000196814)
(2.98823 0.000450381 0.00041703)
(2.98064 0.00230724 0.000337246)
(2.89739 0.000947668 0.00293726)
(2.74178 0.0140811 0.00445394)
(2.32849 0.0302739 0.0138344)
(1.13621 0.0800125 0.0193475)
(0.523398 0.133429 0.00675602)
(0.576481 0.136217 -0.000890367)
(0.625633 0.106456 -0.000963946)
(0.630231 0.0954514 -0.000514576)
(0.606661 0.0898865 -0.000309403)
(0.568082 0.091343 -0.000271044)
(0.529955 0.0919941 -0.000396928)
(0.500447 0.0920593 -0.000581112)
(0.475195 0.0920996 -0.00072225)
(0.450688 0.0921198 -0.000836577)
(0.426221 0.0918811 -0.000948876)
(0.402192 0.0912056 -0.00106388)
(0.378987 0.0901699 -0.00118008)
(0.356405 0.0891456 -0.00130056)
(0.333723 0.0886792 -0.00142753)
(0.310437 0.0893368 -0.00155502)
(0.286694 0.091624 -0.00167622)
(0.262566 0.0959197 -0.00179665)
(0.237395 0.10232 -0.00192511)
(0.210664 0.110498 -0.002056)
(0.182905 0.11969 -0.00217788)
(0.155119 0.128783 -0.00229493)
(0.127502 0.136607 -0.00241353)
(0.099641 0.142475 -0.00254305)
(0.0706066 0.146252 -0.00267908)
(0.0412499 0.148707 -0.00279101)
(0.0201476 0.154145 -0.00304697)
(3 1.44478e-08 0.000620474)
(3 2.3092e-07 0.000588841)
(3 5.32525e-07 0.000557413)
(3 9.70241e-07 0.000526196)
(3 1.23215e-06 0.000495188)
(3 1.43987e-06 0.000464395)
(3 1.58345e-06 0.000433822)
(3 1.64916e-06 0.00040347)
(3 1.64108e-06 0.00037334)
(3 1.47751e-06 0.000343475)
(2.99999 1.97074e-06 0.000313849)
(2.99998 3.048e-06 0.000284717)
(2.99994 8.13796e-06 0.000255994)
(2.99983 1.78221e-05 0.000229315)
(2.99966 5.11772e-05 0.000202802)
(2.99892 0.000140123 0.000191399)
(2.99789 0.000245618 0.00018225)
(2.98903 0.000527115 0.000382053)
(2.9809 0.00167159 0.000392465)
(2.90364 -0.000348106 0.00254787)
(2.76283 0.0155192 0.00379137)
(2.36813 0.0304048 0.0125785)
(1.20153 0.0811134 0.0184473)
(0.568968 0.165643 0.00680401)
(0.572926 0.155884 -0.000344938)
(0.619615 0.127959 -0.000825741)
(0.634166 0.116405 -0.000579989)
(0.615635 0.10965 -0.000343997)
(0.579987 0.109933 -0.000283866)
(0.541643 0.110587 -0.000370494)
(0.511906 0.110692 -0.000544665)
(0.486853 0.110589 -0.000681338)
(0.462757 0.110459 -0.000789649)
(0.438662 0.11013 -0.000894174)
(0.414824 0.109451 -0.00100107)
(0.391559 0.108566 -0.00110935)
(0.368634 0.107926 -0.00122203)
(0.345311 0.108135 -0.00134128)
(0.321082 0.109758 -0.00146099)
(0.296124 0.113248 -0.00157482)
(0.270619 0.118894 -0.00168873)
(0.244041 0.12671 -0.00181079)
(0.215975 0.136268 -0.00193456)
(0.187018 0.146691 -0.00204945)
(0.158193 0.15681 -0.00215922)
(0.129744 0.165437 -0.00227022)
(0.101209 0.171911 -0.00239179)
(0.0716739 0.176118 -0.00251814)
(0.042011 0.178766 -0.00262415)
(0.0204336 0.184732 -0.00286419)
(3 2.12268e-08 0.000585223)
(3 2.08189e-07 0.000555339)
(3 5.33121e-07 0.000525654)
(3 9.37058e-07 0.000496173)
(3 1.33779e-06 0.000466896)
(3 1.58568e-06 0.000437825)
(3 1.77181e-06 0.000408968)
(3 1.88581e-06 0.000380323)
(3 1.92762e-06 0.000351893)
(3 1.82551e-06 0.000323713)
(2.99999 2.29132e-06 0.000295771)
(2.99998 3.03558e-06 0.000268302)
(2.99995 7.13618e-06 0.000241228)
(2.99984 1.51064e-05 0.000215939)
(2.99966 4.06962e-05 0.00019108)
(2.99897 6.38354e-05 0.000177818)
(2.99816 0.000231107 0.000155377)
(2.98962 7.55053e-05 0.000354401)
(2.98247 0.00224134 0.000322471)
(2.91149 0.00157247 0.00221052)
(2.78257 0.0166576 0.00334955)
(2.4126 0.0319724 0.0110894)
(1.28514 0.0907393 0.0172399)
(0.625317 0.195395 0.00694254)
(0.570425 0.173296 0.000219821)
(0.617515 0.147326 -0.000762192)
(0.638844 0.135603 -0.000601036)
(0.625205 0.128683 -0.000366186)
(0.593067 0.128164 -0.000296273)
(0.555129 0.129416 -0.00034779)
(0.525231 0.129526 -0.000506699)
(0.500574 0.129228 -0.000638627)
(0.477173 0.128991 -0.000741451)
(0.453651 0.128678 -0.00083809)
(0.430084 0.128181 -0.000936571)
(0.40673 0.127711 -0.00103692)
(0.383351 0.127778 -0.00114173)
(0.359231 0.128999 -0.00125289)
(0.333882 0.131899 -0.00136502)
(0.307549 0.136842 -0.00147197)
(0.280551 0.144008 -0.00157849)
(0.252465 0.153319 -0.00169237)
(0.222937 0.164238 -0.0018079)
(0.192624 0.1758 -0.00191528)
(0.162559 0.186791 -0.00201826)
(0.133046 0.196091 -0.00212082)
(0.103618 0.203085 -0.00223539)
(0.073347 0.207667 -0.00235455)
(0.043061 0.210477 -0.00245233)
(0.0207911 0.217024 -0.00267893)
(3 2.73235e-08 0.000548536)
(3 1.85069e-07 0.000520478)
(3 5.23801e-07 0.000492613)
(3 8.83924e-07 0.000464943)
(3 1.40869e-06 0.000437471)
(3 1.69972e-06 0.000410198)
(3 1.93694e-06 0.000383127)
(3 2.1042e-06 0.000356262)
(3 2.19625e-06 0.000329603)
(3 2.13176e-06 0.000303178)
(2.99999 2.82595e-06 0.000276974)
(2.99998 3.20686e-06 0.000251186)
(2.99996 6.89229e-06 0.00022573)
(2.99986 1.22979e-05 0.000201974)
(2.99971 4.50746e-05 0.000178576)
(2.99909 8.39976e-05 0.000166423)
(2.99815 0.000322867 0.00015893)
(2.99086 0.000239406 0.000296439)
(2.98419 0.0028833 0.000301525)
(2.91864 0.00261537 0.00190391)
(2.80423 0.0183529 0.00280904)
(2.4581 0.0342576 0.00975648)
(1.38353 0.100573 0.015865)
(0.6937 0.225246 0.00712541)
(0.567151 0.192234 0.000822607)
(0.616956 0.163809 -0.000729278)
(0.645866 0.152759 -0.0006221)
(0.636809 0.147569 -0.000377451)
(0.60852 0.14666 -0.000305084)
(0.57143 0.14813 -0.000327128)
(0.541187 0.148163 -0.000465599)
(0.517163 0.147802 -0.000594772)
(0.494728 0.147619 -0.000692207)
(0.471911 0.147525 -0.000780433)
(0.448592 0.147492 -0.000870456)
(0.424989 0.147798 -0.000962794)
(0.400901 0.148975 -0.00105952)
(0.375676 0.151609 -0.00116251)
(0.348888 0.156135 -0.00126686)
(0.320877 0.162786 -0.00136655)
(0.292129 0.171603 -0.00146575)
(0.262357 0.182435 -0.00157177)
(0.231247 0.19468 -0.0016794)
(0.199463 0.207313 -0.00177958)
(0.168053 0.219108 -0.00187507)
(0.13736 0.228947 -0.00197183)
(0.106888 0.236352 -0.00207554)
(0.075646 0.24124 -0.00218435)
(0.0444774 0.244174 -0.00227791)
(0.0213524 0.251427 -0.00248766)
(3 2.37832e-08 0.000510349)
(3 1.74461e-07 0.000484198)
(3 4.83399e-07 0.000458233)
(3 8.38323e-07 0.000432455)
(3 1.32424e-06 0.000406866)
(3 1.71209e-06 0.000381466)
(3 1.98706e-06 0.000356259)
(3 2.19899e-06 0.000331249)
(3 2.3414e-06 0.000306434)
(3 2.33742e-06 0.000281837)
(2.99999 3.0499e-06 0.000257458)
(2.99998 1.9742e-06 0.00023345)
(2.99996 -1.04767e-06 0.000209754)
(2.99987 -8.68546e-06 0.000187345)
(2.99973 -1.71776e-05 0.000165369)
(2.99921 -5.52243e-05 0.000151162)
(2.99851 -6.03789e-06 0.000137049)
(2.99185 -0.000217675 0.000258048)
(2.98635 0.00178698 0.000253993)
(2.92704 0.00202278 0.00160566)
(2.82508 0.0175352 0.00236787)
(2.5084 0.0359821 0.00832538)
(1.50146 0.111699 0.0142616)
(0.771452 0.257095 0.00737774)
(0.559965 0.210979 0.0014422)
(0.616718 0.178719 -0.000725297)
(0.656706 0.16833 -0.000658728)
(0.652775 0.165995 -0.000381557)
(0.627858 0.165372 -0.000300567)
(0.592394 0.166379 -0.000307064)
(0.562309 0.166415 -0.000425475)
(0.538991 0.166225 -0.000549555)
(0.517344 0.166312 -0.000640594)
(0.494885 0.166734 -0.000720451)
(0.471325 0.167576 -0.000802359)
(0.446885 0.169138 -0.000887136)
(0.421466 0.171917 -0.000975953)
(0.394551 0.176408 -0.00107064)
(0.365836 0.182911 -0.001167)
(0.335779 0.191508 -0.00125905)
(0.305046 0.20209 -0.00135057)
(0.273461 0.214471 -0.00144851)
(0.240709 0.227995 -0.00154792)
(0.207422 0.241613 -0.00164038)
(0.174556 0.254102 -0.00172838)
(0.142537 0.264416 -0.00181515)
(0.110854 0.272136 -0.00191317)
(0.0785028 0.277272 -0.0020138)
(0.0462814 0.280307 -0.00209862)
(0.0220624 0.288184 -0.00229011)
(3 1.69054e-08 0.000470595)
(3 1.66488e-07 0.000446438)
(3 4.35827e-07 0.000422457)
(3 7.91772e-07 0.000398653)
(3 1.21061e-06 0.000375028)
(3 1.68354e-06 0.000351583)
(3 1.99944e-06 0.000328321)
(3 2.26929e-06 0.000305243)
(3 2.48718e-06 0.000282351)
(3 2.60244e-06 0.000259659)
(2.99999 3.02783e-06 0.000237188)
(2.99998 1.34107e-06 0.000215088)
(2.99995 -3.84392e-06 0.000193265)
(2.99986 -1.49379e-05 0.000172806)
(2.99969 -3.86314e-05 0.000152717)
(2.99913 -9.71106e-05 0.000140741)
(2.99824 -0.000167174 0.00012612)
(2.99255 -0.000716716 0.000222856)
(2.98785 0.0013528 0.00019358)
(2.93503 0.000429264 0.00131836)
(2.84858 0.0180809 0.00192762)
(2.56168 0.0378874 0.00692985)
(1.63499 0.124198 0.0125154)
(0.85902 0.289509 0.00772889)
(0.552381 0.228016 0.00206018)
(0.620999 0.191869 -0.000745955)
(0.675164 0.182139 -0.00070798)
(0.676968 0.182197 -0.000384221)
(0.654374 0.182537 -0.000281279)
(0.620648 0.183613 -0.000281941)
(0.591048 0.184008 -0.00038628)
(0.567952 0.184362 -0.000502616)
(0.546206 0.185217 -0.000586942)
(0.523048 0.186774 -0.000659187)
(0.498109 0.189161 -0.00073334)
(0.47173 0.192607 -0.000810696)
(0.444041 0.197501 -0.000892041)
(0.414746 0.204198 -0.000978469)
(0.383684 0.212861 -0.00106609)
(0.35137 0.223441 -0.00114987)
(0.318598 0.235749 -0.00123295)
(0.285252 0.249589 -0.00132187)
(0.250926 0.264313 -0.00141272)
(0.216181 0.278859 -0.00149767)
(0.181897 0.292006 -0.00157803)
(0.148542 0.302768 -0.00165782)
(0.115625 0.310827 -0.00174606)
(0.0819368 0.31615 -0.00183597)
(0.0483077 0.319235 -0.00191346)
(0.0228459 0.327883 -0.0020906)
(3 1.49998e-08 0.000429205)
(3 1.49517e-07 0.000407131)
(3 3.96642e-07 0.000385222)
(3 7.1908e-07 0.00036348)
(3 1.10621e-06 0.000341905)
(3 1.53595e-06 0.0003205)
(3 1.913e-06 0.000299266)
(3 2.23444e-06 0.000278203)
(3 2.50205e-06 0.000257314)
(3 2.68082e-06 0.000236611)
(2.99999 2.61894e-06 0.000216122)
(2.99998 1.4382e-06 0.000195974)
(2.99995 9.39541e-07 0.000176084)
(2.99985 -1.59813e-06 0.000157341)
(2.99969 1.02664e-05 0.000139034)
(2.99915 1.45364e-05 0.000127022)
(2.99824 0.000141574 0.000119105)
(2.99336 0.000128248 0.000180442)
(2.98907 0.00246012 0.00017233)
(2.9436 0.00297257 0.00103579)
(2.87141 0.0196609 0.00149378)
(2.61936 0.0411733 0.00557697)
(1.79407 0.132121 0.0105925)
(0.960372 0.317167 0.00821879)
(0.551469 0.244262 0.00263006)
(0.636425 0.206256 -0.000789713)
(0.70672 0.196184 -0.000760146)
(0.714447 0.197076 -0.000385655)
(0.693055 0.198237 -0.000257487)
(0.659425 0.200527 -0.000253317)
(0.628283 0.202155 -0.000345443)
(0.603116 0.203835 -0.000454503)
(0.579053 0.206217 -0.000532836)
(0.553286 0.209568 -0.000598039)
(0.52547 0.214007 -0.000664508)
(0.496121 0.219695 -0.000734184)
(0.465593 0.226881 -0.000807591)
(0.433739 0.235807 -0.000885477)
(0.400453 0.24652 -0.000964336)
(0.366215 0.258887 -0.00103979)
(0.331813 0.272713 -0.00111433)
(0.29711 0.287818 -0.00119367)
(0.261572 0.303615 -0.00127473)
(0.225638 0.319045 -0.00135085)
(0.190072 0.332883 -0.00142274)
(0.155359 0.344157 -0.00149358)
(0.121016 0.352671 -0.00157069)
(0.0858755 0.358387 -0.00165747)
(0.0508105 0.361689 -0.00173025)
(0.0238974 0.371079 -0.00188378)
(3 1.24998e-08 0.000386103)
(3 1.318e-07 0.000366207)
(3 3.56395e-07 0.000346464)
(3 6.41052e-07 0.000326875)
(3 1.00066e-06 0.000307442)
(3 1.37155e-06 0.000288165)
(3 1.77488e-06 0.000269046)
(3 2.16678e-06 0.000250085)
(3 2.56847e-06 0.000231285)
(3 2.36733e-06 0.000212656)
(2.99999 1.72907e-06 0.000194219)
(2.99998 -2.37821e-06 0.000176069)
(2.99995 -1.27723e-06 0.000158148)
(2.99987 -2.33981e-05 0.000141136)
(2.99973 -7.88538e-06 0.000124446)
(2.99928 -0.00014282 0.000112687)
(2.99851 -1.35333e-05 0.000100021)
(2.99471 -0.000938956 0.000144923)
(2.99182 0.00231161 0.000118623)
(2.95237 0.00430731 0.000810076)
(2.89576 0.0196396 0.00110094)
(2.678 0.0450879 0.00437483)
(1.96669 0.123402 0.00853593)
(1.09099 0.312564 0.00874841)
(0.588963 0.252251 0.0030991)
(0.677317 0.228012 -0.00080378)
(0.753386 0.216157 -0.000794178)
(0.760413 0.215742 -0.000389221)
(0.73524 0.21682 -0.000240969)
(0.697773 0.220639 -0.000230233)
(0.661878 0.223948 -0.000305783)
(0.632627 0.22733 -0.000406637)
(0.605235 0.231493 -0.000478746)
(0.576577 0.236735 -0.000536894)
(0.546167 0.243174 -0.000595957)
(0.514528 0.25092 -0.000657929)
(0.4821 0.260137 -0.000722662)
(0.448758 0.271007 -0.000791026)
(0.41431 0.283513 -0.000860493)
(0.379133 0.297477 -0.000927236)
(0.343947 0.312681 -0.000993014)
(0.308571 0.328971 -0.00106306)
(0.272359 0.345848 -0.00113499)
(0.235637 0.362251 -0.00120238)
(0.199027 0.376971 -0.00126609)
(0.163156 0.388982 -0.00132905)
(0.127545 0.398109 -0.00139919)
(0.0908223 0.404397 -0.00146961)
(0.0537283 0.408024 -0.00153235)
(0.0249364 0.418452 -0.00167537)
(3 7.72093e-09 0.000341213)
(3 1.18295e-07 0.000323594)
(3 3.09251e-07 0.000306115)
(3 5.69441e-07 0.000288776)
(3 8.77051e-07 0.000271579)
(3 1.21587e-06 0.000254524)
(3 1.58989e-06 0.000237611)
(3 1.94388e-06 0.000220843)
(3 2.30608e-06 0.000204224)
(3 2.24083e-06 0.000187758)
(2.99999 2.01836e-06 0.000171493)
(2.99998 -7.90826e-08 0.000155423)
(2.99994 2.82571e-06 0.000139824)
(2.99985 -7.95545e-06 0.000124588)
(2.99961 1.43455e-05 0.000111469)
(2.99919 -5.58253e-05 9.9287e-05)
(2.99772 6.14072e-05 0.000101972)
(2.99552 -0.000455027 0.000101047)
(2.99492 0.00257232 6.16308e-05)
(2.96127 0.00379644 0.000613176)
(2.92034 0.0184383 0.000743706)
(2.72963 0.0422359 0.00343473)
(2.13039 0.0866028 0.00652393)
(1.22512 0.238304 0.00936331)
(0.598784 0.235865 0.00337877)
(0.680866 0.24798 -0.0006989)
(0.758544 0.238918 -0.000725255)
(0.771746 0.239063 -0.000388596)
(0.748777 0.240583 -0.000231678)
(0.711811 0.245665 -0.0002117)
(0.674188 0.250307 -0.000265979)
(0.643668 0.255018 -0.000357732)
(0.615624 0.260553 -0.000423724)
(0.586585 0.267283 -0.000474887)
(0.555918 0.275355 -0.000526018)
(0.524168 0.284834 -0.000579719)
(0.491831 0.295807 -0.000635978)
(0.458773 0.308409 -0.000695149)
(0.424728 0.322555 -0.000754865)
(0.389934 0.338061 -0.000812296)
(0.355016 0.35473 -0.000868786)
(0.319818 0.37237 -0.000928739)
(0.283606 0.390651 -0.000991817)
(0.246612 0.408406 -0.00105073)
(0.209303 0.424438 -0.00110602)
(0.172251 0.437672 -0.0011598)
(0.135168 0.447845 -0.00121835)
(0.0966055 0.455069 -0.00128356)
(0.0575384 0.459264 -0.00133987)
(0.0266623 0.470931 -0.001458)
(3 4.51567e-09 0.000294452)
(3 1.02667e-07 0.000279216)
(3 2.62481e-07 0.000264104)
(3 4.93661e-07 0.000249117)
(3 7.47907e-07 0.000234255)
(3 1.05147e-06 0.000219519)
(3 1.3978e-06 0.00020491)
(3 1.76163e-06 0.000190429)
(3 1.7386e-06 0.000176079)
(3 2.11074e-06 0.000161864)
(2.99999 1.65877e-06 0.000147814)
(2.99998 4.05334e-06 0.000133926)
(2.99995 3.40593e-06 0.000120378)
(2.99989 2.48015e-05 0.00010709)
(2.99971 3.44783e-05 9.52441e-05)
(2.99939 0.000152913 8.43312e-05)
(2.99832 0.000266611 8.29433e-05)
(2.99701 0.00096451 7.38908e-05)
(2.9967 0.00205427 3.94671e-05)
(2.96869 0.00112888 0.000444708)
(2.94222 0.0135524 0.000452818)
(2.76111 0.0252399 0.00288918)
(2.23242 0.0497975 0.00510127)
(1.34485 0.140274 0.00899163)
(0.601589 0.233011 0.00331132)
(0.659645 0.267283 -0.00042798)
(0.728692 0.264413 -0.000554688)
(0.752939 0.264103 -0.000375061)
(0.736354 0.264946 -0.00022201)
(0.703408 0.269817 -0.000194605)
(0.666972 0.275903 -0.000227693)
(0.637901 0.282299 -0.000307703)
(0.611791 0.289496 -0.000366897)
(0.584814 0.297908 -0.000411633)
(0.556177 0.307723 -0.000455226)
(0.526406 0.319011 -0.000500668)
(0.496021 0.331812 -0.000547726)
(0.464839 0.346222 -0.000596955)
(0.432541 0.362163 -0.000647342)
(0.399337 0.379447 -0.000696125)
(0.365667 0.3979 -0.00074337)
(0.331496 0.417325 -0.000793127)
(0.296018 0.437536 -0.000846477)
(0.259249 0.45727 -0.000896313)
(0.221609 0.475285 -0.000943016)
(0.183531 0.490437 -0.000987985)
(0.145056 0.502414 -0.00103589)
(0.104474 0.511445 -0.00108976)
(0.0623633 0.516917 -0.00113644)
(0.0285415 0.530052 -0.00123961)
(3 3.29283e-09 0.000245734)
(3 8.46093e-08 0.000232991)
(3 2.18061e-07 0.000220355)
(3 4.1125e-07 0.000207826)
(3 6.24396e-07 0.000195404)
(3 8.88703e-07 0.000183091)
(3 1.15156e-06 0.000170887)
(3 1.45594e-06 0.000158794)
(3 1.53812e-06 0.00014681)
(3 1.43548e-06 0.000134947)
(2.99999 -1.0797e-07 0.000123209)
(2.99998 -1.07192e-06 0.000111645)
(2.99995 -7.14138e-06 0.000100244)
(2.99989 -5.99468e-06 8.92566e-05)
(2.99974 -2.08598e-05 7.89861e-05)
(2.99943 -4.26906e-06 6.96132e-05)
(2.99851 -1.1993e-05 6.6177e-05)
(2.99714 0.000230537 6.09261e-05)
(2.99608 0.000325698 5.34153e-05)
(2.97373 -0.00668985 0.000291779)
(2.95257 0.0160639 0.000296964)
(2.78133 -0.0321648 0.0022125)
(2.31812 0.0879812 0.00389627)
(1.47693 0.0894824 0.00760645)
(0.658815 0.270703 0.003085)
(0.63936 0.294067 -4.68991e-05)
(0.697025 0.29478 -0.000397086)
(0.725717 0.292338 -0.000316329)
(0.715021 0.291456 -0.000198777)
(0.687338 0.294464 -0.000177225)
(0.653537 0.301089 -0.000196145)
(0.626082 0.308659 -0.000257279)
(0.602208 0.317246 -0.000307655)
(0.577874 0.32724 -0.000345695)
(0.55204 0.338811 -0.000381951)
(0.525129 0.351988 -0.000419393)
(0.497585 0.366759 -0.000457631)
(0.469198 0.383165 -0.000497372)
(0.439578 0.401226 -0.000538536)
(0.40883 0.420695 -0.000578257)
(0.377232 0.441417 -0.000616611)
(0.344824 0.463257 -0.000656445)
(0.310742 0.486063 -0.000698593)
(0.274772 0.508667 -0.000738927)
(0.237225 0.529704 -0.000777059)
(0.198333 0.547956 -0.000813126)
(0.158304 0.562996 -0.000850766)
(0.115274 0.574918 -0.000893741)
(0.0695424 0.582735 -0.000933836)
(0.0316435 0.598274 -0.00101405)
(3 3.89002e-09 0.000194968)
(3 6.51355e-08 0.000184835)
(3 1.75272e-07 0.000174789)
(3 3.24008e-07 0.00016483)
(3 5.04446e-07 0.00015496)
(3 7.13608e-07 0.000145178)
(3 9.05603e-07 0.000135485)
(3 1.07533e-06 0.000125882)
(3 1.37513e-06 0.00011637)
(3 1.09708e-06 0.000106956)
(2.99999 2.02058e-07 9.76432e-05)
(2.99998 -1.16435e-06 8.84578e-05)
(2.99995 -4.04731e-06 7.94319e-05)
(2.99989 -8.52162e-06 7.05988e-05)
(2.99973 -2.76021e-05 6.24553e-05)
(2.99944 -3.09792e-05 5.44904e-05)
(2.99862 -0.000250537 5.02794e-05)
(2.9974 -0.000139684 4.76712e-05)
(2.99102 -0.00194834 8.53597e-05)
(2.98537 -0.00559145 8.42507e-05)
(2.92241 0.0112231 0.000633618)
(2.81919 -0.0313412 0.000904005)
(2.47944 0.0649328 0.00329739)
(1.43904 0.0774368 0.00555265)
(0.728781 0.290964 0.00254584)
(0.594571 0.30229 0.000336826)
(0.652894 0.305771 -0.000271772)
(0.689134 0.306296 -0.000245388)
(0.686651 0.309917 -0.000165377)
(0.666484 0.315066 -0.000151345)
(0.637687 0.323578 -0.000162669)
(0.612914 0.332927 -0.000205664)
(0.59181 0.343102 -0.000246099)
(0.570514 0.354697 -0.000276901)
(0.547814 0.368007 -0.000305522)
(0.524059 0.383085 -0.000334704)
(0.499644 0.399909 -0.000364236)
(0.474417 0.418507 -0.000395056)
(0.447936 0.439033 -0.000427047)
(0.420185 0.461137 -0.000457951)
(0.391329 0.484696 -0.000487739)
(0.361379 0.509655 -0.0005184)
(0.329435 0.535896 -0.000550375)
(0.295011 0.562352 -0.000580002)
(0.258193 0.587786 -0.000608199)
(0.218966 0.610826 -0.000635352)
(0.177446 0.630999 -0.000663943)
(0.131489 0.648101 -0.000695785)
(0.0807205 0.660499 -0.00072401)
(0.0364686 0.68016 -0.000788058)
(3 5.21152e-09 0.000142059)
(3 4.65955e-08 0.000134658)
(3 1.36136e-07 0.000127322)
(3 2.43054e-07 0.000120053)
(3 3.96527e-07 0.00011285)
(3 5.41793e-07 0.000105713)
(3 7.3611e-07 9.86427e-05)
(3 8.60384e-07 9.16397e-05)
(3 1.08234e-06 8.47055e-05)
(3 1.35077e-06 7.7845e-05)
(2.99999 2.99464e-06 7.1057e-05)
(2.99998 5.8799e-06 6.43769e-05)
(2.99995 1.66472e-05 5.77879e-05)
(2.99987 3.35722e-05 5.15192e-05)
(2.99973 8.68623e-05 4.54203e-05)
(2.99926 0.000157017 4.11893e-05)
(2.99848 0.000360504 3.71208e-05)
(2.99576 0.000627657 4.40584e-05)
(2.99135 0.00106178 5.13027e-05)
(2.98952 0.00374234 3.42059e-05)
(2.93677 0.00487347 0.000383467)
(2.85503 0.0249204 0.000538392)
(2.56923 0.051975 0.00205619)
(1.62762 0.154243 0.00373346)
(0.86072 0.359189 0.00218767)
(0.580753 0.335098 0.000563035)
(0.631882 0.322979 -0.00018986)
(0.672925 0.317834 -0.000194336)
(0.67535 0.323843 -0.00013451)
(0.657822 0.331328 -0.000116514)
(0.6314 0.342561 -0.000123155)
(0.607528 0.354241 -0.000151134)
(0.587799 0.366333 -0.000180971)
(0.568624 0.379684 -0.000204296)
(0.548429 0.394785 -0.000225234)
(0.527358 0.411777 -0.000246142)
(0.505734 0.430702 -0.000267249)
(0.483576 0.451646 -0.00028926)
(0.460308 0.474775 -0.000311734)
(0.43572 0.49993 -0.000333417)
(0.410037 0.52687 -0.0003547)
(0.383198 0.555604 -0.000376221)
(0.354166 0.58625 -0.000398577)
(0.322343 0.618046 -0.000420069)
(0.287447 0.64964 -0.000439806)
(0.248959 0.679786 -0.000456558)
(0.206683 0.708112 -0.000474295)
(0.157685 0.734493 -0.000495533)
(0.100466 0.756308 -0.000516129)
(0.0459448 0.785111 -0.000557263)
(3 5.43827e-09 8.6904e-05)
(3 3.44611e-08 8.23652e-05)
(3 9.73755e-08 7.78681e-05)
(3 1.72585e-07 7.34125e-05)
(3 2.82594e-07 6.89987e-05)
(3 3.90067e-07 6.46267e-05)
(3 5.30629e-07 6.02966e-05)
(3 6.10302e-07 5.60087e-05)
(3 7.66043e-07 5.17634e-05)
(3 1.18109e-06 4.75611e-05)
(3 3.22679e-06 4.3405e-05)
(2.99999 6.97307e-06 3.92936e-05)
(2.99998 2.05493e-05 3.52488e-05)
(2.99996 4.22507e-05 3.12363e-05)
(2.99987 0.000123831 2.75172e-05)
(2.99976 0.000210469 2.37063e-05)