/*--------------------------------*- C++ -*----------------------------------*\
| =========                 |                                                 |
| \\      /  F ield         | OpenFOAM: The Open Source CFD Toolbox           |
|  \\    /   O peration     | Version:  2112                                  |
|   \\  /    A nd           | Website:  www.openfoam.com                      |
|    \\/     M anipulation  |                                                 |
\*---------------------------------------------------------------------------*/
FoamFile
{
    version     2.0;
    format      ascii;
    arch        "LSB;label=32;scalar=64";
    class       surfaceScalarField;
    location    "24.5";
    object      phi;
}
// * * * * * * * * * * * * * * * * * * * * * * * * * * * * * * * * * * * * * //

dimensions      [0 3 -1 0 0 0 0];

oriented        oriented;

internalField   nonuniform List<scalar> 
17370
(
-0.0916068
0.0960082
0.284609
-0.0775925
0.0594165
0.364951
-0.0430379
0.0316178
0.427588
-0.0223123
0.016257
0.505307
-0.0116594
0.0087809
0.602281
-0.00656531
0.00507876
0.720544
-0.00384398
0.00297007
0.86378
-0.00220955
0.00164582
1.03601
-0.00113108
0.000723682
1.24291
-0.00032169
-6.24253e-05
1.49158
0.000442165
-0.000847804
1.4916
0.00125075
-0.00175774
1.2432
0.00231396
-0.00306618
1.03639
0.00393275
-0.00515977
0.864134
0.00663906
-0.00884577
0.721264
0.0117146
-0.0162993
0.603799
0.0223419
-0.0316337
0.508731
0.0430401
-0.0594106
0.432539
0.0775888
-0.0960047
0.365191
0.0916165
0.197394
-0.12709
0.0880217
0.0390678
-0.364353
0.354027
-0.0714753
0.0818014
-0.446654
0.45425
-0.0791681
0.0715723
-0.521007
0.529114
-0.0637179
0.0556117
-0.612986
0.620764
-0.0482177
0.0404404
-0.727158
0.733685
-0.0338215
0.0272939
-0.867573
0.87241
-0.02209
0.0172526
-1.03856
1.04186
-0.0135813
0.0102801
-1.24471
1.24708
-0.00776285
0.00539027
-1.49283
1.49481
-0.00345228
0.00146658
-1.49268
1.49448
0.000332542
-0.00213189
-1.2441
1.24601
0.00409656
-0.00600625
-1.03761
1.04009
0.00834248
-0.010823
-0.866189
0.869824
0.0140828
-0.0177168
-0.724602
0.729769
0.022514
-0.0276807
-0.609075
0.615659
0.0341683
-0.0407522
-0.515128
0.522486
0.0484921
-0.0558494
-0.439881
0.447683
0.0639029
-0.0717057
-0.374721
0.377367
0.0792275
-0.0818734
-0.256921
0.224478
0.0715314
-0.0390883
-0.0688071
0.0591988
0.00960822
-0.0520908
0.0589189
-0.374835
0.368006
-0.0580719
0.0542349
-0.453939
0.457776
-0.0487576
0.0442086
-0.527605
0.532154
-0.0396677
0.0357755
-0.62078
0.624672
-0.031566
0.0275788
-0.734639
0.738627
-0.0232368
0.0193704
-0.873933
0.877799
-0.0153586
0.011937
-1.04333
1.04675
-0.00846266
0.00547501
-1.2486
1.25159
-0.00232042
-0.000613064
-1.49688
1.49982
0.00353445
-0.00665309
-1.49737
1.50049
0.00959241
-0.0130023
-1.25006
1.25347
0.0163589
-0.0202959
-1.04567
1.0496
0.0240922
-0.0283568
-0.877167
0.881432
0.032276
-0.0364152
-0.739014
0.743153
0.0402473
-0.044728
-0.626008
0.630489
0.0492276
-0.0546575
-0.535052
0.540482
0.0584417
-0.059229
-0.458117
0.458904
0.0523176
-0.0319892
-0.336831
0.316503
0.00964852
-0.0687072
0.0590587
-0.0534126
0.049307
0.00410557
-0.0332054
0.0436169
-0.358562
0.34815
-0.047283
0.0466873
-0.459565
0.460161
-0.0437455
0.0405157
-0.536101
0.539331
-0.0368204
0.0334571
-0.628353
0.631716
-0.0298309
0.0266187
-0.741985
0.745198
-0.0232145
0.0200793
-0.881272
0.884407
-0.0165702
0.0132967
-1.05015
1.05342
-0.0096848
0.00635473
-1.25482
1.25815
-0.00263515
-0.000926142
-1.50315
1.50671
0.00446814
-0.00812986
-1.50397
1.50763
0.0113854
-0.0148976
-1.257
1.26051
0.0180705
-0.0214637
-1.05329
1.05668
0.0244918
-0.0277818
-0.885045
0.888335
0.0308939
-0.0344161
-0.74686
0.750382
0.0376915
-0.0412984
-0.634633
0.638239
0.0444543
-0.047315
-0.544651
0.547512
0.0478284
-0.0440499
-0.45706
0.453281
0.0335027
-0.0162845
-0.297254
0.280036
0.00415003
-0.0532319
0.0490819
-0.0461448
0.0436007
0.0025441
-0.0229628
0.033282
-0.337574
0.327255
-0.0390045
0.0399629
-0.459904
0.458946
-0.0387329
0.0364332
-0.541972
0.544272
-0.0338163
0.0312859
-0.634657
0.637188
-0.02832
0.0254867
-0.748252
0.751085
-0.0222783
0.0193107
-0.887435
0.890402
-0.0160246
0.0129653
-1.05656
1.05962
-0.0095048
0.00620568
-1.26149
1.26479
-0.00241666
-0.0012657
-1.51036
1.51405
0.00492112
-0.00863273
-1.51135
1.51507
0.011828
-0.0151512
-1.26395
1.26727
0.0180758
-0.02121
-1.05988
1.06302
0.0240387
-0.0270977
-0.891539
0.894598
0.0297989
-0.032627
-0.753592
0.75642
0.0350376
-0.0375334
-0.641228
0.643724
0.0397337
-0.0408383
-0.549385
0.55049
0.0397538
-0.0338525
-0.44823
0.442329
0.0233395
-0.0102395
-0.264966
0.251866
0.00259892
-0.0458701
0.0432712
-0.0414962
0.0397191
0.00177713
-0.0167688
0.0259687
-0.317437
0.308237
-0.0324938
0.0345765
-0.457378
0.455295
-0.0341257
0.0324279
-0.546247
0.547945
-0.0302156
0.0281156
-0.639438
0.641538
-0.0257342
0.0234334
-0.753646
0.755947
-0.0207266
0.0180921
-0.893235
0.89587
-0.015043
0.0121408
-1.06262
1.06552
-0.00882235
0.00564198
-1.26803
1.27121
-0.00194571
-0.00167349
-1.51772
1.52134
0.00525691
-0.00885143
-1.51873
1.52232
0.0118962
-0.0150368
-1.2705
1.27364
0.0177597
-0.0206028
-1.06605
1.06889
0.023047
-0.0255513
-0.89741
0.899915
0.0276787
-0.0298869
-0.758882
0.76109
0.0318385
-0.0339019
-0.64595
0.648013
0.0354633
-0.0357481
-0.551106
0.551391
0.0334757
-0.026692
-0.435878
0.429094
0.0172352
-0.00727571
-0.240473
0.230513
0.00184431
-0.0411067
0.0392624
-0.0381934
0.0368732
0.00132027
-0.0126693
0.0205294
-0.299698
0.291838
-0.02719
0.0300628
-0.452783
0.44991
-0.0302527
0.0291228
-0.549388
0.550517
-0.027132
0.0252237
-0.643547
0.645456
-0.0230625
0.0210077
-0.758098
0.760152
-0.0186431
0.016335
-0.898311
0.900619
-0.01361
0.0109318
-1.0683
1.07098
-0.00779885
0.00476902
-1.27431
1.27734
-0.00125758
-0.00215167
-1.52485
1.52826
0.00551684
-0.00889612
-1.52582
1.5292
0.0117472
-0.014649
-1.27668
1.27958
0.0170983
-0.0195667
-1.07153
1.074
0.0216459
-0.0237723
-0.902177
0.904303
0.0256137
-0.0275481
-0.763143
0.765078
0.0292638
-0.0310665
-0.649947
0.65175
0.0319923
-0.0315683
-0.551334
0.55091
0.0284271
-0.0214193
-0.422133
0.415125
0.0132363
-0.00550387
-0.221757
0.214025
0.00140174
-0.0376643
0.0362625
-0.0357308
0.0347432
0.000987686
-0.0096534
0.0161663
-0.284664
0.278151
-0.0224587
0.0257447
-0.446774
0.443488
-0.0265362
0.0259179
-0.551342
0.55196
-0.0242749
0.0226054
-0.647245
0.648914
-0.0206656
0.0187795
-0.762145
0.764031
-0.0165703
0.0144115
-0.902859
0.905018
-0.0118927
0.00944142
-1.07354
1.07599
-0.00657382
0.00377288
-1.28025
1.28305
-0.000487197
-0.00272989
-1.53157
1.53478
0.00588821
-0.00900113
-1.53245
1.53557
0.0115767
-0.014154
-1.28233
1.2849
0.0163191
-0.0185091
-1.07633
1.07852
0.0203702
-0.0222685
-0.906324
0.908223
0.0238871
-0.0255483
-0.766882
0.768543
0.0269795
-0.0283712
-0.653357
0.654749
0.0287411
-0.0276326
-0.550118
0.54901
0.0239894
-0.0172517
-0.408204
0.401466
0.0103414
-0.00425929
-0.207182
0.2011
0.00108692
-0.0350325
0.0339456
-0.0338855
0.0331443
0.000741244
-0.00735017
0.0126483
-0.272258
0.26696
-0.018308
0.0216736
-0.440132
0.436767
-0.0228447
0.0224157
-0.552483
0.552912
-0.0210072
0.0194501
-0.650526
0.652083
-0.0176589
0.0159656
-0.765842
0.767536
-0.0140195
0.0121207
-0.907066
0.908965
-0.00987975
0.00767302
-1.0783
1.08051
-0.00506673
0.00250598
-1.28571
1.28827
0.0005068
-0.00346242
-1.53787
1.54083
0.00634292
-0.00913228
-1.53853
1.54132
0.0113957
-0.0136258
-1.2873
1.28953
0.0154634
-0.0172914
-1.08054
1.08237
0.0188258
-0.0203952
-0.909965
0.911535
0.0217547
-0.0231942
-0.770077
0.771517
0.0244491
-0.0255282
-0.655971
0.65705
0.025628
-0.0240268
-0.547636
0.546035
0.0201912
-0.0139706
-0.394966
0.388745
0.00818734
-0.00335456
-0.19568
0.190848
0.000863242
-0.0329818
0.0321186
-0.0325118
0.0319768
0.000534946
-0.00544049
0.00962377
-0.262231
0.258047
-0.0145091
0.0177814
-0.433426
0.430154
-0.0192586
0.019092
-0.553237
0.553404
-0.0179701
0.0165651
-0.653597
0.655002
-0.0149509
0.0134315
-0.769169
0.770688
-0.0116723
0.00993275
-0.910766
0.912506
-0.00784879
0.00578526
-1.08259
1.08465
-0.00335348
0.000995968
-1.29069
1.29304
0.00172976
-0.00434275
-1.5436
1.54621
0.00686464
-0.00930579
-1.54395
1.54639
0.0112876
-0.0132441
-1.29161
1.29357
0.0148359
-0.0163824
-1.08403
1.08558
0.0176441
-0.0189187
-0.912924
0.914198
0.0200351
-0.0212355
-0.772839
0.77404
0.0222816
-0.0229634
-0.65797
0.658652
0.022705
-0.0206706
-0.544221
0.542186
0.0168037
-0.011229
-0.382839
0.377265
0.00645847
-0.00263668
-0.186556
0.182734
0.000684304
-0.0313573
0.030673
-0.0315317
0.0311652
0.000366488
-0.00381811
0.00696908
-0.254387
0.251236
-0.0109597
0.013936
-0.427006
0.42403
-0.0155906
0.0157323
-0.55342
0.553279
-0.0150062
0.0138467
-0.656294
0.657454
-0.012416
0.0109956
-0.772194
0.773614
-0.00931716
0.0076568
-0.914217
0.915877
-0.00569937
0.0037826
-1.0866
1.08851
-0.00155294
-0.000605685
-1.29526
1.29742
0.00309275
-0.00546778
-1.54868
1.55105
0.00772816
-0.00985656
-1.54871
1.55084
0.011538
-0.013151
-1.29538
1.29699
0.014461
-0.0157536
-1.08701
1.08831
0.0168397
-0.0179233
-0.915384
0.916468
0.0188251
-0.0197195
-0.775048
0.775943
0.0204125
-0.020553
-0.659064
0.659205
0.019842
-0.0174609
-0.539972
0.537591
0.0137432
-0.00891721
-0.372059
0.367233
0.00505921
-0.00207348
-0.179356
0.17637
0.000551573
-0.0300692
0.0295176
-0.030884
0.0306852
0.000198743
-0.00226831
0.00441495
-0.2486
0.246453
-0.0074109
0.00986127
-0.421307
0.418857
-0.0114006
0.0116603
-0.553055
0.552795
-0.0110971
0.01011
-0.658536
0.659523
-0.00885019
0.0076203
-0.775027
0.776257
-0.00616354
0.00470257
-0.917446
0.918907
-0.00295809
0.00126659
-1.09024
1.09193
0.000701883
-0.00259366
-1.29938
1.30128
0.00477608
-0.00684702
-1.55326
1.55533
0.00876162
-0.0104895
-1.5528
1.55453
0.0117788
-0.012967
-1.29844
1.29963
0.0138914
-0.0147384
-1.08943
1.09028
0.0154256
-0.0161146
-0.91735
0.918039
0.0167133
-0.0173344
-0.776627
0.777249
0.0177424
-0.0176046
-0.659165
0.659027
0.016625
-0.0141762
-0.535185
0.532736
0.0108087
-0.00679151
-0.362841
0.358823
0.00378602
-0.00155723
-0.173793
0.171564
0.000427285
-0.0290419
0.0286146
-0.0305754
0.0305419
3.34608e-05
-0.000883496
0.00213861
-0.244779
0.243524
-0.00421551
0.00613865
-0.416693
0.41477
-0.00748926
0.00778027
-0.552542
0.552251
-0.00730258
0.00648914
-0.660451
0.661264
-0.00544642
0.00444212
-0.777439
0.778443
-0.003236
0.00198151
-0.920214
0.921468
-0.00044199
-0.00110937
-1.09344
1.09499
0.00293892
-0.00470178
-1.30302
1.30478
0.0067023
-0.00854293
-1.55722
1.55906
0.0102064
-0.0116646
-1.55612
1.55758
0.0127101
-0.0135861
-1.30067
1.30154
0.0141771
-0.014655
-1.09093
1.09141
0.0149414
-0.0151741
-0.918472
0.918704
0.0153479
-0.0155537
-0.777603
0.777809
0.0156088
-0.0151863
-0.658752
0.658329
0.0139526
-0.0114324
-0.530331
0.52781
0.0083716
-0.00505681
-0.355211
0.351897
0.00276048
-0.00113519
-0.169688
0.168063
0.000317276
-0.0282627
0.0279454
-0.0305763
0.0306769
-0.000100603
0.000171556
0.000342138
-0.242679
0.242165
-0.0015591
0.00295096
-0.41312
0.411728
-0.00415842
0.00459214
-0.551883
0.551449
-0.00436099
0.00376886
-0.661998
0.66259
-0.00288875
0.00196934
-0.779515
0.780434
-0.000793721
-0.000472506
-0.922652
0.923918
0.00203542
-0.00358299
-1.09641
1.09796
0.00538798
-0.00710546
-1.30644
1.30816
0.00899674
-0.0106705
-1.56078
1.56245
0.0121266
-0.0133443
-1.55893
1.56015
0.0141381
-0.0147491
-1.30236
1.30297
0.015118
-0.0153376
-1.09178
1.092
0.0154194
-0.0153718
-0.9188
0.918752
0.0152787
-0.0151186
-0.777681
0.777521
0.0147361
-0.01378
-0.657602
0.656646
0.0121458
-0.00949913
-0.525283
0.522637
0.00673051
-0.00400464
-0.348952
0.346226
0.00219423
-0.000911601
-0.16668
0.165397
0.000255177
-0.0276855
0.0274304
-0.0308202
0.0310004
-0.000180171
0.00078971
-0.000796716
-0.241956
0.241963
0.000312824
0.000467429
-0.410662
0.409882
-0.00130432
0.00167298
-0.551008
0.550639
-0.0015204
0.00104874
-0.663151
0.663622
-0.000251932
-0.000684065
-0.781471
0.782407
0.00195479
-0.00332148
-0.925142
0.926509
0.00496853
-0.0065626
-1.09942
1.10102
0.0083703
-0.0100331
-1.30978
1.31144
0.0118219
-0.0133611
-1.56401
1.56555
0.0146167
-0.0155669
-1.56125
1.5622
0.0160925
-0.0163785
-1.30348
1.30376
0.0164432
-0.016337
-1.09208
1.09197
0.0161191
-0.0158407
-0.918569
0.918291
0.0155387
-0.0150793
-0.777094
0.776634
0.0143467
-0.0130625
-0.655486
0.654202
0.0112347
-0.00864902
-0.520086
0.5175
0.00617883
-0.00380691
-0.343783
0.341411
0.00216573
-0.000924956
-0.164209
0.162969
0.000260942
-0.0272019
0.0269409
-0.0312097
0.0314531
-0.000243447
0.0012318
-0.00157296
-0.242123
0.242464
0.00163061
-0.0014527
-0.409462
0.409284
0.00124212
-0.00129014
-0.550436
0.550484
0.00169427
-0.00231844
-0.664211
0.664836
0.00327914
-0.00437229
-0.783515
0.784608
0.00580301
-0.00725223
-0.927806
0.929255
0.00893334
-0.0104992
-1.10249
1.10406
0.0122163
-0.0137573
-1.31297
1.31451
0.0153651
-0.016677
-1.56693
1.56825
0.0176339
-0.0182043
-1.56296
1.56354
0.0183733
-0.0183058
-1.30392
1.30386
0.0180809
-0.0177076
-1.09172
1.09135
0.0172695
-0.0166807
-0.917799
0.91721
0.0160781
-0.015354
-0.775933
0.775209
0.0144374
-0.0130579
-0.652844
0.651465
0.0112743
-0.00886185
-0.51512
0.512707
0.00654245
-0.00419542
-0.339183
0.336836
0.00245777
-0.00107214
-0.161725
0.160339
0.000306398
-0.0266897
0.0263833
-0.0317278
0.0320337
-0.00030587
0.00165298
-0.00223469
-0.24292
0.243502
0.00263823
-0.00285076
-0.409389
0.409601
0.00313436
-0.00365737
-0.550811
0.551334
0.00458717
-0.0056521
-0.665786
0.666851
0.00693907
-0.00825847
-0.785906
0.787225
0.00986362
-0.0114332
-0.930582
0.932151
0.0131984
-0.0148215
-1.10549
1.10711
0.0165857
-0.0181198
-1.31592
1.31745
0.0196403
-0.0207767
-1.56938
1.57052
0.0214876
-0.0217373
-1.56394
1.56419
0.021596
-0.0211481
-1.30365
1.3032
0.0205963
-0.01989
-1.09081
1.09011
0.0191815
-0.0183973
-0.91643
0.915646
0.0176504
-0.0167643
-0.774246
0.77336
0.0157676
-0.0143646
-0.65008
0.648677
0.0125706
-0.0100518
-0.51046
0.507941
0.00751644
-0.0048701
-0.334485
0.331838
0.00288227
-0.00127701
-0.158916
0.157311
0.000372111
-0.0260816
0.0257095
-0.0323832
0.0327738
-0.000390567
0.00224777
-0.00313099
-0.244226
0.24511
0.00380489
-0.00419081
-0.409933
0.410319
0.00460718
-0.00526605
-0.552021
0.55268
0.0063656
-0.00764407
-0.668234
0.669513
0.00924441
-0.0108834
-0.788768
0.790407
0.0128743
-0.0147718
-0.933665
0.935563
0.0168925
-0.0188552
-1.1087
1.11066
0.0209847
-0.0228363
-1.31899
1.32084
0.0246395
-0.0259482
-1.57162
1.57293
0.0267474
-0.0269911
-1.56436
1.5646
0.0267719
-0.0261327
-1.30263
1.30199
0.0252786
-0.024164
-1.08917
1.08805
0.0231423
-0.0220699
-0.914718
0.913645
0.0211294
-0.0201704
-0.772319
0.77136
0.0190324
-0.0172806
-0.647194
0.645442
0.0149501
-0.0117443
-0.505334
0.502128
0.00866376
-0.00558999
-0.329114
0.326041
0.00333314
-0.00150325
-0.155673
0.153843
0.000448634
-0.0253416
0.0248929
-0.0332204
0.0337391
-0.000518716
0.00313849
-0.004505
-0.246218
0.247584
0.00563636
-0.00622971
-0.410781
0.411374
0.00655018
-0.00700057
-0.553402
0.553853
0.00789467
-0.00909019
-0.670963
0.672158
0.0107887
-0.0127097
-0.792226
0.794147
0.0151177
-0.0175042
-0.937446
0.939832
0.0202807
-0.0228836
-1.11272
1.11533
0.0257289
-0.028214
-1.32286
1.32534
0.0306644
-0.0324913
-1.57439
1.57622
0.0336961
-0.034268
-1.56495
1.56552
0.034213
-0.033739
-1.30142
1.30095
0.0329681
-0.0318799
-1.08686
1.08577
0.0306634
-0.0291619
-0.912172
0.910671
0.0277437
-0.0260273
-0.770009
0.768292
0.0239428
-0.0209674
-0.643282
0.640306
0.0175252
-0.0133471
-0.49869
0.494512
0.0097175
-0.00629612
-0.322958
0.319537
0.00380446
-0.00174477
-0.152006
0.149946
0.000528893
-0.0244582
0.0239293
-0.0343269
0.0350226
-0.000695732
0.00434654
-0.0064055
-0.249259
0.251318
0.00830075
-0.00939442
-0.412169
0.413263
0.00983567
-0.0100522
-0.554405
0.554622
0.0106159
-0.0116648
-0.673505
0.674554
0.0133999
-0.0155153
-0.79613
0.798245
0.0184132
-0.0214307
-0.942247
0.945265
0.0249898
-0.0283423
-1.11809
1.12145
0.0319927
-0.0351587
-1.32804
1.3312
0.0382791
-0.0406221
-1.57824
1.58059
0.0421863
-0.0429868
-1.56621
1.56701
0.0430606
-0.0425741
-1.30049
1.30001
0.0417319
-0.0404229
-1.08451
1.08321
0.0389286
-0.0370196
-0.908806
0.906897
0.0349015
-0.031954
-0.76584
0.762893
0.0286244
-0.0241835
-0.636691
0.63225
0.0197016
-0.0148209
-0.490235
0.485354
0.0108456
-0.00715128
-0.316201
0.312507
0.00439331
-0.00204082
-0.147876
0.145524
0.000624396
-0.0234181
0.0227937
-0.0358081
0.0367603
-0.000952118
0.00597417
-0.00893865
-0.253756
0.25672
0.0118847
-0.0138612
-0.414801
0.416778
0.0150031
-0.0154593
-0.555312
0.555768
0.0159951
-0.0170581
-0.675792
0.676855
0.0190121
-0.0215801
-0.800412
0.80298
0.0251101
-0.0287281
-0.948284
0.951902
0.0329558
-0.0368843
-1.12487
1.1288
0.0410911
-0.0446671
-1.33444
1.33802
0.0480961
-0.0505534
-1.58294
1.5854
0.0520395
-0.0525757
-1.56768
1.56822
0.0523117
-0.0513695
-1.29932
1.29838
0.0500235
-0.0481225
-1.08156
1.07966
0.0460362
-0.0432948
-0.904403
0.901662
0.0402154
-0.0361172
-0.7591
0.755002
0.0318042
-0.0265587
-0.627423
0.622178
0.0216543
-0.0165352
-0.480697
0.475578
0.0123484
-0.00831036
-0.30896
0.304922
0.005166
-0.00240959
-0.14315
0.140394
0.000735734
-0.0221982
0.0214624
-0.0378063
0.0391159
-0.00130952
0.00812333
-0.0122085
-0.260092
0.264177
0.0164318
-0.01955
-0.419462
0.42258
0.021819
-0.0232014
-0.557297
0.558679
0.0245727
-0.026296
-0.678343
0.680066
0.0290769
-0.0323166
-0.805624
0.808863
0.0364331
-0.0405084
-0.955413
0.959488
0.0451513
-0.0493652
-1.13262
1.13684
0.0537581
-0.0573538
-1.34144
1.34504
0.0605889
-0.0626329
-1.58758
1.58962
0.0635047
-0.0632344
-1.56835
1.56808
0.0621374
-0.0602017
-1.29695
1.29501
0.0579252
-0.055005
-1.07718
1.07426
0.0519584
-0.0481684
-0.898131
0.894341
0.044255
-0.0394733
-0.750231
0.745449
0.0347287
-0.0292901
-0.616856
0.611417
0.024331
-0.019075
-0.470847
0.465591
0.0145444
-0.00992956
-0.301021
0.296407
0.00620654
-0.00288713
-0.137601
0.134282
0.000873668
-0.0207624
0.0198887
-0.0405069
0.0423411
-0.00183421
0.0111534
-0.0166917
-0.268669
0.274207
0.022458
-0.0269429
-0.426759
0.431244
0.0306957
-0.0334466
-0.561698
0.564449
0.0362843
-0.0393181
-0.682585
0.685618
0.0432657
-0.0473305
-0.812074
0.816139
0.0521337
-0.0566663
-0.963395
0.967928
0.0616267
-0.065954
-1.14081
1.14514
0.0702523
-0.0735311
-1.34827
1.35155
0.0761249
-0.0772857
-1.59111
1.59227
0.0770645
-0.0755025
-1.56712
1.56556
0.0731877
-0.0699335
-1.29238
1.28913
0.0664977
-0.062341
-1.07059
1.06644
0.0582521
-0.053526
-0.889754
0.885028
0.0490001
-0.0438337
-0.740102
0.734935
0.0389296
-0.0334215
-0.605983
0.600474
0.0283146
-0.0226452
-0.460669
0.454999
0.0174755
-0.0119853
-0.291932
0.286442
0.00746877
-0.00344857
-0.13093
0.12691
0.00103243
-0.0190507
0.0180183
-0.0442321
0.0468906
-0.00265857
0.0156745
-0.0231557
-0.280139
0.287621
0.0307956
-0.0368183
-0.437294
0.443316
0.0421334
-0.0463829
-0.569198
0.573447
0.0510174
-0.0556686
-0.689573
0.694224
0.0611509
-0.0663368
-0.820257
0.825442
0.0720656
-0.0771675
-0.972311
0.977413
0.0824484
-0.0867858
-1.14914
1.15348
0.0907742
-0.0934711
-1.3543
1.357
0.0950809
-0.0950186
-1.59266
1.59259
0.0933832
-0.0902453
-1.56312
1.55998
0.086526
-0.0818179
-1.28508
1.28038
0.0771346
-0.0717257
-1.0615
1.05609
0.0666564
-0.0610776
-0.879496
0.873917
0.0559945
-0.0504437
-0.729116
0.723565
0.0453019
-0.0395006
-0.594826
0.589025
0.0339247
-0.0274329
-0.449543
0.443051
0.0212612
-0.0145558
-0.281071
0.274365
0.00901443
-0.0041187
-0.122874
0.117978
0.00121594
-0.0170367
0.0158208
-0.0495448
0.0536468
-0.00410202
0.0229928
-0.033213
-0.295595
0.305815
0.0432656
-0.0511529
-0.451762
0.459649
0.058197
-0.0641241
-0.580192
0.586119
0.0708232
-0.0772375
-0.69975
0.706165
0.0843551
-0.0906965
-0.830663
0.837004
0.0973124
-0.102881
-0.98231
0.987878
0.108295
-0.112414
-1.15737
1.16149
0.115792
-0.117607
-1.35899
1.36081
0.117895
-0.116314
-1.59158
1.59
0.113024
-0.108138
-1.55585
1.55096
0.102918
-0.0966813
-1.27482
1.26858
0.0907214
-0.0840772
-1.0499
1.04325
0.0780458
-0.0715894
-0.867474
0.861017
0.065869
-0.0597647
-0.717136
0.711032
0.0541435
-0.0476957
-0.582775
0.576328
0.0412524
-0.0334993
-0.436608
0.428855
0.0259592
-0.0176919
-0.267816
0.259549
0.010858
-0.00488968
-0.113137
0.107168
0.00141569
-0.0146751
0.0132594
-0.0575223
0.0647245
-0.00720219
0.0364105
-0.0508287
-0.317163
0.331581
0.0644805
-0.074495
-0.471269
0.481283
0.0831619
-0.0907773
-0.5951
0.602716
0.0996244
-0.107561
-0.713175
0.721111
0.115868
-0.122892
-0.843168
0.850193
0.129853
-0.135374
-0.993009
0.99853
0.140361
-0.143744
-1.16489
1.16827
0.145979
-0.146427
-1.36165
1.3621
0.144941
-0.141474
-1.58725
1.58378
0.136262
-0.129461
-1.54495
1.53815
0.12264
-0.114826
-1.26145
1.25363
0.107573
-0.0996875
-1.0358
1.02792
0.0926689
-0.0852834
-0.853601
0.846215
0.078835
-0.0720182
-0.703756
0.696939
0.0657032
-0.0582131
-0.569035
0.561545
0.0504804
-0.0409936
-0.420918
0.411431
0.0316649
-0.0214589
-0.251453
0.241247
0.0130417
-0.00577534
-0.101459
0.094193
0.00162241
-0.0119614
0.010339
-0.0715741
0.0753284
-0.00375434
0.0267757
-0.0392523
-0.348821
0.361297
0.0511628
-0.0603788
-0.496362
0.505578
0.0694231
-0.0788166
-0.613747
0.62314
0.0893881
-0.098797
-0.728779
0.738188
0.109249
-0.118488
-0.856481
0.865719
0.128095
-0.136364
-1.0031
1.01137
0.144624
-0.151288
-1.17049
1.17716
0.157286
-0.161285
-1.36124
1.36524
0.163561
-0.163206
-1.57891
1.57855
0.16006
-0.154514
-1.53007
1.52453
0.147877
-0.139381
-1.24484
1.23635
0.13107
-0.121111
-1.01919
1.00923
0.112073
-0.102277
-0.837778
0.827982
0.0936336
-0.0844275
-0.68862
0.679414
0.0756154
-0.0654076
-0.552875
0.542667
0.054874
-0.0420642
-0.401425
0.388615
0.0303078
-0.0186061
-0.231066
0.219365
0.0100986
-0.00388861
-0.0875621
0.0813522
0.000876197
-0.00900816
0.00813196
-0.0823648
0.0800368
0.00232801
0.00481924
-0.0126305
-0.376783
0.384595
0.0214194
-0.0285147
-0.519508
0.526604
0.0367768
-0.0450112
-0.634038
0.642272
0.0546263
-0.0633716
-0.747496
0.756242
0.0726519
-0.0810586
-0.874504
0.88291
0.0897922
-0.0970025
-1.01936
1.02657
0.10439
-0.109989
-1.18362
1.18922
0.114934
-0.117872
-1.36888
1.37182
0.118751
-0.117219
-1.5772
1.57567
0.112989
-0.106463
-1.51795
1.51142
0.0988928
-0.0895909
-1.22716
1.21786
0.0806805
-0.070547
-0.998734
0.9886
0.0611413
-0.0508327
-0.816742
0.806434
0.041798
-0.0327543
-0.667039
0.657996
0.025115
-0.0171163
-0.529463
0.521465
0.0101043
-0.00389383
-0.375013
0.368803
0.000168088
0.00197846
-0.2073
0.205153
-0.00245475
0.00174881
-0.0746767
0.0753826
-0.000751111
-0.00678576
0.00753687
-0.0829216
0.079869
0.00305259
-0.00369514
-0.000301546
-0.3954
0.399396
0.00601799
-0.0115288
-0.537663
0.543174
0.0184069
-0.0255248
-0.651543
0.658661
0.0337639
-0.0413098
-0.764459
0.772005
0.0495472
-0.0568582
-0.890683
0.897994
0.0642333
-0.0706844
-1.03365
1.0401
0.0771
-0.0820494
-1.19443
1.19938
0.0859888
-0.0880795
-1.37412
1.37621
0.0884719
-0.0864317
-1.57346
1.57142
0.0818641
-0.075225
-1.50427
1.49763
0.0678262
-0.05907
-1.2085
1.19974
0.0504065
-0.0408917
-0.978157
0.968642
0.0321184
-0.0225809
-0.796028
0.78649
0.0144312
-0.00622305
-0.647123
0.638915
-0.000346843
0.00661108
-0.510824
0.50456
-0.0108395
0.0129834
-0.360264
0.35812
-0.0125128
0.0102377
-0.200195
0.20247
-0.00724786
0.00379605
-0.074924
0.0783758
-0.00129359
-0.00753726
0.00883084
-0.0812568
0.0783732
0.00288357
-0.00670222
0.00501273
-0.407291
0.408981
-0.00163986
-0.00259971
-0.551677
0.555917
0.008722
-0.0147078
-0.666079
0.672065
0.0217638
-0.0282631
-0.779271
0.78577
0.0353183
-0.0416046
-0.904898
0.911184
0.04834
-0.0538637
-1.04619
1.05171
0.059562
-0.0635465
-1.20401
1.208
0.0670096
-0.0687943
-1.37818
1.37996
0.06886
-0.0665558
-1.56907
1.56677
0.0623365
-0.0562896
-1.49062
1.48458
0.049588
-0.0414248
-1.19098
1.18282
0.0337534
-0.0253814
-0.959094
0.950722
0.0175582
-0.00938796
-0.777028
0.768858
0.00206696
0.00500388
-0.629365
0.622295
-0.0104724
0.0149983
-0.496062
0.491536
-0.0175552
0.0180224
-0.352613
0.352146
-0.0159202
0.0119277
-0.201447
0.20544
-0.00815645
0.00406609
-0.080139
0.0842294
-0.00131302
-0.00933529
0.0106483
-0.0795179
0.0770581
0.00245975
-0.0073337
0.00702171
-0.41512
0.415432
-0.00446171
0.00124894
-0.56314
0.566353
0.00377178
-0.00917172
-0.678375
0.683775
0.0151359
-0.0208908
-0.791853
0.797608
0.02704
-0.0325485
-0.917155
0.922664
0.0383994
-0.0434042
-1.05718
1.06218
0.0483355
-0.0521426
-1.21194
1.21574
0.0552612
-0.0568773
-1.38152
1.38313
0.0569467
-0.0548621
-1.56447
1.56238
0.0510952
-0.0455452
-1.47812
1.47257
0.0396176
-0.0325954
-1.17489
1.16786
0.0259625
-0.0186417
-0.942372
0.935051
0.0120511
-0.00507987
-0.760659
0.753687
-0.000929081
0.00678961
-0.61449
0.608629
-0.0111356
0.0145229
-0.484656
0.481268
-0.0163409
0.0163613
-0.348503
0.348483
-0.0141154
0.0105096
-0.20558
0.209186
-0.00710708
0.00347792
-0.0861224
0.0897516
-0.00114366
-0.0111585
0.0123022
-0.0780512
0.0759894
0.00206187
-0.00688568
0.00688915
-0.420414
0.420411
-0.00538079
0.00262283
-0.572128
0.574886
0.00205274
-0.00668494
-0.688906
0.693538
0.0118752
-0.0169289
-0.802803
0.807856
0.0224511
-0.027438
-0.927948
0.932935
0.0328809
-0.0373655
-1.067
1.07148
0.0419377
-0.0455066
-1.21937
1.22294
0.0484259
-0.0499875
-1.38461
1.38617
0.0501539
-0.0487166
-1.56037
1.55894
0.045397
-0.0406751
-1.46683
1.46211
0.0354701
-0.0293207
-1.16094
1.15479
0.0237747
-0.0173789
-0.927877
0.921481
0.0117454
-0.00599576
-0.746879
0.741129
0.00103238
0.00374997
-0.602447
0.597664
-0.00727312
0.0100778
-0.475918
0.473113
-0.0112387
0.0111669
-0.345633
0.345704
-0.00965129
0.00694365
-0.208885
0.211593
-0.00453086
0.00223959
-0.0907345
0.0930258
-0.000755719
-0.0125601
0.0133158
-0.0770163
0.0754336
0.00158276
-0.0057914
0.00599294
-0.424351
0.424149
-0.00462352
0.00246451
-0.580126
0.582285
0.00176475
-0.00597117
-0.698137
0.702344
0.0109453
-0.0153673
-0.812701
0.817123
0.0202955
-0.0247957
-0.938
0.9425
0.0300497
-0.0342245
-1.07608
1.08025
0.0384144
-0.0419317
-1.22641
1.22993
0.0451808
-0.0467982
-1.38785
1.38947
0.0472953
-0.0461324
-1.55724
1.55608
0.0435895
-0.0392542
-1.45735
1.45301
0.0348397
-0.0295811
-1.1487
1.14344
0.0246175
-0.0192195
-0.915312
0.909914
0.0143125
-0.00920677
-0.735296
0.73019
0.00517388
-0.000972301
-0.592464
0.588263
-0.00220493
0.00449985
-0.468708
0.466413
-0.00565859
0.00595063
-0.343138
0.342846
-0.00515816
0.00362294
-0.210574
0.212109
-0.00230253
0.00116262
-0.0930032
0.0941431
-0.000429826
-0.0132317
0.0136616
-0.0765262
0.0752925
0.00123371
-0.00460279
0.0048423
-0.427517
0.427277
-0.0034797
0.00139221
-0.587165
0.589252
0.00252064
-0.00631754
-0.70651
0.710307
0.0106418
-0.014949
-0.821632
0.825939
0.0195658
-0.0242524
-0.946907
0.951594
0.0288698
-0.032942
-1.08459
1.08866
0.0373566
-0.040747
-1.23341
1.2368
0.0436776
-0.0458564
-1.39108
1.39326
0.0467329
-0.0460654
-1.55506
1.5544
0.043915
-0.0403809
-1.44895
1.44541
0.0364962
-0.0317897
-1.13798
1.13327
0.0273984
-0.0225098
-0.904477
0.899588
0.0180953
-0.0136438
-0.725142
0.720691
0.00972537
-0.00596583
-0.583656
0.579897
0.00310371
-0.000633066
-0.462527
0.460056
-0.00078038
0.00128691
-0.340085
0.339579
-0.00136659
0.00108281
-0.210296
0.210579
-0.000782327
0.000479238
-0.093291
0.0935941
-0.000248455
-0.0133472
0.0135956
-0.0765705
0.0755423
0.00102822
-0.00329006
0.00331439
-0.430451
0.430427
-0.00214025
3.79767e-05
-0.593659
0.595761
0.00364497
-0.00735319
-0.714353
0.718061
0.0115319
-0.01548
-0.83016
0.834108
0.0202522
-0.0242187
-0.955801
0.959768
0.0288576
-0.0328122
-1.09294
1.0969
0.0371925
-0.0408567
-1.24024
1.2439
0.0441728
-0.0462564
-1.39528
1.39736
0.047611
-0.0474759
-1.55373
1.55359
0.0460678
-0.0429298
-1.4418
1.43866
0.039521
-0.0352388
-1.12866
1.12438
0.031236
-0.0266387
-0.89451
0.889913
0.0225947
-0.0182778
-0.715973
0.711656
0.0145651
-0.0108952
-0.575689
0.572019
0.00796082
-0.00558374
-0.456355
0.453978
0.00382488
-0.0027685
-0.336312
0.335255
0.00186521
-0.00109894
-0.208217
0.207451
0.000499891
-2.45865e-06
-0.0919267
0.0914293
-0.000124157
-0.0130137
0.0131378
-0.0768817
0.0761691
0.000712569
-0.00213199
0.00176856
-0.433579
0.433942
-0.000757597
-0.00162365
-0.59931
0.601691
0.00489824
-0.00846767
-0.721731
0.7253
0.0124944
-0.0165897
-0.838021
0.842116
0.0208006
-0.0249541
-0.964001
0.968154
0.0295974
-0.0333949
-1.10132
1.10512
0.0379208
-0.0416042
-1.24743
1.25111
0.0450614
-0.0477473
-1.3999
1.40259
0.0496789
-0.049911
-1.55354
1.55378
0.0488113
-0.0463882
-1.43569
1.43327
0.0434758
-0.0394731
-1.11991
1.11591
0.0356272
-0.0314446
-0.885174
0.880991
0.0272288
-0.0231719
-0.707049
0.702992
0.0195178
-0.0157596
-0.568118
0.56436
0.0128526
-0.0100769
-0.450097
0.447321
0.00798306
-0.00614325
-0.331744
0.329904
0.00464894
-0.00299501
-0.204543
0.202889
0.0015673
-0.000457918
-0.0892667
0.0881573
8.01859e-06
-0.0123578
0.0123498
-0.0775972
0.0770258
0.00057147
-0.00118393
0.000894297
-0.436934
0.437224
0.000698829
-0.00294308
-0.605116
0.607361
0.00634168
-0.00978192
-0.72862
0.73206
0.0136685
-0.0173932
-0.845969
0.849694
0.021747
-0.0256197
-0.972368
0.976241
0.0302437
-0.0344964
-1.1094
1.11365
0.0387154
-0.0427659
-1.25488
1.25893
0.0466936
-0.0495341
-1.40523
1.40807
0.0519083
-0.0529696
-1.55426
1.55532
0.0523479
-0.0505453
-1.43072
1.42892
0.0478064
-0.044159
-1.11188
1.10824
0.0405714
-0.0363684
-0.876305
0.872102
0.0323424
-0.0282172
-0.698364
0.694239
0.0245293
-0.0205993
-0.560233
0.556303
0.0173975
-0.0143544
-0.443451
0.440408
0.0116522
-0.00916815
-0.325961
0.323477
0.00696556
-0.00458358
-0.199333
0.196951
0.00260222
-0.000963935
-0.0856179
0.0839796
0.000170652
-0.0114961
0.0113254
-0.078551
0.0781449
0.000406011
-0.00020291
-0.000266382
-0.440432
0.440901
0.00184678
-0.00432077
-0.610575
0.613049
0.00761199
-0.0108905
-0.735275
0.738554
0.0148596
-0.0184481
-0.853459
0.857047
0.0226677
-0.0266753
-0.980625
0.984632
0.0312248
-0.0354646
-1.1178
1.12204
0.0399273
-0.0440357
-1.26294
1.26705
0.0481904
-0.0518121
-1.41123
1.41485
0.0546848
-0.0560944
-1.55637
1.55777
0.0561908
-0.05471
-1.427
1.42552
0.0524762
-0.0492615
-1.10446
1.10124
0.0456374
-0.0415128
-0.867536
0.863412
0.0375163
-0.0331975
-0.689668