/*--------------------------------*- C++ -*----------------------------------*\
| =========                 |                                                 |
| \\      /  F ield         | OpenFOAM: The Open Source CFD Toolbox           |
|  \\    /   O peration     | Version:  2112                                  |
|   \\  /    A nd           | Website:  www.openfoam.com                      |
|    \\/     M anipulation  |                                                 |
\*---------------------------------------------------------------------------*/
FoamFile
{
    version     2.0;
    format      ascii;
    arch        "LSB;label=32;scalar=64";
    class       volVectorField;
    location    "24.5";
    object      U;
}
// * * * * * * * * * * * * * * * * * * * * * * * * * * * * * * * * * * * * * //

dimensions      [0 1 -1 0 0 0 0];

internalField   nonuniform List<vector> 
8800
(
(0.980145 -0.0915207 0)
(1.00234 -0.0587268 0)
(0.999611 -0.0321254 0)
(1 -0.0165156 0)
(1.00005 -0.0088272 0)
(1.00003 -0.00507457 0)
(1.00001 -0.0029742 0)
(1.00001 -0.00168406 0)
(1 -0.000810346 0)
(1.00005 -0.000127338 0)
(0.999998 0.000561955 0)
(0.999999 0.00131455 0)
(1 0.00234941 0)
(1.00002 0.00396796 0)
(1.00003 0.00672138 0)
(1.00005 0.0120318 0)
(0.999885 0.0230871 0)
(0.99908 0.0431552 0)
(1.00721 0.0790304 0)
(0.775022 0.0478396 0)
(0.35899 -0.0147483 0)
(1.0465 -0.0724851 0)
(1.08849 -0.0660244 0)
(1.04947 -0.0509103 0)
(1.02554 -0.0376774 0)
(1.01268 -0.0258589 0)
(1.00648 -0.0166634 0)
(1.00356 -0.0102232 0)
(1.00215 -0.00565383 0)
(1.00151 -0.00211006 0)
(1.00139 0.00105926 0)
(1.00174 0.0043523 0)
(1.00269 0.008242 0)
(1.00472 0.0135559 0)
(1.00897 0.0212502 0)
(1.018 0.0317638 0)
(1.03591 0.0445682 0)
(1.06753 0.0580438 0)
(1.09476 0.0699679 0)
(0.845743 0.055493 0)
(0.217796 -0.00137891 0)
(1.07569 -0.0506314 0)
(1.09943 -0.0489176 0)
(1.06437 -0.0400152 0)
(1.03982 -0.0325679 0)
(1.02369 -0.0253597 0)
(1.01394 -0.0181641 0)
(1.00847 -0.0115952 0)
(1.00563 -0.00591009 0)
(1.00448 -0.00070934 0)
(1.00481 0.00432905 0)
(1.00667 0.00960314 0)
(1.0106 0.015604 0)
(1.01792 0.0224083 0)
(1.03054 0.029544 0)
(1.0506 0.0366533 0)
(1.08022 0.0444402 0)
(1.10586 0.0517906 0)
(0.943558 0.0409371 0)
(0.217382 0.00139538 0)
(0.176683 -0.000627002 0)
(1.01946 -0.0354187 0)
(1.10574 -0.0413459 0)
(1.07795 -0.0363047 0)
(1.05233 -0.0302271 0)
(1.03503 -0.0243584 0)
(1.02319 -0.0186474 0)
(1.01542 -0.0127835 0)
(1.01085 -0.00682946 0)
(1.00887 -0.00070858 0)
(1.00943 0.00537199 0)
(1.01253 0.0112342 0)
(1.01848 0.0169775 0)
(1.02809 0.0225462 0)
(1.04235 0.0281121 0)
(1.06327 0.033955 0)
(1.09416 0.039923 0)
(1.09483 0.0415344 0)
(0.830902 0.0226646 0)
(0.175985 0.000640307 0)
(0.154833 -0.000460248 0)
(0.95836 -0.0255969 0)
(1.10443 -0.035 0)
(1.08804 -0.032584 0)
(1.0611 -0.028119 0)
(1.04295 -0.0231731 0)
(1.03056 -0.0179147 0)
(1.02201 -0.0124824 0)
(1.01651 -0.00673009 0)
(1.01391 -0.000475167 0)
(1.01461 0.00580907 0)
(1.01846 0.0116018 0)
(1.02526 0.016928 0)
(1.03544 0.0220093 0)
(1.05028 0.0269082 0)
(1.07235 0.031382 0)
(1.10148 0.0352825 0)
(1.07047 0.0335818 0)
(0.74391 0.0142809 0)
(0.153792 0.000475259 0)
(0.140264 -0.000329622 0)
(0.901685 -0.0191307 0)
(1.09685 -0.0299075 0)
(1.09599 -0.0289986 0)
(1.06862 -0.0252413 0)
(1.04973 -0.0212532 0)
(1.03676 -0.0167306 0)
(1.02778 -0.0117011 0)
(1.02187 -0.00622405 0)
(1.01895 -0.000103561 0)
(1.01967 0.00608024 0)
(1.02379 0.0116036 0)
(1.03091 0.0165247 0)
(1.04152 0.0209701 0)
(1.05697 0.0248971 0)
(1.07986 0.0284465 0)
(1.10394 0.0312669 0)
(1.03938 0.0274988 0)
(0.678156 0.0100462 0)
(0.138803 0.000347723 0)
(0.129704 -0.000248568 0)
(0.852422 -0.0146196 0)
(1.08474 -0.0256443 0)
(1.10174 -0.0259508 0)
(1.07532 -0.022638 0)
(1.05574 -0.0190716 0)
(1.04228 -0.0151265 0)
(1.03294 -0.0105776 0)
(1.0268 -0.00539718 0)
(1.02371 0.000406178 0)
(1.02436 0.0062088 0)
(1.02852 0.0113736 0)
(1.03581 0.0158339 0)
(1.04674 0.019646 0)
(1.06273 0.0229902 0)
(1.08627 0.0261015 0)
(1.10367 0.0280626 0)
(1.00589 0.0226875 0)
(0.627639 0.00754248 0)
(0.127736 0.000270619 0)
(0.121804 -0.000185144 0)
(0.811048 -0.0112145 0)
(1.06966 -0.0216448 0)
(1.10501 -0.02296 0)
(1.08127 -0.0202811 0)
(1.0613 -0.0170596 0)
(1.04753 -0.0134043 0)
(1.03786 -0.00921637 0)
(1.03136 -0.00444821 0)
(1.02801 0.000983252 0)
(1.02859 0.00642555 0)
(1.03287 0.0111082 0)
(1.04037 0.0150616 0)
(1.0515 0.0184407 0)
(1.06776 0.0213775 0)
(1.09159 0.0240319 0)
(1.10045 0.0250211 0)
(0.972593 0.0186371 0)
(0.588158 0.0058165 0)
(0.119218 0.000212266 0)
(0.115868 -0.000140174 0)
(0.777062 -0.00858419 0)
(1.05353 -0.0179868 0)
(1.10709 -0.0198619 0)
(1.0866 -0.0175056 0)
(1.06628 -0.0145314 0)
(1.05228 -0.0113039 0)
(1.04241 -0.00759365 0)
(1.03572 -0.00327502 0)
(1.0322 0.00172675 0)
(1.03261 0.00670521 0)
(1.03681 0.010822 0)
(1.0443 0.0141686 0)
(1.05551 0.016958 0)
(1.07198 0.0194244 0)
(1.09561 0.0217782 0)
(1.0949 0.0221474 0)
(0.941311 0.0153171 0)
(0.556871 0.00456323 0)
(0.112531 0.000173998 0)
(0.111489 -0.00010045 0)
(0.74978 -0.00638853 0)
(1.03747 -0.0145262 0)
(1.1084 -0.016887 0)
(1.09169 -0.0149372 0)
(1.07087 -0.012274 0)
(1.05654 -0.00935694 0)
(1.0466 -0.00588908 0)
(1.03979 -0.00187068 0)
(1.03604 0.00264196 0)
(1.03626 0.00700288 0)
(1.0403 0.010602 0)
(1.04762 0.0135062 0)
(1.0588 0.0158187 0)
(1.07573 0.0178402 0)
(1.0987 0.0197489 0)
(1.08758 0.0194161 0)
(0.912853 0.0124505 0)
(0.532063 0.00357353 0)
(0.107234 0.000142174 0)
(0.108391 -7.06541e-05 0)
(0.728643 -0.00451434 0)
(1.0223 -0.0111884 0)
(1.10842 -0.0138493 0)
(1.09593 -0.0125096 0)
(1.07493 -0.0101238 0)
(1.06034 -0.0073482 0)
(1.05015 -0.00410848 0)
(1.04313 -0.000394166 0)
(1.03917 0.00372035 0)
(1.0391 0.00761684 0)
(1.04288 0.010691 0)
(1.05013 0.0130725 0)
(1.06142 0.0150454 0)
(1.0785 0.0166809 0)
(1.10001 0.0179051 0)
(1.07857 0.016724 0)
(0.887718 0.00997067 0)
(0.512489 0.0027876 0)
(0.103005 0.000123251 0)
(0.106447 -3.7193e-05 0)
(0.71344 -0.00273242 0)
(1.00921 -0.0077617 0)
(1.10753 -0.0102484 0)
(1.09958 -0.00922325 0)
(1.0789 -0.00712491 0)
(1.06424 -0.00470919 0)
(1.05385 -0.00182168 0)
(1.04659 0.00143106 0)
(1.04232 0.00504188 0)
(1.04192 0.00836005 0)
(1.04547 0.0107154 0)
(1.05255 0.0124101 0)
(1.06364 0.0136595 0)
(1.08055 0.0147315 0)
(1.09989 0.0154825 0)
(1.06881 0.0138278 0)
(0.866473 0.00767157 0)
(0.497536 0.00207447 0)
(0.0996666 0.000103098 0)
(0.105686 1.95342e-06 0)
(0.703775 -0.00115003 0)
(0.998788 -0.00465091 0)
(1.10652 -0.00684611 0)
(1.10268 -0.0060114 0)
(1.08209 -0.00427623 0)
(1.06724 -0.00228136 0)
(1.05678 0.000289478 0)
(1.04942 0.00331452 0)
(1.04492 0.0066147 0)
(1.04403 0.00949524 0)
(1.04699 0.0113954 0)
(1.05364 0.0125085 0)
(1.06459 0.0130585 0)
(1.0817 0.0133698 0)
(1.09902 0.0135167 0)
(1.059 0.0113885 0)
(0.848932 0.00576407 0)
(0.486587 0.00150723 0)
(0.0971704 7.92831e-05 0)
(0.105932 4.28296e-05 0)
(0.698891 4.57624e-05 0)
(0.990806 -0.00200037 0)
(1.10501 -0.00398257 0)
(1.10505 -0.00357551 0)
(1.08489 -0.00210922 0)
(1.07005 -0.000158628 0)
(1.0596 0.00242564 0)
(1.05204 0.00541184 0)
(1.04706 0.00853646 0)
(1.04566 0.0110495 0)
(1.04818 0.0125404 0)
(1.05432 0.013214 0)
(1.06477 0.0133652 0)
(1.08146 0.0131815 0)
(1.09661 0.0125404 0)
(1.04866 0.00963801 0)
(0.834548 0.0045478 0)
(0.478447 0.0012185 0)
(0.0952939 6.23959e-05 0)
(0.106926 5.84396e-05 0)
(0.697639 0.000801394 0)
(0.98561 -3.90362e-05 0)
(1.10325 -0.00142525 0)
(1.10691 -0.00116263 0)
(1.08768 0.000148735 0)
(1.07306 0.00226927 0)
(1.06266 0.00499139 0)
(1.05489 0.00797493 0)
(1.04939 0.0109208 0)
(1.04733 0.0131058 0)
(1.04907 0.0140934 0)
(1.05451 0.0142194 0)
(1.06444 0.0138342 0)
(1.08047 0.013318 0)
(1.09275 0.012063 0)
(1.03819 0.00875741 0)
(0.822538 0.00424753 0)
(0.471396 0.00124385 0)
(0.0936124 6.28425e-05 0)
(0.108371 7.75511e-05 0)
(0.698552 0.00126205 0)
(0.983457 0.00134861 0)
(1.1024 0.00100748 0)
(1.10874 0.00169142 0)
(1.0906 0.00327538 0)
(1.07617 0.00565023 0)
(1.06549 0.00841292 0)
(1.05721 0.011252 0)
(1.05105 0.0138947 0)
(1.04814 0.0155571 0)
(1.04913 0.0159029 0)
(1.05393 0.0155295 0)
(1.06325 0.0147332 0)
(1.07863 0.0136647 0)
(1.08818 0.0120581 0)
(1.02833 0.00882331 0)
(0.8115 0.00462299 0)
(0.463984 0.00143786 0)
(0.0917523 7.50774e-05 0)
(0.110263 9.38768e-05 0)
(0.701187 0.00174644 0)
(0.983824 0.00239463 0)
(1.10369 0.00285547 0)
(1.1118 0.00442426 0)
(1.09414 0.00655125 0)
(1.0795 0.00923117 0)
(1.0685 0.0121368 0)
(1.0597 0.015033 0)
(1.05274 0.0175253 0)
(1.04877 0.018761 0)
(1.04881 0.0185401 0)
(1.05292 0.0175639 0)
(1.06154 0.0162976 0)
(1.07614 0.0149272 0)
(1.08355 0.013179 0)
(1.01894 0.00992821 0)
(0.799804 0.00535287 0)
(0.455489 0.00169963 0)
(0.0895193 9.47389e-05 0)
(0.112685 0.000115176 0)
(0.705392 0.00241216 0)
(0.985329 0.00347932 0)
(1.10633 0.00419484 0)
(1.11621 0.00604468 0)
(1.09836 0.00868554 0)
(1.08326 0.0119752 0)
(1.07173 0.0154821 0)
(1.06222 0.0189862 0)
(1.05421 0.0219418 0)
(1.04894 0.0233245 0)
(1.0478 0.0229606 0)
(1.05103 0.0214571 0)
(1.05939 0.0195802 0)
(1.07343 0.0178723 0)
(1.07859 0.0159355 0)
(1.00806 0.0117082 0)
(0.786258 0.00612402 0)
(0.445717 0.00198537 0)
(0.0868078 0.000118825 0)
(0.115829 0.000148924 0)
(0.711899 0.00339992 0)
(0.9875 0.00523328 0)
(1.10898 0.00573797 0)
(1.12079 0.00730857 0)
(1.10339 0.0101116 0)
(1.08791 0.0141139 0)
(1.07591 0.0186842 0)
(1.06558 0.0233762 0)
(1.05621 0.0273966 0)
(1.04941 0.0294914 0)
(1.04686 0.0294887 0)
(1.04876 0.0281376 0)
(1.05608 0.0259566 0)
(1.06978 0.0233207 0)
(1.07122 0.0196925 0)
(0.993722 0.0134704 0)
(0.770876 0.00684628 0)
(0.434712 0.00229573 0)
(0.0835936 0.000142814 0)
(0.120008 0.000198712 0)
(0.721769 0.00475877 0)
(0.991214 0.00782754 0)
(1.11068 0.00844026 0)
(1.125 0.00955538 0)
(1.10899 0.0123921 0)
(1.09384 0.0172123 0)
(1.08144 0.0230871 0)
(1.07001 0.0291028 0)
(1.05895 0.0342301 0)
(1.05033 0.0369543 0)
(1.04608 0.0371334 0)
(1.04637 0.035656 0)
(1.05195 0.0329882 0)
(1.06315 0.0290131 0)
(1.05902 0.0230275 0)
(0.975949 0.0149551 0)
(0.754158 0.00770682 0)
(0.422273 0.00268236 0)
(0.0798052 0.000169881 0)
(0.125642 0.000275397 0)
(0.736132 0.00656278 0)
(0.998238 0.0113254 0)
(1.11254 0.0131366 0)
(1.12882 0.0141834 0)
(1.11525 0.0174258 0)
(1.10123 0.0232493 0)
(1.08831 0.0302335 0)
(1.07535 0.0371676 0)
(1.06215 0.0428024 0)
(1.05123 0.0453946 0)
(1.04497 0.0449754 0)
(1.04324 0.0425893 0)
(1.04641 0.038831 0)
(1.05293 0.033232 0)
(1.04283 0.02541 0)
(0.956572 0.0164925 0)
(0.736258 0.00889905 0)
(0.407944 0.00317305 0)
(0.0753646 0.00019822 0)
(0.133255 0.000385744 0)
(0.75604 0.00891541 0)
(1.01036 0.0157957 0)
(1.11725 0.0195089 0)
(1.13353 0.0217959 0)
(1.12303 0.0265002 0)
(1.10982 0.0332574 0)
(1.09596 0.0409141 0)
(1.081 0.0481559 0)
(1.06513 0.0534702 0)
(1.05143 0.0550095 0)
(1.04269 0.0530928 0)
(1.03854 0.0490068 0)
(1.0385 0.0435189 0)
(1.04008 0.0364267 0)
(1.02513 0.0278049 0)
(0.936902 0.0187739 0)
(0.716517 0.0106078 0)
(0.391092 0.00381422 0)
(0.0701474 0.000230793 0)
(0.143575 0.00055182 0)
(0.782649 0.0122152 0)
(1.02898 0.0216258 0)
(1.12736 0.0277955 0)
(1.14174 0.0325372 0)
(1.13255 0.039145 0)
(1.11928 0.0470601 0)
(1.10387 0.0552381 0)
(1.08633 0.0623254 0)
(1.06718 0.066581 0)
(1.05017 0.0662349 0)
(1.03848 0.0621115 0)
(1.03158 0.0559206 0)
(1.02822 0.0485259 0)
(1.02577 0.0403188 0)
(1.00721 0.0313904 0)
(0.916541 0.0220996 0)
(0.694026 0.0128084 0)
(0.371003 0.00457685 0)
(0.0639689 0.000267377 0)
(0.157856 0.000818726 0)
(0.817725 0.0170807 0)
(1.05548 0.0295095 0)
(1.14376 0.0383477 0)
(1.15481 0.0461266 0)
(1.14466 0.0551397 0)
(1.12986 0.064588 0)
(1.11183 0.073305 0)
(1.09088 0.0798894 0)
(1.06778 0.0825231 0)
(1.04694 0.0797346 0)
(1.03201 0.0730531 0)
(1.02218 0.064587 0)
(1.01584 0.0553997 0)
(1.01035 0.0461618 0)
(0.988798 0.0367884 0)
(0.894088 0.0266628 0)
(0.667202 0.0156015 0)
(0.346912 0.00549366 0)
(0.0567506 0.000306786 0)
(0.178293 0.00129221 0)
(0.864394 0.0247905 0)
(1.09141 0.0411186 0)
(1.1671 0.0528699 0)
(1.17318 0.0641457 0)
(1.15983 0.07577 0)
(1.14161 0.0867052 0)
(1.11958 0.0956619 0)
(1.09426 0.101254 0)
(1.06654 0.101711 0)
(1.04149 0.0960556 0)
(1.02315 0.0866246 0)
(1.0104 0.0758174 0)
(1.00144 0.064864 0)
(0.993486 0.0544446 0)
(0.96875 0.0441935 0)
(0.867955 0.0325144 0)
(0.634894 0.0190384 0)
(0.318254 0.00656697 0)
(0.0484098 0.000344183 0)
(0.20821 0.00236012 0)
(0.928274 0.0383041 0)
(1.13878 0.0604683 0)
(1.19782 0.0747806 0)
(1.19651 0.0898757 0)
(1.17751 0.103456 0)
(1.15391 0.114993 0)
(1.12651 0.123258 0)
(1.09591 0.126967 0)
(1.06311 0.124489 0)
(1.03363 0.115476 0)
(1.01183 0.103088 0)
(0.996261 0.0899033 0)
(0.984915 0.077132 0)
(0.974615 0.065357 0)
(0.945763 0.0538071 0)
(0.836521 0.0398115 0)
(0.596052 0.0231737 0)
(0.285248 0.0078315 0)
(0.0392362 0.000369099 0)
(0.249364 0.00880657 -1.27973e-20)
(1.01296 0.0658116 -9.95458e-21)
(1.19488 0.0932384 2.78407e-21)
(1.23432 0.110275 0)
(1.22209 0.12719 3.77527e-36)
(1.19564 0.140746 1.12064e-22)
(1.16535 0.151163 -1.21573e-21)
(1.13168 0.157456 0)
(1.09516 0.158384 4.72384e-35)
(1.05673 0.152408 -3.61279e-21)
(1.02242 0.139802 0)
(0.996763 0.124426 -5.20902e-21)
(0.978052 0.10893 -1.59512e-20)
(0.964015 0.0944483 -7.72388e-21)
(0.950952 0.0814924 -2.43257e-21)
(0.917472 0.0688907 -1.47115e-21)
(0.796079 0.0517856 0)
(0.547024 0.0303362 1.05141e-21)
(0.247683 0.0111971 1.24463e-21)
(0.0309601 0.00106693 2.20832e-20)
(0.276708 0.0247777 -2.373e-20)
(1.08246 0.109532 5.07207e-22)
(1.24186 0.141078 -1.37035e-21)
(1.26729 0.159446 0)
(1.24513 0.174844 2.15811e-21)
(1.2114 0.186796 1.17945e-21)
(1.1743 0.195344 -7.5892e-22)
(1.13413 0.199427 -6.05324e-21)
(1.09123 0.197731 0)
(1.04629 0.188613 1.53519e-20)
(1.006 0.172847 1.70326e-20)
(0.97527 0.154879 5.49102e-21)
(0.952267 0.137353 2.17085e-20)
(0.934442 0.121151 3.19691e-20)
(0.916957 0.106631 0)
(0.876461 0.0921734 4.74465e-20)
(0.746746 0.0715107 6.90143e-20)
(0.497323 0.0442432 7.69358e-20)
(0.217419 0.0184295 -8.86324e-20)
(0.0250495 0.00216351 -1.64093e-21)
(0.275294 0.0403016 0)
(1.12476 0.166312 -7.34941e-21)
(1.27529 0.200871 0)
(1.29273 0.218418 1.18554e-20)
(1.26314 0.230324 0)
(1.2231 0.238954 5.96014e-21)
(1.1798 0.244291 7.69386e-22)
(1.13353 0.245177 -8.86849e-21)
(1.08465 0.240177 -1.56784e-21)
(1.03366 0.227662 7.44997e-21)
(0.987771 0.208813 3.98824e-20)
(0.952502 0.188621 -3.0409e-22)
(0.925697 0.169581 -1.63463e-20)
(0.904552 0.1524 -3.17558e-20)
(0.884031 0.137006 3.84765e-20)
(0.841808 0.121331 -6.91602e-20)
(0.717561 0.0969915 -9.41907e-21)
(0.483419 0.0637149 0)
(0.222757 0.0292696 5.46324e-23)
(0.0286146 0.00403124 0)
(0.267598 0.0538955 -1.82663e-19)
(1.14595 0.226026 7.56038e-20)
(1.2965 0.265606 4.06382e-20)
(1.30944 0.282035 -7.78168e-21)
(1.27472 0.290135 1.18726e-20)
(1.22988 0.294819 -1.43277e-20)
(1.18155 0.296314 7.65478e-22)
(1.13006 0.293467 0)
(1.07584 0.28478 -2.91252e-20)
(1.01945 0.268606 0)
(0.968654 0.246696 -2.04029e-20)
(0.929465 0.224415 -2.87652e-20)
(0.899566 0.204143 -1.83982e-20)
(0.875937 0.186203 -2.37425e-20)
(0.85362 0.170233 0)
(0.812284 0.153616 0)
(0.69963 0.126687 -6.36427e-20)
(0.486089 0.0881272 1.26802e-20)
(0.237636 0.0435025 -7.37047e-21)
(0.0347862 0.00677244 -8.61047e-21)
(0.259543 0.0660553 1.35553e-19)
(1.15385 0.285404 0)
(1.3084 0.331534 -1.14215e-19)
(1.31844 0.346913 -2.93033e-20)
(1.28012 0.351371 -2.22012e-20)
(1.23172 0.352128 0)
(1.17943 0.349728 -2.79633e-21)
(1.1237 0.343011 7.90134e-21)
(1.06496 0.330509 1.27371e-20)
(1.00389 0.310578 3.80577e-20)
(0.948932 0.285542 0)
(0.906581 0.261143 -6.29392e-20)
(0.874315 0.23965 -4.03462e-20)
(0.848849 0.221087 -2.4359e-20)
(0.825437 0.204797 1.59793e-19)
(0.786063 0.187407 1.96366e-20)
(0.685179 0.158943 9.3432e-20)
(0.49057 0.11425 -4.49188e-19)
(0.25095 0.0593271 2.67201e-19)
(0.0402233 0.00992543 -3.22058e-19)
(0.2523 0.0770564 1.43415e-19)
(1.15341 0.342569 -2.66853e-20)
(1.31332 0.396754 2.01345e-20)
(1.32136 0.411259 5.46625e-20)
(1.28041 0.412324 3.34413e-20)
(1.22929 0.409352 1.69319e-21)
(1.17389 0.403214 2.42322e-21)
(1.11466 0.392733 5.82819e-21)
(1.05216 0.376445 -2.81516e-20)
(0.987096 0.352755 0)
(0.92864 0.324509 -2.70139e-20)
(0.883776 0.297918 -1.54748e-21)
(0.849809 0.27506 -4.52975e-20)
(0.823196 0.255819 0)
(0.799374 0.239208 -3.49753e-20)
(0.762212 0.221414 -8.52058e-20)
(0.670562 0.191434 2.34927e-19)
(0.490362 0.140551 -2.33179e-19)
(0.257558 0.0748032 3.31372e-19)
(0.0435627 0.0129516 -3.44956e-19)
(0.246456 0.0872922 -4.1474e-22)
(1.14792 0.396924 3.2736e-20)
(1.31296 0.459892 9.63028e-20)
(1.31957 0.473883 -3.35273e-20)
(1.27668 0.471919 1.91023e-20)
(1.22343 0.465549 0)
(1.1655 0.455918 8.58688e-21)
(1.10339 0.44186 -4.41909e-21)
(1.03767 0.421923 -1.28576e-20)
(0.969209 0.394498 0)
(0.907752 0.362962 -2.6478e-20)
(0.86084 0.333982 -3.72842e-20)
(0.82567 0.309521 4.96901e-20)
(0.798453 0.289332 -3.18471e-20)
(0.774749 0.272139 -1.5459e-19)
(0.73976 0.253698 9.50783e-20)
(0.655008 0.221882 2.98439e-20)
(0.484808 0.164451 0)
(0.257525 0.0880317 -3.22129e-19)
(0.044464 0.0153539 -1.1858e-20)
(0.241958 0.0970712 2.35797e-20)
(1.1395 0.448315 -3.76982e-20)
(1.30874 0.520402 -5.27168e-20)
(1.31425 0.534166 -1.03176e-19)
(1.26986 0.529554 9.28377e-20)
(1.21492 0.520129 -4.92027e-20)
(1.15494 0.507286 -1.79824e-20)
(1.09037 0.489898 -6.36975e-21)
(1.02186 0.466497 1.29468e-20)
(0.950361 0.435422 -9.36996e-20)
(0.88632 0.400513 -3.26403e-20)
(0.837664 0.368902 0)
(0.801534 0.342522 5.44404e-20)
(0.774049 0.320983 6.7405e-20)
(0.750685 0.302789 8.30775e-20)
(0.71757 0.283305 -1.03866e-19)
(0.637883 0.249081 -3.12354e-20)
(0.474533 0.184884 3.69045e-20)
(0.252834 0.0986263 0)
(0.0438426 0.0171287 -2.5865e-20)
(0.238616 0.106528 -2.74109e-19)
(1.12958 0.496871 1.72717e-19)
(1.30179 0.578033 5.80537e-20)
(1.30635 0.591758 -7.88057e-20)
(1.26073 0.584859 5.55939e-20)
(1.20443 0.572711 -3.93973e-21)
(1.14273 0.55697 1.74702e-20)
(1.07607 0.536531 -2.88604e-21)
(1.00507 0.509882 -2.3318e-20)
(0.930805 0.475289 1.97599e-22)
(0.864345 0.436947 -9.7549e-20)
(0.814241 0.402508 9.52817e-20)
(0.77739 0.37394 -6.10953e-20)
(0.749741 0.350667 7.60768e-20)
(0.726761 0.331136 0)
(0.69511 0.310174 -5.64338e-20)
(0.618915 0.273 -1.09152e-21)
(0.460258 0.202128 -1.61625e-19)
(0.244103 0.106564 -2.38225e-20)
(0.0419134 0.0182107 0)
(0.23625 0.115779 0)
(1.11899 0.542824 1.87765e-19)
(1.29289 0.63266 1.35429e-19)
(1.29656 0.646557 8.89764e-20)
(1.24991 0.637637 5.34537e-20)
(1.19251 0.623075 0)
(1.12937 0.604744 1.70513e-20)
(1.06088 0.581547 -1.19141e-21)
(0.987634 0.551918 4.96804e-20)
(0.910791 0.513984 -1.15152e-20)
(0.842023 0.472209 -7.15736e-20)
(0.790474 0.434731 4.77165e-20)
(0.752954 0.403671 -1.97872e-21)
(0.725177 0.378407 8.01203e-20)
(0.702603 0.357209 5.24224e-20)
(0.672075 0.334361 -1.22863e-19)
(0.598067 0.293495 1.48376e-19)
(0.442706 0.215804 4.42056e-20)
(0.232208 0.111968 1.82446e-19)
(0.0390101 0.0185881 -4.88569e-19)
(0.234781 0.12493 -7.04625e-20)
(1.10832 0.58635 1.08382e-19)
(1.2828 0.684369 -8.4438e-20)
(1.28543 0.698519 -1.03331e-19)
(1.23794 0.687795 0)
(1.17962 0.671104 4.30322e-20)
(1.11525 0.650483 -4.88667e-20)
(1.04514 0.624823 1.37657e-21)
(0.969848 0.592498 0)
(0.890528 0.551453 -1.78887e-19)
(0.819408 0.50628 1.95342e-19)
(0.766251 0.465648 0)
(0.727999 0.43178 7.23444e-20)
(0.700127 0.404177 -1.97684e-21)
(0.677893 0.38101 -1.65794e-19)
(0.648086 0.355875 6.5231e-20)
(0.575292 0.310767 0)
(0.422492 0.226036 2.39668e-19)
(0.217959 0.114949 0)
(0.0354698 0.0184094 -2.32672e-19)
(0.233986 0.134038 7.86369e-20)
(1.09788 0.627634 1.23886e-19)
(1.27186 0.733182 -8.85413e-20)
(1.27341 0.74764 0)
(1.22522 0.735316 7.36505e-20)
(1.16613 0.716756 0)
(1.10072 0.694116 6.45934e-20)
(1.02916 0.666286 6.70353e-21)
(0.95195 0.631567 5.20926e-21)
(0.87017 0.587672 -8.84385e-20)
(0.796564 0.539243 1.89759e-20)
(0.741702 0.495334 0)
(0.702519 0.458476 -1.53846e-19)
(0.674443 0.428279 2.03723e-21)
(0.652445 0.402828 0)
(0.622971 0.374974 2.39185e-21)
(0.55046 0.324958 2.18324e-19)
(0.399656 0.232832 -2.09363e-19)
(0.201744 0.115514 6.18087e-20)
(0.0314438 0.0176285 0)
(0.233543 0.14295 0)
(1.08789 0.666743 1.38675e-19)
(1.26041 0.779249 1.03856e-19)
(1.26088 0.793976 -2.24237e-21)
(1.21209 0.78023 4.62071e-20)
(1.15235 0.760031 1.01289e-19)
(1.08603 0.735626 -2.06593e-20)
(1.01317 0.705908 2.02167e-21)
(0.934152 0.6691 3.08094e-20)
(0.849919 0.622675 -1.38157e-19)
(0.773717 0.571185 -3.20817e-21)
(0.716863 0.523989 -6.29696e-20)
(0.676538 0.483926 2.52079e-19)
(0.648066 0.450855 -2.41715e-21)
(0.626176 0.422803 -1.30491e-19)
(0.596642 0.391745 -2.38441e-19)
(0.523646 0.336133 0)
(0.374462 0.236344 0)
(0.183807 0.113613 6.7563e-20)
(0.0271215 0.01628 -3.95689e-20)
(0.233669 0.151802 9.7928e-20)
(1.07838 0.703602 -3.04106e-19)
(1.24871 0.822675 -1.11296e-19)
(1.2481 0.837605 0)
(1.19879 0.822592 -1.53558e-21)
(1.13853 0.800956 1.21785e-19)
(1.07143 0.775022 -6.9598e-20)
(0.997401 0.743685 -2.86773e-20)
(0.916674 0.705105 3.21431e-20)
(0.830016 0.656502 -1.06637e-19)
(0.751012 0.602219 -1.65568e-19)
(0.691801 0.551786 1.67927e-19)
(0.649993 0.508352 0)
(0.62093 0.472103 -5.86684e-20)
(0.599003 0.441084 -1.43137e-19)
(0.569039 0.406252 -1.72572e-19)
(0.494808 0.344176 -2.089e-19)
(0.347046 0.23643 6.23021e-20)
(0.164299 0.109133 -3.6551e-20)
(0.0224695 0.0143596 3.67101e-22)
(0.233788 0.160507 0)
(1.06952 0.738552 0)
(1.23695 0.863524 2.54073e-21)
(1.23527 0.878617 0)
(1.18552 0.862484 -1.73581e-19)
(1.12483 0.839589 -1.07667e-19)
(1.05708 0.812332 0)
(0.982018 0.779634 -7.3002e-21)
(0.899703 0.73959 4.11234e-20)
(0.810617 0.689178 -2.45188e-19)
(0.728601 0.632443 0)
(0.66668 0.578936 -1.07635e-19)
(0.622939 0.531994 -2.96459e-21)
(0.592959 0.492207 -2.43914e-21)
(0.570817 0.457776 1.52655e-19)
(0.54007 0.418474 -4.26234e-22)
(0.463962 0.349033 -4.53151e-19)
(0.317358 0.232917 1.35368e-19)
(0.143442 0.102142 4.01235e-20)
(0.0176654 0.0119924 0)
(0.23392 0.168964 -3.60435e-19)
(1.06104 0.771773 -1.86836e-19)
(1.22525 0.901907 -2.79038e-19)
(1.22254 0.917113 3.88451e-19)
(1.17244 0.899974 -3.25476e-19)
(1.11142 0.875989 0)
(1.04313 0.847601 -5.92599e-20)
(0.967159 0.813775 1.3512e-20)
(0.883359 0.772564 3.76553e-21)
(0.79188 0.720735 1.93663e-20)
(0.706683 0.661952 2.0794e-19)
(0.641634 0.605623 -3.68425e-20)
(0.595448 0.55512 -1.55543e-19)
(0.564077 0.511428 -6.9582e-20)
(0.541475 0.472959 8.48597e-20)
(0.509662 0.428276 -3.1581e-22)
(0.431289 0.350448 1.23881e-19)
(0.285695 0.225666 -2.93275e-19)
(0.121893 0.0929046 3.48348e-19)
(0.0129298 0.00931157 5.05537e-20)
(0.233939 0.177109 1.32461e-19)
(1.05294 0.803312 -1.02336e-19)
(1.21373 0.937949 6.02479e-21)
(1.21002 0.953221 2.19544e-19)
(1.15966 0.935169 7.61256e-20)
(1.09839 0.910223 2.14835e-19)
(1.02968 0.880875 -2.63559e-20)
(0.95292 0.84613 6.49598e-20)
(0.867756 0.804029 -2.38727e-20)
(0.773954 0.751175 -1.34423e-19)
(0.685442 0.690818 0)
(0.616861 0.632015 -1.65799e-19)
(0.567601 0.57804 2.25801e-19)
(0.534166 0.530086 0)
(0.510675 0.486698 -1.81586e-19)
(0.47759 0.435289 1.12118e-19)
(0.396917 0.347856 -1.33754e-19)
(0.253098 0.214594 -1.59899e-19)
(0.100616 0.0819014 -2.82818e-19)
(0.00851171 0.00650326 -2.20602e-19)
(0.234168 0.185022 -1.45691e-19)
(1.04507 0.833152 1.09407e-19)
(1.20244 0.971725 2.60432e-19)
(1.19781 0.987026 3.01875e-19)
(1.14726 0.968155 -1.59263e-19)
(1.08582 0.942374 1.48201e-19)
(1.0168 0.912206 -8.18636e-20)
(0.939372 0.876739 8.07271e-20)
(0.852976 0.834007 -8.22511e-21)
(0.756956 0.780503 1.29086e-19)
(0.665047 0.719075 4.42923e-19)
(0.592578 0.658258 0)
(0.539587 0.601059 0)
(0.503121 0.548628 -8.04939e-20)
(0.477913 0.499163 0)
(0.443281 0.438889 2.4371e-19)
(0.360943 0.340117 2.91377e-19)
(0.220868 0.199198 0)
(0.0810174 0.0696075 0)
(0.0047205 0.003856 2.39315e-19)
(0.23409 0.192463 1.60777e-19)
(1.03745 0.861303 1.31143e-19)
(1.19145 1.00336 1.87196e-19)
(1.18596 1.01865 -2.6955e-19)
(1.1353 0.999035 -1.77576e-19)
(1.07377 0.972518 -1.96596e-19)
(1.00453 0.941656 1.21307e-19)
(0.92657 0.905635 2.91584e-22)
(0.839084 0.862503 -4.84644e-21)
(0.740971 0.808706 -5.84378e-21)
(0.645676 0.746733 2.24711e-19)
(0.569018 0.684431 0)
(0.511659 0.624466 2.2834e-19)
(0.470936 0.567642 1.70025e-19)
(0.442467 0.51086 4.32318e-19)
(0.405444 0.438479 1.3159e-19)
(0.322969 0.325027 -1.59874e-19)
(0.191507 0.177408 -9.3677e-20)
(0.0673202 0.0560446 0)
(0.00290295 0.0019884 2.59268e-19)
(0.234226 0.199832 -3.53638e-19)
(1.03007 0.887869 0)
(1.18076 1.03292 2.09224e-19)
(1.17449 1.04819 -2.20846e-19)
(1.12382 1.0279 2.01044e-19)
(1.06226 1.00074 2.87234e-19)
(0.992922 0.969284 -2.81234e-19)
(0.914537 0.932854 2.70332e-21)
(0.826105 0.889526 0)
(0.726064 0.83575 -1.21627e-19)
(0.627469 0.77376 -4.67287e-19)
(0.546429 0.710576 2.27222e-20)
(0.484189 0.648468 3.1117e-19)
(0.437828 0.587805 0)
(0.403594 0.522805 2.92437e-19)
(0.361781 0.434395 0)
(0.279837 0.299531 0)
(0.166381 0.140441 -1.03718e-19)
(0.0759221 0.0302782 0)
(0.0255417 0.0105173 6.98969e-20)
(0.234016 0.206575 -3.86868e-19)
(1.02289 0.913164 0)
(1.17037 1.06061 3.38767e-19)
(1.16339 1.07585 0)
(1.11278 1.055 -1.0912e-19)
(1.05125 1.02731 0)
(0.981899 0.995394 -2.10706e-20)
(0.903177 0.95873 -1.40463e-20)
(0.813926 0.915436 -3.20687e-23)
(0.712094 0.862018 -1.20125e-19)
(0.610301 0.800574 1.23098e-20)
(0.524696 0.737247 1.8787e-19)
(0.457027 0.673617 3.01649e-19)
(0.4035 0.610159 4.3015e-20)
(0.359953 0.536966 2.29628e-19)
(0.308492 0.429287 0)
(0.219887 0.264677 3.4786e-19)
(0.11676 0.0771046 -2.04634e-19)
(0.0492093 0.0497553 2.35229e-19)
(-0.0671347 0.409683 -2.75202e-19)
(0.233794 0.213059 3.15438e-19)
(1.01568 0.937055 4.98873e-19)
(1.16019 1.08674 0)
(1.15253 1.10207 4.97849e-21)
(1.10202 1.08089 2.96515e-19)
(1.04047 1.0529 -5.55885e-19)
(0.971176 1.02076 -1.24034e-19)
(0.892118 0.984181 0)
(0.802065 0.941301 -2.27703e-20)
(0.698453 0.888794 -3.70485e-21)
(0.593346 0.828628 0)
(0.502796 0.766211 0)
(0.428969 0.701761 2.65256e-19)
(0.366851 0.636667 -1.34644e-19)
(0.309218 0.557016 -2.30159e-19)
(0.240849 0.429839 0)
(0.12528 0.244463 1.77754e-19)
(0.016684 0.428666 -2.0584e-19)
(0.0426041 1.82225 -1.06981e-19)
(0.0743465 2.77611 -1.39426e-19)
(0.233427 0.218689 -2.30898e-19)
(1.00869 0.959675 -6.29706e-19)
(1.15023 1.11132 1.95369e-19)
(1.14189 1.1267 1.87636e-19)
(1.09157 1.10536 0)
(1.02999 1.07723 -3.98018e-19)
(0.960928 1.04509 -2.07951e-19)
(0.881526 1.00878 9.41331e-21)
(0.790761 0.966609 -2.93062e-21)
(0.685486 0.915455 9.25182e-20)
(0.577168 0.85721 2.09538e-19)
(0.481679 0.796916 1.94301e-19)
(0.401208 0.732504 2.6102e-19)
(0.330219 0.66561 -3.08164e-19)
(0.257556 0.58565 -3.41796e-19)
(0.162605 0.456578 0)
(0.064485 0.809533 0)
(0.121704 2.50128 9.20317e-20)
(0.124172 3.17516 0)
(0.126556 3.37794 2.10239e-19)
(0.235511 0.223946 0)
(1.00244 0.981159 0)
(1.14026 1.13419 0)
(1.13127 1.14951 5.2301e-20)
(1.08114 1.12819 2.64684e-19)
(1.01959 1.10016 -3.03859e-19)
(0.951051 1.06826 -1.48939e-19)
(0.871356 1.03244 1.0729e-20)
(0.779978 0.99123 -6.036e-20)
(0.673217 0.941859 -1.01162e-20)
(0.561898 0.886184 3.79855e-19)
(0.461685 0.829132 -2.28412e-20)
(0.3743 0.766519 2.95061e-20)
(0.295541 0.69404 4.39898e-20)
(0.206059 0.622548 4.90805e-22)
(0.127284 0.921869 1.81927e-21)
(0.16638 2.64138 -4.68896e-19)
(0.182798 3.27533 -1.75289e-19)
(0.167322 3.42454 8.13888e-20)
(0.150143 3.44972 -8.42753e-20)
(0.153184 0.180845 1.31981e-19)
(0.990271 1.00443 0)
(1.13005 1.15555 -3.80233e-19)
(1.12135 1.17108 -4.82548e-19)
(1.07147 1.15013 5.51989e-19)
(1.01014 1.12232 3.22775e-19)
(0.941446 1.09039 1.74296e-19)
(0.861702 1.05526 -1.86129e-19)
(0.769907 1.01526 6.65288e-20)
(0.661999 0.968031 0)
(0.548061 0.915511 1.64612e-19)
(0.443535 0.862407 -1.4555e-19)
(0.349231 0.805848 0)
(0.264373 0.725196 3.87175e-20)
(0.184627 0.828748 9.25768e-20)
(0.18037 2.35103 -1.14805e-19)
(0.253698 3.31217 1.27788e-19)
(0.229516 3.44348 6.15972e-20)
(0.191114 3.46779 6.94236e-20)
(0.165407 3.47929 8.76059e-20)
(0.277388 0.260557 -2.45501e-19)
(0.974002 1.01241 0)
(1.11131 1.17922 3.92549e-19)
(1.10736 1.20277 5.03569e-19)
(1.05582 1.18225 -5.6843e-19)
(0.994171 1.15495 -3.43639e-19)
(0.924817 1.12441 -2.69258e-19)
(0.844679 1.09044 -1.37586e-20)
(0.751909 1.05258 -9.8191e-20)
(0.641858 1.00919 1.17789e-20)
(0.523785 0.963043 6.42323e-21)
(0.412498 0.917963 1.12413e-19)
(0.303895 0.87409 2.41402e-20)
(0.235336 0.977589 -3.48333e-20)
(0.258518 2.21093 -8.19734e-20)
(0.329748 3.31415 5.92128e-20)
(0.315883 3.48057 -5.36805e-20)
(0.275746 3.50495 -2.99461e-20)
(0.235058 3.53405 2.91615e-21)
(0.177375 3.52634 -6.77081e-22)
(0.264562 0.256755 0)
(0.970887 1.03368 1.03445e-19)
(1.10328 1.20161 -7.78674e-20)
(1.09755 1.22514 -5.62698e-20)
(1.04609 1.20461 -3.73857e-19)
(0.984584 1.17753 3.35755e-19)
(0.915013 1.14714 1.81483e-19)
(0.834927 1.11394 -1.44823e-20)
(0.742039 1.07755 1.22689e-19)
(0.631383 1.03695 -1.42611e-20)
(0.511694 0.995563 -2.12134e-19)
(0.397825 0.956922 1.59634e-20)
(0.292145 0.937178 -2.09166e-20)
(0.276885 1.4062 -2.87613e-20)
(0.36594 3.02878 1.83384e-20)
(0.399291 3.4732 9.10864e-22)
(0.353134 3.54388 -1.84661e-20)
(0.312616 3.56957 -4.16739e-20)
(0.258768 3.59464 7.33307e-20)
(0.192771 3.58946 2.78181e-20)
(0.247658 0.254507 2.53934e-19)
(0.96599 1.05743 6.97286e-19)
(1.09466 1.22593 -2.22637e-19)
(1.08726 1.24893 -2.13792e-19)
(1.03587 1.22822 0)
(0.974578 1.20115 4.92398e-19)
(0.905097 1.17098 2.77348e-19)
(0.82535 1.13852 -1.52925e-20)
(0.732673 1.10363 1.26756e-20)
(0.62192 1.06599 5.60642e-20)
(0.501386 1.02958 -6.50073e-20)
(0.386751 0.998202 -1.08379e-19)
(0.297119 1.05152 -1.36777e-19)
(0.350797 2.02838 1.51181e-19)
(0.459948 3.35948 7.84286e-20)
(0.45059 3.54258 0)
(0.397051 3.59175 0)
(0.357857 3.63801 6.94936e-20)
(0.29237 3.70751 0)
(0.205493 3.67478 1.48732e-19)
(0.236171 0.255415 -3.71276e-19)
(0.959118 1.08208 -5.80641e-19)
(1.0846 1.2513 0)
(1.07572 1.2735 5.8007e-21)
(1.02448 1.25236 -3.64662e-19)
(0.96351 1.22517 7.32397e-19)
(0.894457 1.19522 1.86826e-19)
(0.815263 1.16338 -1.92133e-20)
(0.723057 1.12991 1.39914e-19)
(0.612615 1.09515 -6.86995e-21)
(0.492024 1.06383 0)
(0.378809 1.04178 0)