/*--------------------------------*- C++ -*----------------------------------*\
| =========                 |                                                 |
| \\      /  F ield         | OpenFOAM: The Open Source CFD Toolbox           |
|  \\    /   O peration     | Version:  2112                                  |
|   \\  /    A nd           | Website:  www.openfoam.com                      |
|    \\/     M anipulation  |                                                 |
\*---------------------------------------------------------------------------*/
FoamFile
{
    version     2.0;
    format      ascii;
    arch        "LSB;label=32;scalar=64";
    class       surfaceScalarField;
    location    "39.5";
    object      phi;
}
// * * * * * * * * * * * * * * * * * * * * * * * * * * * * * * * * * * * * * //

dimensions      [0 3 -1 0 0 0 0];

oriented        oriented;

internalField   nonuniform List<scalar> 
17370
(
-0.0916071
0.0960071
0.284611
-0.0775908
0.0594147
0.364952
-0.0430369
0.031618
0.427587
-0.022314
0.0162606
0.505305
-0.0116655
0.00878919
0.602278
-0.0065762
0.00509275
0.720541
-0.0038622
0.00299046
0.863778
-0.00222668
0.00165436
1.03602
-0.00112641
0.000706985
1.24292
-0.000296421
-9.61513e-05
1.49158
0.000482437
-0.000889393
1.4916
0.00129073
-0.00179565
1.2432
0.00234924
-0.00309778
1.03639
0.00396142
-0.00518662
0.864132
0.00666463
-0.00886861
0.721261
0.0117334
-0.0163132
0.603794
0.0223521
-0.0316411
0.508728
0.0430445
-0.0594122
0.432536
0.07759
-0.0960047
0.36519
0.0916198
0.197391
-0.127087
0.0880176
0.0390694
-0.36435
0.354024
-0.0714789
0.081805
-0.446655
0.454247
-0.0791686
0.0715765
-0.521009
0.529106
-0.0637275
0.0556307
-0.612987
0.620758
-0.0482434
0.0404725
-0.72716
0.73368
-0.0338593
0.0273394
-0.86758
0.872419
-0.0221415
0.0173024
-1.03856
1.04189
-0.013618
0.0102913
-1.24471
1.24711
-0.00774826
0.00534837
-1.49284
1.49485
-0.0033889
0.00137941
-1.49269
1.49451
0.000438801
-0.00225544
-1.24411
1.24602
0.0042259
-0.0061354
-1.03761
1.04009
0.00847347
-0.0109589
-0.866188
0.869827
0.0142264
-0.0178647
-0.724596
0.729758
0.0226612
-0.0278229
-0.609068
0.615641
0.0343018
-0.0408745
-0.515126
0.522466
0.0485978
-0.0559376
-0.43988
0.447665
0.0639666
-0.0717516
-0.374712
0.377358
0.0792565
-0.0819024
-0.256904
0.224447
0.0715543
-0.0390977
-0.0688003
0.0591859
0.00961437
-0.0521227
0.058958
-0.374831
0.367996
-0.0581138
0.0542748
-0.453939
0.457778
-0.048789
0.0442301
-0.527607
0.532166
-0.0396794
0.0357835
-0.620789
0.624685
-0.0315737
0.0275876
-0.73465
0.738636
-0.0232475
0.0193777
-0.873947
0.877816
-0.0153497
0.0119047
-1.04335
1.0468
-0.00839596
0.00537149
-1.24864
1.25166
-0.00217096
-0.000806009
-1.49694
1.49992
0.00376224
-0.00690615
-1.49742
1.50056
0.00985129
-0.0132567
-1.25007
1.25348
0.0166013
-0.0205208
-1.04566
1.04958
0.0243004
-0.0285532
-0.877145
0.881398
0.0324655
-0.0365949
-0.738992
0.743122
0.040418
-0.0448938
-0.625984
0.63046
0.0493914
-0.0548183
-0.535027
0.540454
0.0585925
-0.05936
-0.458087
0.458855
0.0524238
-0.0320488
-0.336782
0.316407
0.00966839
-0.0686749
0.0590065
-0.0533936
0.0492791
0.00411448
-0.0332648
0.0436978
-0.358539
0.348106
-0.0473799
0.046797
-0.459563
0.460146
-0.0438708
0.040659
-0.536113
0.539325
-0.0369823
0.0336294
-0.628373
0.631726
-0.0300024
0.0267747
-0.742013
0.745241
-0.0233435
0.0201661
-0.881312
0.88449
-0.0165925
0.0132557
-1.05021
1.05355
-0.00957318
0.00618296
-1.25492
1.25831
-0.00240628
-0.0011992
-1.50326
1.50687
0.00477716
-0.00847318
-1.50406
1.50776
0.0117536
-0.015289
-1.25704
1.26058
0.0184791
-0.0218907
-1.05329
1.0567
0.0249321
-0.0282321
-0.885006
0.888306
0.0313511
-0.0348652
-0.746808
0.750322
0.0381157
-0.0416813
-0.634589
0.638154
0.0447968
-0.0476171
-0.544605
0.547425
0.0480934
-0.0442648
-0.456981
0.453153
0.0336547
-0.0163605
-0.297106
0.279812
0.00417304
-0.0531622
0.0489892
-0.0461058
0.0435467
0.00255906
-0.0230722
0.0334347
-0.337501
0.327139
-0.0391799
0.0401367
-0.459885
0.458928
-0.0388924
0.0365691
-0.541969
0.544293
-0.0339316
0.0313915
-0.634678
0.637218
-0.0284261
0.0255954
-0.748318
0.751149
-0.0223814
0.019389
-0.887542
0.890535
-0.0160588
0.012943
-1.05672
1.05983
-0.00940776
0.00602763
-1.26169
1.26507
-0.00213723
-0.00164463
-1.51059
1.51437
0.00539125
-0.00917409
-1.51154
1.51532
0.0124089
-0.0157502
-1.26405
1.26739
0.0186717
-0.021786
-1.05991
1.06303
0.0245935
-0.0276252
-0.8915
0.894532
0.030305
-0.0331152
-0.753503
0.756313
0.0355167
-0.0380075
-0.641119
0.64361
0.0402056
-0.0412887
-0.549273
0.550356
0.0401684
-0.0341879
-0.448047
0.442066
0.0235697
-0.0103496
-0.264649
0.251429
0.00263127
-0.0457525
0.0431213
-0.0414246
0.0396203
0.0018043
-0.0169721
0.0262732
-0.317254
0.307953
-0.0328848
0.0350156
-0.457354
0.455223
-0.0345889
0.0328955
-0.546307
0.548
-0.0306718
0.0285496
-0.639512
0.641634
-0.0261243
0.023766
-0.75374
0.756098
-0.020981
0.0182625
-0.893382
0.8961
-0.0151069
0.012098
-1.06286
1.06587
-0.00866048
0.00537069
-1.26838
1.27167
-0.00155799
-0.00216663
-1.51813
1.52185
0.00584571
-0.00952229
-1.51907
1.52275
0.0126275
-0.015818
-1.27067
1.27386
0.0185763
-0.0214478
-1.06606
1.06893
0.0239183
-0.0264591
-0.897319
0.89986
0.0286201
-0.0308472
-0.758759
0.760986
0.0327956
-0.0348343
-0.645849
0.647888
0.036351
-0.0365618
-0.550955
0.551165
0.0341829
-0.0272308
-0.435507
0.428555
0.0175898
-0.00744117
-0.239888
0.22974
0.00189226
-0.0409214
0.0390291
-0.038067
0.0367112
0.0013557
-0.0129734
0.0209892
-0.299297
0.291281
-0.0277769
0.0307158
-0.452652
0.449713
-0.0309377
0.0298259
-0.549424
0.550536
-0.0278374
0.0259244
-0.643674
0.645587
-0.0237347
0.0216203
-0.758326
0.760441
-0.0191459
0.0167063
-0.89863
0.901069
-0.0138158
0.0109881
-1.06874
1.07157
-0.00769178
0.00450861
-1.27487
1.27806
-0.00081361
-0.00278329
-1.5255
1.52909
0.00632244
-0.00984574
-1.52635
1.52988
0.0127966
-0.0157814
-1.27699
1.27997
0.0182955
-0.0208331
-1.07166
1.07419
0.0229635
-0.0251278
-0.902173
0.904338
0.0269866
-0.0289206
-0.763034
0.764968
0.030615
-0.0323857
-0.649776
0.651547
0.0332442
-0.0327227
-0.551021
0.550499
0.029432
-0.0221812
-0.421399
0.414148
0.0137315
-0.00572801
-0.220767
0.212764
0.00146265
-0.0373808
0.0359182
-0.0355268
0.0344817
0.00104507
-0.0101454
0.0169346
-0.283902
0.277113
-0.0234731
0.0268779
-0.446517
0.443112
-0.0276832
0.0270098
-0.551411
0.552084
-0.0252648
0.0235027
-0.647453
0.649215
-0.0214704
0.0194983
-0.762493
0.764466
-0.0171798
0.0149017
-0.903374
0.905652
-0.0122206
0.00959084
-1.07423
1.07686
-0.00649545
0.00346867
-1.28112
1.28415
7.64848e-05
-0.0035284
-1.5326
1.53605
0.00691081
-0.0102406
-1.53331
1.53664
0.0129798
-0.0156928
-1.28285
1.28556
0.0179391
-0.0201837
-1.07659
1.07884
0.0220719
-0.0239908
-0.906374
0.908293
0.0256336
-0.0273446
-0.766767
0.768478
0.0288385
-0.0302893
-0.653171
0.654622
0.0306471
-0.0294291
-0.549644
0.548426
0.0255439
-0.0184006
-0.406931
0.399788
0.01107
-0.00458346
-0.205592
0.199105
0.00117468
-0.0346182
0.0334435
-0.0335635
0.0327479
0.000815639
-0.00804847
0.0137624
-0.27089
0.265176
-0.0198272
0.0234434
-0.439591
0.435975
-0.0247391
0.0243187
-0.55266
0.553081
-0.022849
0.0212005
-0.650967
0.652615
-0.0192728
0.0174018
-0.766395
0.768266
-0.0151996
0.0130322
-0.907811
0.909978
-0.0104764
0.00797507
-1.07934
1.08185
-0.00504305
0.0021802
-1.28705
1.28991
0.00116802
-0.00442652
-1.53939
1.54265
0.00759925
-0.0106875
-1.53986
1.54295
0.0131964
-0.0156558
-1.28817
1.29063
0.0176813
-0.0196971
-1.08098
1.083
0.0213829
-0.0230927
-0.910107
0.911817
0.024559
-0.0260907
-0.770081
0.771613
0.0274056
-0.0284961
-0.655878
0.656968
0.0284989
-0.0266387
-0.546899
0.545038
0.0223902
-0.0155574
-0.392798
0.385965
0.00917529
-0.00378173
-0.193218
0.187824
0.000972927
-0.0323844
0.0314115
-0.0320313
0.0313932
0.00063811
-0.00642782
0.0112179
-0.259952
0.255162
-0.0166947
0.0203227
-0.432351
0.428723
-0.0219637
0.0217933
-0.553409
0.55358
-0.0205887
0.0190284
-0.654263
0.655823
-0.017181
0.0153747
-0.770108
0.771915
-0.0132427
0.0111433
-0.912038
0.914137
-0.00867208
0.00626277
-1.08422
1.08663
-0.00345099
0.000721252
-1.29265
1.29538
0.00245221
-0.00552321
-1.54578
1.54885
0.00848767
-0.0113418
-1.54592
1.54877
0.0136409
-0.0158807
-1.29302
1.29526
0.0177126
-0.0195222
-1.08494
1.08675
0.0210237
-0.0225392
-0.913431
0.914946
0.0238363
-0.0251862
-0.773031
0.774381
0.0263485
-0.0270408
-0.65784
0.658532
0.0266861
-0.0242997
-0.542938
0.540552
0.0198524
-0.0134118
-0.379339
0.372899
0.00780083
-0.0032085
-0.182873
0.178281
0.000829651
-0.0305238
0.0296941
-0.0308367
0.0303424
0.000494334
-0.00512041
0.00911063
-0.250801
0.24681
-0.0139502
0.0174336
-0.425181
0.421698
-0.0192649
0.0192904
-0.553697
0.553671
-0.0182888
0.0167691
-0.657423
0.658942
-0.014955
0.0131803
-0.773696
0.775471
-0.0110949
0.00905519
-0.916115
0.918154
-0.00666707
0.00434633
-1.0889
1.09123
-0.00164311
-0.000968523
-1.29798
1.3006
0.00398441
-0.00687074
-1.55179
1.55468
0.00962788
-0.0122553
-1.55152
1.55414
0.0143432
-0.0163482
-1.29742
1.29942
0.0179661
-0.0195453
-1.08848
1.09006
0.0208475
-0.0221629
-0.91638
0.917695
0.0233019
-0.0245047
-0.775639
0.776842
0.02551
-0.0258559
-0.65902
0.659366
0.0251439
-0.0223474
-0.537985
0.535189
0.0178244
-0.0117895
-0.366684
0.36065
0.00679365
-0.00279477
-0.174023
0.170024
0.0007273
-0.0289297
0.0282024
-0.0299179
0.0295458
0.000372113
-0.00401681
0.00729771
-0.243202
0.239921
-0.0114821
0.0147125
-0.418364
0.415134
-0.0166207
0.0168242
-0.553619
0.553416
-0.0159352
0.014513
-0.660491
0.661914
-0.0127205
0.0109532
-0.777224
0.778992
-0.00887625
0.00685138
-0.920074
0.922099
-0.00449286
0.00221645
-1.09342
1.0957
0.000408131
-0.00292627
-1.30309
1.30561
0.00579894
-0.00850897
-1.55743
1.56014
0.0110613
-0.0134596
-1.55665
1.55905
0.0153381
-0.0171189
-1.30136
1.30314
0.0185394
-0.0199139
-1.09158
1.09295
0.0210421
-0.0221812
-0.918948
0.920087
0.0231673
-0.0241957
-0.777942
0.77897
0.0249478
-0.0250125
-0.659567
0.659632
0.0239236
-0.0207762
-0.53224
0.529093
0.0162369
-0.0105749
-0.354829
0.349167
0.00606192
-0.00250172
-0.166278
0.162718
0.000657308
-0.0275243
0.026867
-0.0292358
0.0289738
0.000261924
-0.00303877
0.0056715
-0.23699
0.234357
-0.0091888
0.0120682
-0.412108
0.409229
-0.0139263
0.0142346
-0.553224
0.552916
-0.0134269
0.0120923
-0.663369
0.664704
-0.010319
0.0085433
-0.780734
0.78251
-0.00644916
0.00441441
-0.92401
0.926044
-0.0020625
-0.000183495
-1.09786
1.1001
0.00276325
-0.00520543
-1.30801
1.31045
0.0079628
-0.0105309
-1.56273
1.5653
0.0129068
-0.0150867
-1.56133
1.56351
0.0167542
-0.0182992
-1.30484
1.30639
0.0195171
-0.0206868
-1.09426
1.09543
0.0216354
-0.0225815
-0.921162
0.922108
0.0233849
-0.0241842
-0.779895
0.780694
0.0246608
-0.0244576
-0.659529
0.659325
0.0229934
-0.0195471
-0.525828
0.522381
0.0150253
-0.00968413
-0.343705
0.338364
0.00554191
-0.00230069
-0.159354
0.156112
0.00061187
-0.0262492
0.0256373
-0.0287696
0.0286127
0.000156933
-0.00212354
0.00413989
-0.232056
0.23004
-0.00697752
0.0094294
-0.406597
0.404145
-0.0111197
0.0114383
-0.552684
0.552366
-0.0106547
0.00934292
-0.66612
0.667432
-0.00754088
0.00572457
-0.784263
0.786079
-0.003597
0.00154662
-0.927949
0.93
0.000804564
-0.00304377
-1.10223
1.10447
0.00558373
-0.0079628
-1.31278
1.31516
0.010603
-0.0130058
-1.56774
1.57014
0.0151739
-0.0171118
-1.56556
1.56749
0.0185441
-0.0198213
-1.30785
1.30913
0.0207881
-0.021684
-1.09651
1.09741
0.0224011
-0.0231275
-0.922973
0.9237
0.0237642
-0.0244099
-0.78143
0.782076
0.0246063
-0.0241171
-0.658905
0.658416
0.0223087
-0.0186121
-0.518858
0.515161
0.0141212
-0.00904373
-0.333209
0.328131
0.00518167
-0.00216829
-0.153026
0.150013
0.000584254
-0.0250583
0.024474
-0.0285128
0.0284616
5.12641e-05
-0.00121955
0.00262624
-0.228347
0.226941
-0.00476428
0.00672747
-0.401978
0.400015
-0.00816453
0.00843522
-0.552184
0.551913
-0.00765645
0.00635648
-0.668858
0.670158
-0.00451663
0.00264784
-0.78786
0.789728
-0.000454097
-0.00165645
-0.931913
0.934023
0.00406692
-0.00633993
-1.10659
1.10886
0.00888753
-0.0112338
-1.31742
1.31977
0.0137841
-0.0160445
-1.57241
1.57467
0.0180219
-0.0197167
-1.56929
1.57098
0.0209186
-0.0219425
-1.31033
1.31135
0.0226818
-0.0233281
-1.09822
1.09887
0.0238061
-0.0242674
-0.92435
0.924811
0.0246779
-0.0251067
-0.782619
0.783048
0.0249827
-0.0241541
-0.657637
0.656809
0.0219773
-0.0180149
-0.511409
0.507447
0.0135245
-0.00863685
-0.323216
0.318328
0.00496978
-0.00210288
-0.147118
0.144251
0.00057634
-0.0239153
0.023339
-0.028468
0.0285265
-5.84764e-05
-0.00028083
0.00106267
-0.225858
0.225076
-0.00246025
0.00385123
-0.398379
0.396988
-0.00491833
0.0050609
-0.551839
0.551696
-0.00425455
0.0029462
-0.671591
0.6729
-0.00105946
-0.000896268
-0.791559
0.793515
0.00320966
-0.00542558
-0.936014
0.93823
0.0079343
-0.0102693
-1.11102
1.11336
0.0128465
-0.0151781
-1.32201
1.32434
0.0176563
-0.0197854
-1.57679
1.57892
0.0215608
-0.0229896
-1.57252
1.57395
0.0239145
-0.0246265
-1.31227
1.31298
0.0250776
-0.0254179
-1.09944
1.09978
0.0256296
-0.0258201
-0.925213
0.925403
0.0260129
-0.0261434
-0.783204
0.783334
0.0257518
-0.0244638
-0.65563
0.654342
0.0218892
-0.0176759
-0.503473
0.49926
0.0131762
-0.00841857
-0.313596
0.308839
0.0048747
-0.00208697
-0.141479
0.138692
0.000580912
-0.0227853
0.0222044
-0.0286511
0.0288407
-0.000189631
0.000688817
-0.000590445
-0.224618
0.224519
-8.9391e-06
0.000750541
-0.395954
0.395212
-0.00132396
0.00121515
-0.551853
0.551961
-0.000270544
-0.00116299
-0.674425
0.675858
0.00317442
-0.00524847
-0.795442
0.797516
0.00768063
-0.00999358
-0.940298
0.942611
0.012598
-0.0150064
-1.11556
1.11797
0.0176358
-0.0199734
-1.32655
1.32889
0.022388
-0.0243733
-1.58091
1.58289
0.0259272
-0.0270639
-1.57521
1.57634
0.0276963
-0.028044
-1.31356
1.31391
0.0281604
-0.0281413
-1.10001
1.09999
0.0280396
-0.0279115
-0.925509
0.925381
0.0278324
-0.0276251
-0.78311
0.782903
0.0269283
-0.025136
-0.652761
0.650968
0.0221778
-0.0176982
-0.495076
0.490597
0.0131336
-0.00841721
-0.304211
0.299494
0.0049141
-0.00213144
-0.13597
0.133187
0.000602929
-0.0216406
0.0210377
-0.0291006
0.0294362
-0.00033565
0.00180378
-0.00234789
-0.224742
0.225286
0.00263176
-0.00264766
-0.394848
0.394864
0.002681
-0.00311884
-0.552489
0.552927
0.00424402
-0.00581787
-0.677552
0.679126
0.00798557
-0.0102187
-0.799551
0.801784
0.0128399
-0.0153279
-0.944778
0.947266
0.0181166
-0.0206715
-1.12025
1.12281
0.0234178
-0.0257996
-1.33111
1.3335
0.0281679
-0.0299972
-1.58471
1.58654
0.0313071
-0.0321136
-1.57727
1.57808
0.0324281
-0.0324034
-1.31412
1.31409
0.0321648
-0.0317678
-1.09981
1.09942
0.0313241
-0.030827
-0.925103
0.924606
0.0304155
-0.0297741
-0.782272
0.78163
0.0286748
-0.0263256
-0.648983
0.646634
0.02291
-0.01809
-0.486152
0.481332
0.0133909
-0.00862541
-0.294887
0.290121
0.00508099
-0.00223155
-0.130447
0.127598
0.000640545
-0.0204487
0.0198082
-0.0298408
0.0303495
-0.000508696
0.00307944
-0.00444318
-0.226254
0.227618
0.0056652
-0.00650782
-0.395252
0.396095
0.00727795
-0.00813151
-0.553884
0.554738
0.00947487
-0.011207
-0.681
0.682732
0.0135806
-0.0160481
-0.803992
0.80646
0.0189582
-0.02171
-0.949634
0.952386
0.0247627
-0.0275167
-1.12525
1.12801
0.0304201
-0.0328732
-1.33576
1.33821
0.0352214
-0.0369209
-1.58821
1.5899
0.0379784
-0.0384115
-1.57865
1.57908
0.0383389
-0.037878
-1.31388
1.31341
0.0372399
-0.0364147
-1.0988
1.09797
0.0355947
-0.0346811
-0.923879
0.922965
0.0338837
-0.0326894
-0.780477
0.779283
0.0310421
-0.0280509
-0.644141
0.641149
0.0241294
-0.0189161
-0.476576
0.471362
0.0139969
-0.00906516
-0.285438
0.280507
0.005381
-0.00238472
-0.124767
0.121771
0.000690727
-0.0191802
0.0184894
-0.0309411
0.0316795
-0.000738382
0.00462392
-0.00688713
-0.229408
0.231671
0.00917958
-0.0109458
-0.397366
0.399132
0.012579
-0.0140195
-0.556281
0.557722
0.0157808
-0.0178244
-0.68488
0.686924
0.0205423
-0.023333
-0.808909
0.8117
0.0265915
-0.0296427
-0.95501
0.958061
0.0329907
-0.0359689
-1.13065
1.13362
0.039046
-0.04157
-1.34053
1.34305
0.0438695
-0.0453771
-1.59139
1.5929
0.0461108
-0.0461119
-1.57923
1.57923
0.0455866
-0.0446381
-1.31269
1.31174
0.043524
-0.0421743
-1.09685
1.0955
0.0408968
-0.0395084
-0.921735
0.920347
0.0382701
-0.0365138
-0.777556
0.7758
0.0342774
-0.0305981
-0.63806
0.634381
0.0260963
-0.0203594
-0.466224
0.460487
0.0150748
-0.00981316
-0.275616
0.270354
0.00585673
-0.00260635
-0.118759
0.115509
0.000756376
-0.0178097
0.0170533
-0.0324953
0.033522
-0.00102671
0.00648619
-0.00979764
-0.234366
0.237677
0.0133124
-0.0161184
-0.401437
0.404243
0.0187026
-0.0208268
-0.560028
0.562153
0.0231623
-0.0256691
-0.689519
0.692025
0.0288821
-0.0321041
-0.814479
0.817701
0.0358076
-0.0392343
-0.960977
0.964404
0.0429563
-0.0462262
-1.13649
1.13976
0.0495416
-0.0521751
-1.34543
1.34806
0.054436
-0.055732
-1.59417
1.59546
0.0561019
-0.0556016
-1.57891
1.5784
0.054559
-0.0529927
-1.31042
1.30885
0.0513417
-0.0494213
-1.09376
1.09184
0.0476337
-0.0457168
-0.918555
0.916638
0.0439748
-0.0416203
-0.773482
0.771127
0.038715
-0.0342364
-0.63064
0.626161
0.0290158
-0.0225842
-0.454821
0.448389
0.0167559
-0.0109537
-0.26508
0.259278
0.00655221
-0.00291136
-0.112198
0.108557
0.000840008
-0.016306
0.015466
-0.0346118
0.0360217
-0.00140989
0.00886095
-0.0134421
-0.241388
0.245969
0.0183768
-0.022355
-0.407731
0.411709
0.0259992
-0.0288986
-0.565381
0.568281
0.031921
-0.0350143
-0.695198
0.698291
0.0388851
-0.0426958
-0.820927
0.824737
0.0470275
-0.0509949
-0.967738
0.971705
0.0552443
-0.0589011
-1.14293
1.14659
0.0624976
-0.0652254
-1.35054
1.35326
0.0673785
-0.0683604
-1.59646
1.59744
0.0682528
-0.0671298
-1.5775
1.57638
0.0654817
-0.0632473
-1.30684
1.3046
0.0609984
-0.0584526
-1.08941
1.08686
0.0561312
-0.0536393
-0.914226
0.911734
0.0512904
-0.0482556
-0.768211
0.765176
0.0445729
-0.0391576
-0.621623
0.616208
0.0330805
-0.0257544
-0.442032
0.434705
0.019145
-0.0125316
-0.253389
0.246775
0.00748365
-0.00330549
-0.104804
0.100626
0.000944225
-0.0146311
0.0136868
-0.0374713
0.0394258
-0.00195451
0.0120922
-0.0182752
-0.250882
0.257065
0.0248939
-0.0302353
-0.416662
0.422004
0.0351409
-0.0390233
-0.57263
0.576512
0.042944
-0.0468299
-0.70219
0.706076
0.051594
-0.0561877
-0.828568
0.833161
0.0613192
-0.0659321
-0.975615
0.980228
0.0707564
-0.0747792
-1.15013
1.15416
0.0785733
-0.0812747
-1.35575
1.35845
0.0831608
-0.0836634
-1.59802
1.59852
0.0828933
-0.080972
-1.57475
1.57283
0.0785869
-0.0755659
-1.30184
1.29881
0.0726502
-0.0694358
-1.08369
1.08048
0.0665355
-0.0634251
-0.908604
0.905494
0.060372
-0.0565794
-0.761542
0.75775
0.0520143
-0.0455235
-0.610747
0.604256
0.0384071
-0.0299005
-0.427446
0.418939
0.0222107
-0.0144911
-0.240009
0.232289
0.00860412
-0.00376444
-0.0963021
0.0914624
0.00106146
-0.012749
0.0116875
-0.0413795
0.0441739
-0.00279445
0.0168008
-0.0250859
-0.263508
0.271793
0.0337668
-0.0407537
-0.428848
0.435835
0.0472161
-0.0523454
-0.582309
0.587438
0.0575715
-0.0626527
-0.710959
0.716041
0.0685664
-0.0740711
-0.837766
0.843271
0.0800371
-0.085245
-0.984751
0.989959
0.0905178
-0.0947438
-1.15797
1.1622
0.0985121
-0.100957
-1.36078
1.36323
0.102288
-0.102032
-1.59847
1.59822
0.100348
-0.0973963
-1.57027
1.56732
0.0940849
-0.0901105
-1.29516
1.29119
0.0863901
-0.082386
-1.07649
1.07249
0.0788737
-0.0751568
-0.901583
0.897866
0.0714725
-0.0668093
-0.75321
0.748547
0.061243
-0.0534485
-0.597706
0.589911
0.0449846
-0.0349124
-0.410459
0.400387
0.0258077
-0.0166992
-0.224387
0.215279
0.0098189
-0.00424303
-0.0864778
0.0809019
0.00117908
-0.0106394
0.00946031
-0.0468909
0.0511239
-0.00423301
0.0242306
-0.0354261
-0.280368
0.291564
0.0468245
-0.0559988
-0.445332
0.454507
0.0643184
-0.0709166
-0.595074
0.601672
0.0777701
-0.0843187
-0.722117
0.728665
0.0914789
-0.0978305
-0.848735
0.855087
0.104461
-0.110043
-0.994962
1.00054
0.115465
-0.11959
-1.16604
1.17017
0.122981
-0.124835
-1.36511
1.36697
0.125241
-0.123891
-1.59721
1.59586
0.121005
-0.116765
-1.5636
1.55936
0.112331
-0.1072
-1.28649
1.28135
0.102529
-0.0976266
-1.06761
1.06271
0.0934392
-0.0890469
-0.893047
0.888655
0.0847012
-0.0790226
-0.742957
0.737278
0.0721987
-0.0627157
-0.581904
0.572421
0.0525334
-0.0405183
-0.390307
0.378292
0.0296921
-0.0189643
-0.20606
0.195332
0.0109929
-0.00467076
-0.0752528
0.0689307
0.00127257
-0.00831526
0.0070427
-0.0550741
0.0623645
-0.00729035
0.0375748
-0.0531119
-0.303604
0.319141
0.0683192
-0.0803346
-0.467566
0.479582
0.0905545
-0.0985444
-0.611357
0.619347
0.106962
-0.114727
-0.735887
0.743652
0.122763
-0.129535
-0.861186
0.867958
0.1363
-0.141737
-1.00568
1.01111
0.146739
-0.150227
-1.17364
1.17713
0.152674
-0.153412
-1.36799
1.36873
0.152388
-0.149546
-1.59354
1.59069
0.145166
-0.139437
-1.55423
1.5485
0.133746
-0.127349
-1.27544
1.26905
0.121597
-0.115628
-1.0568
1.05083
0.110582
-0.105292
-0.88278
0.87749
0.100106
-0.0929746
-0.730321
0.723189
0.0844969
-0.0729211
-0.562449
0.550873
0.0606643
-0.0463815
-0.366202
0.351919
0.0336291
-0.0211771
-0.184721
0.172269
0.0120744
-0.00502454
-0.0627397
0.0556899
0.00132786
-0.00584006
0.0045122
-0.0692073
0.0732339
-0.0040266
0.0285351
-0.0419437
-0.337231
0.35064
0.0554
-0.0662017
-0.496748
0.50755
0.0758481
-0.0850195
-0.630759
0.63993
0.0954102
-0.104615
-0.751089
0.760293
0.114812
-0.123871
-0.873893
0.882952
0.133432
-0.141821
-1.01563
1.02402
0.150385
-0.157474
-1.17953
1.18662
0.164104
-0.168859
-1.36827
1.37303
0.172209
-0.173137
-1.58658
1.58751
0.171559
-0.16797
-1.54164
1.53805
0.163364
-0.157391
-1.26179
1.25582
0.151661
-0.144788
-1.04381
1.03694
0.138703
-0.131888
-0.870342
0.863527
0.124979
-0.115309
-0.714367
0.704697
0.103189
-0.0870614
-0.538431
0.522303
0.0705074
-0.0516709
-0.337259
0.318423
0.0358603
-0.0214276
-0.16026
0.145827
0.0115772
-0.00454192
-0.0493179
0.0422825
0.00110352
-0.00333946
0.00223594
-0.0803235
0.0783862
0.0019373
0.00679528
-0.0155139
-0.366918
0.375636
0.0256996
-0.0333841
-0.52307
0.530755
0.0411748
-0.0491175
-0.651424
0.659367
0.0586485
-0.0673558
-0.769231
0.777939
0.076573
-0.0849995
-0.891518
0.899944
0.0938904
-0.101364
-1.03216
1.03964
0.10916
-0.115224
-1.19352
1.19958
0.120779
-0.12438
-1.3774
1.381
0.126124
-0.125529
-1.58737
1.58677
0.122337
-0.117032
-1.53326
1.52796
0.110722
-0.103003
-1.24895
1.24123
0.0957632
-0.0877106
-1.02904
1.02099
0.0804019
-0.0724066
-0.853691
0.845695
0.0650099
-0.0564234
-0.69099
0.682404
0.0471174
-0.0357162
-0.503972
0.492571
0.0253352
-0.0157024
-0.299189
0.289556
0.00928369
-0.00462542
-0.132081
0.127423
0.00208387
-0.000675076
-0.0357909
0.0343822
0.000143775
-0.00111757
0.000973799
-0.0815715
0.0786623
0.00290921
-0.0021905
-0.00274553
-0.386867
0.391803
0.00961084
-0.0153905
-0.542533
0.548313
0.0214738
-0.0283701
-0.669181
0.676077
0.0366607
-0.0442703
-0.785847
0.793457
0.0525908
-0.0600525
-0.907704
0.915166
0.0676814
-0.0744362
-1.04697
1.05372
0.0812508
-0.0866148
-1.20521
1.21058
0.0910508
-0.0936453
-1.38387
1.38647
0.0946579
-0.0932836
-1.58536
1.58398
0.0894431
-0.0836128
-1.52188
1.51605
0.0770074
-0.069233
-1.23322
1.22544
0.061594
-0.0533613
-1.0123
1.00406
0.0457865
-0.0372984
-0.83645
0.827962
0.0295678
-0.0211133
-0.669645
0.66119
0.0132816
-0.00493705
-0.478874
0.47053
-0.000494966
0.003511
-0.278843
0.275827
-0.00425919
0.00368659
-0.12158
0.122152
-0.00255988
0.00124025
-0.0324935
0.0338132
-0.000357644
-0.000703447
0.00106109
-0.0802332
0.0774894
0.00274381
-0.00565891
0.00335798
-0.400062
0.402363
0.000964828
-0.00546535
-0.557246
0.561747
0.0107921
-0.0166754
-0.683974
0.689857
0.0238773
-0.0305419
-0.800577
0.807241
0.0377997
-0.0443059
-0.922173
0.928679
0.0513123
-0.0571043
-1.06007
1.06587
0.0631299
-0.0674392
-1.21555
1.21986
0.0713122
-0.0735437
-1.38889
1.39112
0.0742149
-0.0726268
-1.58233
1.58075
0.069257
-0.06417
-1.51003
1.50494
0.0583002
-0.0509244
-1.21777
1.21039
0.0437682
-0.0356024
-0.995387
0.987221
0.0274189
-0.0181819
-0.817891
0.808654
0.00936515
-0.000629717
-0.648703
0.639967
-0.0059083
0.0110622
-0.460506
0.455353
-0.0129492
0.0122797
-0.270033
0.270703
-0.0103539
0.00744496
-0.121246
0.124155
-0.00480805
0.00222738
-0.0343668
0.0369475
-0.000649474
-0.00122286
0.00187234
-0.0786956
0.0762845
0.00241105
-0.00670297
0.0059626
-0.408826
0.409567
-0.0027527
-0.000506972
-0.56929
0.57255
0.00499856
-0.0104425
-0.696573
0.702017
0.0166029
-0.0225702
-0.813313
0.81928
0.0289637
-0.0346858
-0.934794
0.940517
0.0407571
-0.0459712
-1.07154
1.07676
0.0511556
-0.0552351
-1.22407
1.22815
0.0587343
-0.0608156
-1.39312
1.3952
0.0615849
-0.0603566
-1.57928
1.57806
0.0575663
-0.0530166
-1.4996
1.49505
0.0477971
-0.0411465
-1.20327
1.19662
0.0343074
-0.0260112
-0.978547
0.970251
0.0177465
-0.00825348
-0.798047
0.788554
-0.000253054
0.00817858
-0.628563
0.620638
-0.0135346
0.0169146
-0.447731
0.444351
-0.0174644
0.0154031
-0.267661
0.269722
-0.0123909
0.00881473
-0.12542
0.128996
-0.00562393
0.00257854
-0.038716
0.0417614
-0.000770114
-0.00231089
0.003081
-0.077296
0.0752344
0.00206157
-0.0065594
0.00631965
-0.414773
0.415013
-0.00446301
0.00172749
-0.578601
0.581336
0.00259571
-0.007305
-0.707452
0.712161
0.0126987
-0.0179648
-0.824532
0.829798
0.0237141
-0.028869
-0.945929
0.951083
0.0344667
-0.0390977
-1.08172
1.08635
0.0438686
-0.0476885
-1.23201
1.23583
0.0509975
-0.0530567
-1.39717
1.39923
0.0539606
-0.0533742
-1.57697
1.57638
0.0509168
-0.0468994
-1.49029
1.48627
0.0419609
-0.0355461
-1.18984
1.18343
0.029112
-0.0209225
-0.961671
0.953482
0.0129465
-0.00420405
-0.7785
0.769757
-0.0033473
0.0101351
-0.610966
0.604179
-0.0143232
0.0169592
-0.438461
0.435825
-0.016997
0.0149052
-0.268038
0.27013
-0.0120524
0.00851393
-0.130883
0.134421
-0.00537751
0.00248042
-0.043696
0.0465931
-0.000744611
-0.00353751
0.00428212
-0.0762397
0.074632
0.00160771
-0.00567544
0.00577786
-0.419098
0.418995
-0.00432517
0.00226962
-0.586776
0.588832
0.00175991
-0.00603831
-0.71698
0.721259
0.0111833
-0.0157633
-0.8347
0.83928
0.0208486
-0.0254469
-0.956227
0.960825
0.0307953
-0.035074
-1.09104
1.09532
0.0394359
-0.0431978
-1.23954
1.2433
0.046843
-0.048955
-1.40142
1.40353
0.0501395
-0.0496715
-1.57553
1.57506
0.0477017
-0.0436313
-1.48206
1.47799
0.0390239
-0.0329893
-1.17682
1.17078
0.0267322
-0.0192668
-0.945287
0.937822
0.0119752
-0.00405252
-0.760597
0.752675
-0.00228478
0.00814368
-0.595954
0.590095
-0.0118306
0.0137267
-0.431082
0.429186
-0.0138963
0.0124217
-0.269014
0.270488
-0.0100478
0.00707037
-0.136036
0.139014
-0.00446256
0.00208201
-0.0482105
0.050591
-0.000643396
-0.00464722
0.00529062
-0.0756842
0.0744206
0.00126357
-0.00459223
0.00483124
-0.422435
0.422196
-0.00357973
0.00166662
-0.593828
0.595742
0.00213047
-0.00592983
-0.725562
0.729362
0.0103406
-0.0147443
-0.843804
0.848207
0.019444
-0.0241787
-0.965248
0.969983
0.0288403
-0.0329945
-1.09972
1.10387
0.0375753
-0.0412049
-1.24701
1.25064
0.0445127
-0.0471403
-1.40563
1.40826
0.0485761
-0.0483844
-1.57467
1.57448
0.0464994
-0.04287
-1.47405
1.47042
0.0384931
-0.032788
-1.1644
1.15869
0.0270719
-0.0203259
-0.930311
0.923565
0.0139542
-0.00732802
-0.744864
0.738238
0.00169049
0.00322298
-0.583194
0.57828
-0.00633967
0.00828833
-0.424801
0.422853
-0.0088008
0.00792555
-0.269296
0.270171
-0.00644842
0.00451787
-0.139781
0.141712
-0.00287535
0.00136319
-0.0515835
0.0530957
-0.000441872
-0.00551527
0.00595714
-0.0756527
0.074604
0.00104871
-0.00328957
0.00328693
-0.425361
0.425364
-0.00223398
0.000391837
-0.600224
0.602066
0.00306059
-0.00666351
-0.733471
0.737074
0.0108378
-0.014798
-0.852377
0.856338
0.0195854
-0.0235451
-0.974163
0.978123
0.028208
-0.0322377
-1.10821
1.11224
0.0367836
-0.0406813
-1.2543
1.2582
0.044342
-0.046793
-1.4107
1.41315
0.0485482
-0.0486718
-1.57419
1.57431
0.0472908
-0.0438431
-1.46661
1.46316
0.0398419
-0.0345808
-1.15307
1.14781
0.0294253
-0.0233534
-0.916722
0.91065
0.0178706
-0.0120249
-0.731479
0.725634
0.00713833
-0.00263599
-0.572479
0.567976
-0.000502459
0.0023992
-0.418628
0.416731
-0.00325928
0.0031999
-0.268366
0.268426
-0.00277441
0.00194007
-0.141529
0.142363
-0.00122396
0.000618205
-0.0532388
0.0538446
-0.000214967
-0.00598617
0.00620114
-0.0759069
0.0751861
0.000720823
-0.00208951
0.00165376
-0.428392
0.428828
-0.000794618
-0.00119052
-0.605726
0.607711
0.00422422
-0.00763272
-0.740714
0.744122
0.0115637
-0.0155984
-0.860131
0.864166
0.0197515
-0.0238732
-0.982298
0.986419
0.0285319
-0.0324031
-1.11673
1.1206
0.0370952
-0.0409948
-1.26195
1.26585
0.0447443
-0.0477107
-1.41602
1.41899
0.0498931
-0.0502072
-1.57444
1.57476
0.0489698
-0.0461451
-1.45983
1.457
0.0426654
-0.0378397
-1.14244
1.13761
0.0330963
-0.0278375
-0.904595
0.899336
0.022619
-0.0175469
-0.719584
0.714512
0.0131344
-0.00883753
-0.562954
0.558657
0.00580473
-0.00336618
-0.41248
0.410042
0.00202556
-0.00119274
-0.266087
0.265254
0.000750462
-0.000403029
-0.141181
0.140834
0.000108588
7.43942e-05
-0.0532794
0.0530964
-8.23031e-05
-0.00603835
0.00612065
-0.0765936
0.0760336
0.00055992
-0.00106285
0.000709127
-0.431668
0.432022
0.000733823
-0.00260137
-0.611257
0.613125
0.00571676
-0.00893642
-0.747323
0.750543
0.0126482
-0.0162448
-0.867848
0.871445
0.0205028
-0.0243228
-0.990558
0.994378
0.0289608
-0.0332952
-1.12494
1.12928
0.0376693
-0.0419159
-1.26982
1.27406
0.0460805
-0.0491106
-1.42186
1.42489
0.0515995
-0.0526111
-1.57526
1.57627
0.051745
-0.0495015
-1.45403
1.45178
0.0462429
-0.0419494
-1.13283
1.12854
0.0377421
-0.0328509
-0.893742
0.888851
0.0282195
-0.023501
-0.708968
0.70425
0.0193834
-0.0151644
-0.55377
0.549551
0.0119274
-0.00913289
-0.405912
0.403118
0.00700586
-0.00526913
-0.262189
0.260453
0.00381568
-0.00235809
-0.138747
0.137289
0.00123049
-0.000386071
-0.0517926
0.0509482
3.74642e-05
-0.00574414
0.00570668
-0.0775637
0.0771898
0.000373946
3.39921e-06
-0.000632771
-0.435098
0.435727
0.00200979
-0.00414411
-0.616373
0.618507
0.00712932
-0.0101461
-0.753576
0.756593
0.0138856
-0.017298
-0.875
0.878412
0.0213902
-0.0253405
-0.998683
1.00263
0.0299045
-0.0342265
-1.13349
1.13781
0.0388358
-0.0431096
-1.27825
1.28252
0.0474388
-0.0511687
-1.4282
1.43193
0.0540368
-0.0552808
-1.57719
1.57844
0.0550537
-0.0531141
-1.44941
1.44747
0.0504266
-0.0467162
-1.12419
1.12048
0.0426661
-0.0381315
-0.883718
0.879183
0.0338171
-0.0292163
-0.699156
0.694555
0.0253157