/*--------------------------------*- C++ -*----------------------------------*\
| =========                 |                                                 |
| \\      /  F ield         | OpenFOAM: The Open Source CFD Toolbox           |
|  \\    /   O peration     | Version:  2112                                  |
|   \\  /    A nd           | Website:  www.openfoam.com                      |
|    \\/     M anipulation  |                                                 |
\*---------------------------------------------------------------------------*/
FoamFile
{
    version     2.0;
    format      ascii;
    arch        "LSB;label=32;scalar=64";
    class       volVectorField;
    location    "39.5";
    object      U;
}
// * * * * * * * * * * * * * * * * * * * * * * * * * * * * * * * * * * * * * //

dimensions      [0 1 -1 0 0 0 0];

internalField   nonuniform List<vector> 
8800
(
(0.980152 -0.0915212 0)
(1.00234 -0.0587241 0)
(0.999601 -0.0321255 0)
(0.999993 -0.016518 0)
(1.00006 -0.00883359 0)
(1.00005 -0.00508528 0)
(1.00004 -0.00299204 0)
(1.00001 -0.00169615 0)
(0.999991 -0.000800447 0)
(1.00006 -0.000103729 0)
(0.999988 0.000598887 0)
(0.999999 0.00134848 0)
(1.00001 0.00237873 0)
(1.00002 0.0039919 0)
(1.00003 0.00674313 0)
(0.999986 0.0120462 0)
(0.9998 0.023094 0)
(0.999038 0.0431583 0)
(1.00723 0.0790279 0)
(0.775023 0.0478396 0)
(0.358977 -0.014749 0)
(1.04649 -0.0724927 0)
(1.08848 -0.0660294 0)
(1.04946 -0.0509232 0)
(1.02554 -0.0377026 0)
(1.0127 -0.0258944 0)
(1.00654 -0.01671 0)
(1.00361 -0.0102445 0)
(1.00218 -0.00562783 0)
(1.00151 -0.00204403 0)
(1.00138 0.00116343 0)
(1.00174 0.00446548 0)
(1.00271 0.00835673 0)
(1.00473 0.0136827 0)
(1.00896 0.0213754 0)
(1.01794 0.0318749 0)
(1.03579 0.044652 0)
(1.06741 0.0580987 0)
(1.09471 0.0699644 0)
(0.845652 0.0555046 0)
(0.217761 -0.00138154 0)
(1.07567 -0.0506662 0)
(1.09942 -0.0489526 0)
(1.06438 -0.040038 0)
(1.03986 -0.0325767 0)
(1.02375 -0.0253661 0)
(1.01399 -0.0181733 0)
(1.00849 -0.0115784 0)
(1.00564 -0.00583886 0)
(1.00448 -0.000560477 0)
(1.00479 0.00454165 0)
(1.00664 0.00982635 0)
(1.01057 0.0158059 0)
(1.01788 0.0225808 0)
(1.0305 0.0297049 0)
(1.05049 0.0368003 0)
(1.08005 0.04458 0)
(1.10567 0.0519122 0)
(0.943317 0.0409987 0)
(0.217232 0.00140366 0)
(0.176602 -0.00062931 0)
(1.01936 -0.0354808 0)
(1.1057 -0.041435 0)
(1.07796 -0.0364209 0)
(1.0524 -0.030374 0)
(1.03516 -0.0245059 0)
(1.02331 -0.0187437 0)
(1.01551 -0.0127747 0)
(1.01092 -0.00670459 0)
(1.0089 -0.000489063 0)
(1.00944 0.00565358 0)
(1.01252 0.0115614 0)
(1.01847 0.017338 0)
(1.02806 0.0229345 0)
(1.04228 0.0285089 0)
(1.0631 0.0343067 0)
(1.09388 0.0402014 0)
(1.09448 0.0417402 0)
(0.83032 0.0227591 0)
(0.175696 0.000646821 0)
(0.154674 -0.000463225 0)
(0.958085 -0.0257116 0)
(1.10437 -0.0351521 0)
(1.08804 -0.0327122 0)
(1.06118 -0.0282117 0)
(1.04312 -0.0232665 0)
(1.03075 -0.0180006 0)
(1.02218 -0.0124892 0)
(1.01664 -0.00661184 0)
(1.014 -0.000188442 0)
(1.01467 0.00625193 0)
(1.01847 0.0121149 0)
(1.02525 0.0174404 0)
(1.03538 0.0224786 0)
(1.05014 0.0273363 0)
(1.07208 0.0317953 0)
(1.10106 0.0356818 0)
(1.0698 0.0339098 0)
(0.742773 0.0144264 0)
(0.153321 0.000482869 0)
(0.139969 -0.000335343 0)
(0.900999 -0.0193509 0)
(1.09672 -0.0302694 0)
(1.09614 -0.0294045 0)
(1.06884 -0.0256308 0)
(1.05 -0.0215677 0)
(1.03705 -0.0169164 0)
(1.02809 -0.0117122 0)
(1.02217 -0.00603383 0)
(1.01921 0.000280811 0)
(1.01987 0.0066259 0)
(1.02389 0.0122625 0)
(1.03092 0.0172455 0)
(1.04142 0.021737 0)
(1.05682 0.0257241 0)
(1.07963 0.0292712 0)
(1.10342 0.0320082 0)
(1.03814 0.0280411 0)
(0.67613 0.0102691 0)
(0.138068 0.000358577 0)
(0.129209 -0.00025406 0)
(0.851034 -0.0149555 0)
(1.08429 -0.0261803 0)
(1.10177 -0.0265529 0)
(1.07562 -0.023256 0)
(1.05625 -0.0196428 0)
(1.04289 -0.0155031 0)
(1.03356 -0.010688 0)
(1.02737 -0.00524198 0)
(1.02421 0.000868245 0)
(1.02477 0.00697803 0)
(1.02883 0.0123244 0)
(1.03602 0.0168965 0)
(1.04681 0.0208078 0)
(1.0626 0.0241938 0)
(1.08588 0.0272627 0)
(1.10274 0.0291093 0)
(1.00366 0.0234576 0)
(0.624334 0.0078521 0)
(0.12664 0.000282251 0)
(0.121 -0.000195345 0)
(0.808442 -0.0117678 0)
(1.06887 -0.022586 0)
(1.10519 -0.0239336 0)
(1.08176 -0.0211038 0)
(1.06195 -0.0177305 0)
(1.04833 -0.0138881 0)
(1.03875 -0.00942369 0)
(1.0323 -0.00428346 0)
(1.02892 0.00157515 0)
(1.02934 0.00740955 0)
(1.03338 0.0123891 0)
(1.04065 0.0164955 0)
(1.05157 0.0199307 0)
(1.06762 0.0229142 0)
(1.09127 0.0256799 0)
(1.09921 0.0266342 0)
(0.968892 0.0198223 0)
(0.582921 0.00626386 0)
(0.117622 0.000229463 0)
(0.11463 -0.000151042 0)
(0.772514 -0.00937994 0)
(1.05189 -0.0194223 0)
(1.10743 -0.0215174 0)
(1.08753 -0.0190719 0)
(1.06729 -0.0158715 0)
(1.0534 -0.01222 0)
(1.04364 -0.00798419 0)
(1.03699 -0.00311317 0)
(1.03338 0.00243679 0)
(1.03362 0.00791381 0)
(1.03757 0.0124883 0)
(1.04479 0.0161806 0)
(1.05577 0.0192455 0)
(1.07209 0.0219092 0)
(1.09549 0.024357 0)
(1.09298 0.0245319 0)
(0.935216 0.0169735 0)
(0.548912 0.00516128 0)
(0.110266 0.000192398 0)
(0.109652 -0.000116007 0)
(0.742343 -0.00752247 0)
(1.0344 -0.0165994 0)
(1.10865 -0.019243 0)
(1.09294 -0.0171583 0)
(1.07241 -0.0140936 0)
(1.05825 -0.0105531 0)
(1.04831 -0.00645739 0)
(1.04145 -0.00179692 0)
(1.03759 0.00346578 0)
(1.03761 0.0085925 0)
(1.04139 0.0127792 0)
(1.04852 0.0161151 0)
(1.05949 0.0188543 0)
(1.07605 0.0212158 0)
(1.09844 0.0232905 0)
(1.08443 0.0227326 0)
(0.903273 0.014751 0)
(0.520291 0.00437351 0)
(0.104091 0.000166459 0)
(0.105778 -8.71261e-05 0)
(0.717135 -0.00602071 0)
(1.01729 -0.014053 0)
(1.109 -0.0170088 0)
(1.09819 -0.0152127 0)
(1.07739 -0.0121802 0)
(1.06295 -0.00871891 0)
(1.0528 -0.00476169 0)
(1.04572 -0.000279889 0)
(1.0416 0.00471323 0)
(1.04131 0.0094842 0)
(1.04483 0.0132893 0)
(1.05181 0.0162397 0)
(1.0628 0.0186134 0)
(1.07958 0.0206929 0)
(1.1001 0.0224284 0)
(1.07399 0.0211972 0)
(0.873286 0.0130346 0)
(0.495649 0.00380532 0)
(0.0987599 0.000148437 0)
(0.102817 -6.20472e-05 0)
(0.696269 -0.00475107 0)
(1.00117 -0.0117084 0)
(1.10864 -0.0148161 0)
(1.10326 -0.0132671 0)
(1.08232 -0.0102446 0)
(1.06753 -0.00680496 0)
(1.05713 -0.00289848 0)
(1.04978 0.00146314 0)
(1.04531 0.00621163 0)
(1.04467 0.0106264 0)
(1.0479 0.014058 0)
(1.05469 0.0166557 0)
(1.06568 0.0187087 0)
(1.08265 0.0205063 0)
(1.10084 0.0218362 0)
(1.06203 0.0199529 0)
(0.84518 0.0117274 0)
(0.473953 0.0034009 0)
(0.0940211 0.000137368 0)
(0.100653 -3.86563e-05 0)
(0.679316 -0.00362366 0)
(0.986537 -0.00948238 0)
(1.10771 -0.0125247 0)
(1.10799 -0.0111581 0)
(1.08722 -0.00815735 0)
(1.07211 -0.00469441 0)
(1.0614 -0.000798243 0)
(1.05369 0.00346714 0)
(1.04879 0.00802453 0)
(1.0477 0.0121355 0)
(1.05058 0.0151833 0)
(1.05717 0.0174107 0)
(1.06815 0.0191372 0)
(1.08523 0.0206061 0)
(1.10052 0.0214998 0)
(1.04878 0.0189638 0)
(0.818761 0.0107505 0)
(0.45443 0.00311971 0)
(0.089687 0.000131477 0)
(0.0992262 -1.56425e-05 0)
(0.66601 -0.0025697 0)
(0.973797 -0.00730819 0)
(1.10658 -0.0100876 0)
(1.11257 -0.0087801 0)
(1.09218 -0.00573029 0)
(1.07669 -0.00221379 0)
(1.06561 0.00168304 0)
(1.05749 0.00588197 0)
(1.05207 0.0102429 0)
(1.05043 0.0139974 0)
(1.05289 0.0166232 0)
(1.05921 0.0183938 0)
(1.07014 0.019701 0)
(1.08727 0.0208826 0)
(1.09918 0.0213921 0)
(1.03448 0.018204 0)
(0.793787 0.0100386 0)
(0.436491 0.00293231 0)
(0.0856118 0.000129094 0)
(0.0985228 8.70334e-06 0)
(0.656218 -0.00153064 0)
(0.963271 -0.00511284 0)
(1.10559 -0.00748639 0)
(1.11716 -0.00618833 0)
(1.09725 -0.00309127 0)
(1.08135 0.000535146 0)
(1.06987 0.00452448 0)
(1.06124 0.00873169 0)
(1.05517 0.0129408 0)
(1.05286 0.016362 0)
(1.05477 0.0185673 0)
(1.06075 0.0199276 0)
(1.07162 0.0208157 0)
(1.08881 0.021594 0)
(1.09672 0.0215867 0)
(1.01923 0.0177456 0)
(0.769934 0.00957365 0)
(0.419638 0.00283332 0)
(0.0816663 0.000131827 0)
(0.098559 2.82569e-05 0)
(0.649946 -0.000454938 0)
(0.9553 -0.00280994 0)
(1.10498 -0.00458045 0)
(1.12176 -0.00323038 0)
(1.1025 -6.69232e-05 0)
(1.08619 0.00375543 0)
(1.07419 0.00790184 0)
(1.06493 0.0121571 0)
(1.05808 0.0162411 0)
(1.05494 0.0193175 0)
(1.05619 0.0210321 0)
(1.06176 0.0218694 0)
(1.07251 0.0222726 0)
(1.08947 0.0226199 0)
(1.09292 0.0220639 0)
(1.00301 0.017499 0)
(0.746922 0.00931202 0)
(0.403467 0.00280259 0)
(0.0777447 0.000136702 0)
(0.0994169 6.92594e-05 0)
(0.647346 0.000679828 0)
(0.950251 -0.000346847 0)
(1.10522 -0.00130334 0)
(1.12662 0.000307144 0)
(1.10801 0.00364733 0)
(1.09122 0.00767302 0)
(1.0786 0.0119718 0)
(1.06854 0.0163071 0)
(1.0607 0.0202819 0)
(1.05656 0.022983 0)
(1.05703 0.0241602 0)
(1.06212 0.0243915 0)
(1.07271 0.0242152 0)
(1.08914 0.0240628 0)
(1.08767 0.0228553 0)
(0.9859 0.0175834 0)
(0.724379 0.00928193 0)
(0.387565 0.00285241 0)
(0.0737423 0.000145916 0)
(0.101249 9.80377e-05 0)
(0.64869 0.00187306 0)
(0.948421 0.0023109 0)
(1.10676 0.00232804 0)
(1.13205 0.00425934 0)
(1.11391 0.00787891 0)
(1.09655 0.0122163 0)
(1.08325 0.016815 0)
(1.0723 0.0213422 0)
(1.06328 0.025229 0)
(1.05791 0.0275037 0)
(1.05736 0.0281092 0)
(1.06175 0.0277031 0)
(1.0721 0.0269187 0)
(1.08777 0.0261041 0)
(1.08096 0.0241219 0)
(0.96767 0.0180116 0)
(0.701891 0.00948115 0)
(0.371533 0.00297809 0)
(0.0695503 0.000158708 0)
(0.104143 0.000145495 0)
(0.654507 0.00335739 0)
(0.950319 0.00531374 0)
(1.10992 0.00651857 0)
(1.13803 0.00883624 0)
(1.12032 0.0128235 0)
(1.10237 0.0176307 0)
(1.08817 0.0226591 0)
(1.07602 0.0274383 0)
(1.06549 0.0312896 0)
(1.05861 0.033142 0)
(1.05692 0.0330549 0)
(1.06054 0.0319162 0)
(1.07051 0.0304688 0)
(1.08503 0.0288741 0)
(1.07241 0.0258863 0)
(0.948119 0.0188474 0)
(0.678996 0.00993852 0)
(0.354947 0.00317973 0)
(0.0650751 0.000173055 0)
(0.108409 0.000210806 0)
(0.665146 0.00508361 0)
(0.956323 0.00879331 0)
(1.11523 0.0114119 0)
(1.14487 0.0144106 0)
(1.12746 0.0189955 0)
(1.10881 0.024369 0)
(1.09349 0.0298826 0)
(1.07986 0.0349455 0)
(1.06754 0.0387098 0)
(1.05882 0.0400039 0)
(1.05573 0.0391381 0)
(1.05835 0.0371391 0)
(1.06777 0.034873 0)
(1.08073 0.032473 0)
(1.06179 0.0283566 0)
(0.926952 0.0202906 0)
(0.655048 0.0107371 0)
(0.337288 0.00348028 0)
(0.0602248 0.0001889 0)
(0.114371 0.000295997 0)
(0.681229 0.00715055 0)
(0.967149 0.0128901 0)
(1.12338 0.017048 0)
(1.15316 0.0209697 0)
(1.13562 0.0264097 0)
(1.11602 0.0325088 0)
(1.09931 0.0386356 0)
(1.08388 0.0440866 0)
(1.06935 0.0477864 0)
(1.05844 0.0484606 0)
(1.05363 0.046658 0)
(1.05506 0.0436816 0)
(1.06385 0.0404891 0)
(1.07484 0.0372541 0)
(1.04888 0.0318474 0)
(0.903576 0.0224896 0)
(0.629193 0.0119766 0)
(0.317864 0.00390103 0)
(0.0548875 0.000206234 0)
(0.122456 0.000412469 0)
(0.703449 0.00977303 0)
(0.983297 0.0178456 0)
(1.13481 0.0237334 0)
(1.16331 0.028743 0)
(1.14509 0.035329 0)
(1.12417 0.0424544 0)
(1.10567 0.0494479 0)
(1.08792 0.0553636 0)
(1.07064 0.0588853 0)
(1.05717 0.0587353 0)
(1.05037 0.055837 0)
(1.05047 0.0517788 0)
(1.05853 0.0476257 0)
(1.06722 0.0434075 0)
(1.03324 0.0365057 0)
(0.877351 0.0256164 0)
(0.600322 0.0137163 0)
(0.295856 0.00444769 0)
(0.048926 0.000226545 0)
(0.133361 0.000582277 0)
(0.732882 0.0133178 0)
(1.00576 0.0241285 0)
(1.15016 0.032101 0)
(1.17584 0.038525 0)
(1.15636 0.0466813 0)
(1.13373 0.0551063 0)
(1.11282 0.0630527 0)
(1.09212 0.0692982 0)
(1.07155 0.0723811 0)
(1.05505 0.0711059 0)
(1.046 0.0668576 0)
(1.04459 0.0616059 0)
(1.05173 0.0563817 0)
(1.05762 0.0510308 0)
(1.01451 0.0424821 0)
(0.847452 0.0297449 0)
(0.567173 0.015908 0)
(0.270518 0.00508772 0)
(0.0422316 0.000248018 0)
(0.148271 0.000851214 0)
(0.771324 0.0184237 0)
(1.03607 0.0325452 0)
(1.17055 0.0431478 0)
(1.19169 0.0517651 0)
(1.16985 0.0617643 0)
(1.14464 0.0715794 0)
(1.12042 0.0802802 0)
(1.09598 0.0864954 0)
(1.07151 0.0886785 0)
(1.05163 0.0858265 0)
(1.04016 0.0798986 0)
(1.03715 0.0731781 0)
(1.04327 0.0667149 0)
(1.04563 0.0602281 0)
(0.9922 0.0499521 0)
(0.81269 0.0348109 0)
(0.528556 0.0184224 0)
(0.24136 0.00575982 0)
(0.0347646 0.000267978 0)
(0.169323 0.00132014 0)
(0.82193 0.0263092 0)
(1.07707 0.0448227 0)
(1.19716 0.0586994 0)
(1.21162 0.0701418 0)
(1.18568 0.081964 0)
(1.15663 0.0929347 0)
(1.12812 0.101897 0)
(1.09921 0.107514 0)
(1.07031 0.108178 0)
(1.04672 0.103253 0)
(1.03268 0.0952597 0)
(1.02804 0.0867803 0)
(1.03291 0.0789982 0)
(1.03098 0.0711971 0)
(0.965251 0.0587704 0)
(0.771767 0.0405632 0)
(0.483741 0.0210686 0)
(0.208441 0.00637464 0)
(0.0266497 0.000278481 0)
(0.199913 0.00237043 0)
(0.890394 0.0398086 0)
(1.13139 0.0647653 0)
(1.23021 0.0821013 0)
(1.23537 0.0963025 0)
(1.20322 0.109331 0)
(1.16896 0.120572 0)
(1.13521 0.128857 0)
(1.10118 0.132928 0)
(1.06744 0.131248 0)
(1.04 0.123677 0)
(1.02329 0.113339 0)
(1.01702 0.102873 0)
(1.02041 0.0935134 0)
(1.01288 0.0839895 0)
(0.932281 0.0685529 0)
(0.723662 0.0467065 0)
(0.433008 0.0236982 0)
(0.172904 0.0069029 0)
(0.018337 0.000272768 0)
(0.241641 0.00862091 5.04121e-20)
(0.98081 0.0671037 4.39573e-20)
(1.19675 0.0987061 -1.53198e-20)
(1.2668 0.117259 0)
(1.26003 0.134077 -3.85021e-34)
(1.22049 0.146483 5.61231e-21)
(1.18027 0.156358 -1.002e-20)
(1.14073 0.162691 0)
(1.10111 0.164179 2.03582e-34)
(1.06212 0.159342 -1.21999e-20)
(1.03045 0.148561 0)
(1.01075 0.13572 -1.43821e-20)
(1.00244 0.123457 -4.23479e-20)
(1.00377 0.112571 -1.99848e-20)
(0.989255 0.101188 -6.00555e-21)
(0.889488 0.082347 -3.5659e-21)
(0.662879 0.0549644 0)
(0.373671 0.0272516 2.49963e-21)
(0.135603 0.00822871 2.95294e-21)
(0.0105253 0.000478852 5.31125e-20)
(0.270504 0.0240787 3.7973e-20)
(1.0551 0.109764 5.20082e-22)
(1.24986 0.147384 4.14266e-21)
(1.29995 0.166127 0)
(1.28165 0.182412 -1.9765e-20)
(1.23538 0.192854 -2.23389e-20)
(1.18927 0.20069 -1.01732e-20)
(1.14369 0.204763 -3.59484e-20)
(1.09798 0.203529 0)
(1.0529 0.195368 5.21353e-20)
(1.0159 0.181057 5.15431e-20)
(0.992328 0.165224 1.53028e-20)
(0.981125 0.150732 5.55835e-20)
(0.977989 0.138156 7.78818e-20)
(0.953326 0.124529 0)
(0.831832 0.100787 1.09894e-19)
(0.591653 0.0658055 1.5788e-19)
(0.313666 0.032409 1.75469e-19)
(0.102419 0.00997179 -2.00763e-19)
(0.00401232 0.000417357 -3.76663e-21)
(0.271047 0.039716 0)
(1.10162 0.165214 6.95064e-21)
(1.28572 0.207391 0)
(1.32576 0.225953 -2.64912e-20)
(1.29866 0.238882 0)
(1.24673 0.245816 -4.42815e-20)
(1.19506 0.250208 2.08952e-20)
(1.14361 0.250865 -7.27749e-20)
(1.09199 0.246079 -1.56626e-21)
(1.04097 0.234254 2.71134e-20)
(0.998722 0.216765 1.13635e-19)
(0.971331 0.19867 -3.01709e-22)
(0.957605 0.182785 -4.04846e-20)
(0.951087 0.168985 -7.37679e-20)
(0.917327 0.15188 8.74538e-20)
(0.788011 0.121662 -1.54879e-19)
(0.55323 0.0795955 -2.04859e-20)
(0.292265 0.040358 0)
(0.0963142 0.0129689 4.75834e-24)
(0.00324603 0.000483846 0)
(0.264481 0.0532901 9.65017e-20)
(1.12629 0.223919 -4.63349e-20)
(1.3082 0.272133 -3.46206e-20)
(1.34289 0.290795 1.26939e-20)
(1.30968 0.299848 -2.12835e-20)
(1.25349 0.302655 9.31203e-20)
(1.19709 0.302881 4.37879e-20)
(1.14054 0.299462 0)
(1.08367 0.290786 -1.36785e-19)
(1.02739 0.275419 0)
(0.980468 0.255426 -5.987e-20)
(0.949437 0.235884 -7.36667e-20)
(0.932663 0.218747 -4.42353e-20)
(0.921541 0.202297 -5.37321e-20)
(0.881496 0.180434 0)
(0.755238 0.145015 0)
(0.53621 0.0980118 -1.34377e-19)
(0.293579 0.0526926 2.65648e-20)
(0.103521 0.0184592 -1.55657e-20)
(0.00551665 0.00104371 -1.81984e-20)
(0.256956 0.0653434 -4.25775e-20)
(1.13679 0.282382 0)
(1.32086 0.33779 7.29278e-20)
(1.35245 0.356908 3.62738e-20)
(1.31492 0.362237 4.8904e-20)
(1.25544 0.360793 0)
(1.19523 0.356688 4.31452e-20)
(1.13451 0.349084 8.09591e-20)
(1.07333 0.336533 7.03054e-20)
(1.01263 0.31779 1.28115e-19)
(0.961716 0.295277 0)
(0.927163 0.27382 -1.59214e-19)
(0.906367 0.254533 -9.5804e-20)
(0.889528 0.234898 -5.65841e-20)
(0.845836 0.20948 3.479e-19)
(0.729382 0.171144 4.1518e-20)
(0.528967 0.120001 1.95598e-19)
(0.30233 0.0681996 -9.24593e-19)
(0.116081 0.0263611 5.48825e-19)
(0.00954313 0.00228613 -6.61448e-19)
(0.249845 0.076238 -2.52459e-20)
(1.13817 0.338728 7.90372e-21)
(1.32614 0.402415 -8.34876e-21)
(1.35595 0.422384 -3.8312e-20)
(1.31525 0.424193 -4.22286e-20)
(1.25314 0.418547 1.75538e-21)
(1.18988 0.410239 -4.67241e-20)
(1.12587 0.398637 8.39424e-20)
(1.06117 0.382394 -1.51362e-19)
(0.996802 0.360232 0)
(0.942324 0.334642 -7.22443e-20)
(0.904298 0.310335 -1.61509e-21)
(0.879176 0.288149 -1.04843e-19)
(0.857244 0.26572 0)
(0.812814 0.238276 -7.53835e-20)
(0.706834 0.198774 -1.79579e-19)
(0.524046 0.14373 4.81471e-19)
(0.311703 0.0855282 -4.73221e-19)
(0.128286 0.0355931 6.73343e-19)
(0.0134855 0.00392132 -6.99674e-19)
(0.243914 0.0863261 -4.11024e-22)
(1.13382 0.392322 -4.07207e-21)
(1.326 0.464994 -2.52654e-20)
(1.35455 0.486098 1.60089e-20)
(1.31157 0.484643 -2.13484e-20)
(1.24737 0.474992 0)
(1.1817 0.462762 -4.38628e-20)
(1.11505 0.447471 -8.79683e-20)
(1.04746 0.427719 -7.87688e-20)
(0.97985 0.40198 0)
(0.922061 0.372721 -7.50301e-20)
(0.880681 0.345004 -9.27206e-20)
(0.851677 0.319809 1.13684e-19)
(0.826034 0.295213 -6.9022e-20)
(0.782292 0.266628 -3.28701e-19)
(0.68616 0.226079 1.96585e-19)
(0.518078 0.16771 5.89977e-20)
(0.318158 0.103148 0)
(0.137742 0.0451637 -6.50706e-19)
(0.0167033 0.0056784 -2.38562e-20)
(0.239237 0.0959212 -3.91752e-22)
(1.12597 0.443011 1.56576e-21)
(1.32173 0.525097 1.21717e-20)
(1.34935 0.547375 5.60833e-20)
(1.30468 0.542971 -7.97764e-20)
(1.23887 0.529647 9.05684e-20)
(1.17136 0.513873 9.42852e-20)
(1.10256 0.495229 -1.40484e-19)
(1.03244 0.472132 4.831e-20)
(0.961834 0.442663 -3.14978e-19)
(0.900889 0.409421 -8.47134e-20)
(0.856483 0.378156 0)
(0.824367 0.350261 1.23154e-19)
(0.796281 0.324073 1.4739e-19)
(0.75364 0.294932 1.76564e-19)
(0.664747 0.253156 -2.13191e-19)
(0.509399 0.191395 -6.31456e-20)
(0.319568 0.120279 7.42844e-20)
(0.142886 0.0541654 0)
(0.0188321 0.00730618 -5.16878e-20)
(0.235721 0.105184 -1.87439e-20)
(1.11624 0.490959 4.91802e-21)
(1.31463 0.583067 -1.12109e-20)
(1.34121 0.605914 3.45674e-20)
(1.29526 0.598883 -3.64895e-20)
(1.22831 0.582252 -4.05551e-21)
(1.15938 0.563367 -1.02733e-19)
(1.08879 0.541705 -5.07498e-20)
(1.01638 0.515411 -1.36641e-19)
(0.9429 0.482168 2.49767e-22)
(0.878952 0.444868 -2.65132e-19)
(0.831878 0.410149 2.23047e-19)
(0.79743 0.379777 -1.34972e-19)
(0.767915 0.352158 1.6205e-19)
(0.726471 0.322099 0)
(0.642922 0.278474 -1.15224e-19)
(0.497444 0.213274 -5.68303e-22)
(0.315976 0.135353 -3.22771e-19)
(0.143084 0.0614776 -4.74502e-20)
(0.0195926 0.00849815 0)
(0.233244 0.114266 0)
(1.10564 0.536431 8.93023e-21)
(1.30526 0.638005 -1.23934e-20)
(1.33079 0.661578 -3.21087e-20)
(1.28392 0.652233 -4.54038e-20)
(1.21622 0.632712 0)
(1.14621 0.61112 -4.70623e-20)
(1.07406 0.586745 -1.15627e-21)
(0.999514 0.557426 2.92455e-19)
(0.923258 0.520479 -4.32451e-20)
(0.856431 0.479202 -1.9128e-19)
(0.80701 0.441141 1.16037e-19)
(0.770797 0.408354 -2.08645e-21)
(0.740391 0.379156 1.72124e-19)
(0.699843 0.347609 1.06239e-19)
(0.620408 0.301501 -2.48641e-19)
(0.48253 0.232268 2.95146e-19)
(0.307556 0.147587 8.73224e-20)
(0.139492 0.0666157 3.60285e-19)
(0.0192457 0.00915772 -9.63548e-19)
(0.231766 0.123293 -1.2257e-20)
(1.0949 0.579595 1.28836e-20)
(1.29449 0.690031 -5.72417e-21)
(1.31869 0.714327 2.59754e-20)
(1.27118 0.702963 0)
(1.20304 0.680974 -4.22069e-20)
(1.13222 0.657051 1.57261e-19)
(1.05869 0.630238 1.11087e-19)
(0.982103 0.598087 0)
(0.90313 0.557606 -6.21383e-19)
(0.83352 0.512503 5.16414e-19)
(0.781964 0.471173 0)
(0.74434 0.435897 1.57152e-19)
(0.713328 0.404878 -2.0538e-21)
(0.673382 0.371455 -3.38617e-19)
(0.596728 0.32234 1.32735e-19)
(0.464463 0.248306 0)
(0.294872 0.156689 4.70472e-19)
(0.13226 0.0693927 0)
(0.0178357 0.00921718 -4.54989e-19)
(0.231098 0.132357 1.64992e-20)
(1.08447 0.620672 2.17768e-20)
(1.28276 0.739193 -4.38567e-21)
(1.30544 0.764194 0)
(1.25749 0.751085 -3.91798e-20)
(1.18917 0.727022 0)
(1.11771 0.701091 -1.55673e-19)
(1.04293 0.672096 -5.18508e-20)
(0.96439 0.637338 5.15858e-20)
(0.882756 0.593563 -3.07146e-19)
(0.810388 0.544826 5.33305e-20)
(0.756784 0.50024 0)
(0.717936 0.462318 -3.35286e-19)
(0.68645 0.429162 2.07689e-21)
(0.646857 0.393375 0)
(0.572007 0.340614 2.04808e-21)
(0.443453 0.260889 4.28769e-19)
(0.278342 0.162176 -4.06306e-19)
(0.122152 0.0699055 1.1972e-19)
(0.0157563 0.00881973 0)
(0.230924 0.141315 0)
(1.07471 0.65972 2.95397e-20)
(1.27044 0.785626 1.4088e-20)
(1.29147 0.811218 -2.40785e-21)
(1.24321 0.796636 -1.38138e-20)
(1.1749 0.770853 -9.41261e-20)
(1.10295 0.743194 5.80311e-20)
(1.02701 0.712257 -6.08206e-20)
(0.946608 0.675137 2.2963e-19)
(0.862346 0.62837 -4.90035e-19)
(0.787183 0.576212 -3.56202e-21)
(0.731501 0.528355 -1.47132e-19)
(0.691466 0.487579 5.43268e-19)
(0.659535 0.451936 -2.43063e-21)
(0.620035 0.413275 -2.62018e-19)
(0.546047 0.356138 -4.68836e-19)
(0.419862 0.269975 0)
(0.258643 0.164143 0)
(0.109791 0.0681339 1.29362e-19)
(0.0132575 0.00795963 -7.57566e-20)
(0.231373 0.150316 2.70221e-20)
(1.06557 0.696591 -7.0848e-20)
(1.25786 0.829423 -1.54004e-20)
(1.27714 0.855475 0)
(1.22866 0.839667 -1.57938e-21)
(1.16048 0.812468 -8.68378e-20)
(1.08815 0.78333 1.40572e-19)
(1.01116 0.750678 2.39931e-19)
(0.928968 0.711468 2.98249e-19)
(0.842106 0.662045 -3.99932e-19)
(0.764062 0.606717 -4.4212e-19)
(0.706149 0.555582 3.93207e-19)
(0.664838 0.511708 0)
(0.632401 0.47318 -1.18875e-19)
(0.592758 0.431102 -2.83444e-19)
(0.518893 0.368807 -3.36478e-19)
(0.393966 0.275366 -3.99869e-19)
(0.2365 0.16262 1.1829e-19)
(0.0957665 0.064115 -6.95745e-20)
(0.010403 0.00667167 2.85627e-22)
(0.23197 0.159246 0)
(1.05722 0.731851 0)
(1.2453 0.870702 2.58404e-21)
(1.26274 0.897075 0)
(1.21408 0.880254 3.21169e-20)
(1.14612 0.851892 5.94209e-20)
(1.0735 0.821485 0)
(0.99554 0.787339 2.8553e-20)
(0.911659 0.746321 4.97141e-19)
(0.82223 0.694609 -9.18477e-19)
(0.741178 0.636412 0)
(0.68079 0.582033 -2.52574e-19)
(0.637977 0.534796 -2.94456e-21)
(0.604889 0.492918 -2.381e-21)
(0.564897 0.446763 3.0258e-19)
(0.490559 0.378449 -3.63136e-22)
(0.365827 0.276983 -8.6043e-19)
(0.2123 0.15758 2.54435e-19)
(0.0811509 0.0583705 7.51978e-20)
(0.00753216 0.00514297 0)
(0.232622 0.168033 -1.17592e-19)
(1.04937 0.765486 -5.35188e-20)
(1.23287 0.909544 -6.04566e-20)
(1.24846 0.936143 2.9951e-20)
(1.19967 0.918459 4.08893e-20)
(1.13199 0.889151 0)
(1.05914 0.857667 8.49383e-20)
(0.980315 0.822238 -6.33676e-20)
(0.89484 0.779701 3.8752e-21)
(0.802894 0.726085 6.75049e-20)
(0.71869 0.665369 5.71002e-19)
(0.655503 0.607854 -8.85626e-20)
(0.610823 0.557017 -3.33931e-19)
(0.576807 0.511204 -1.38296e-19)
(0.53627 0.460101 1.6463e-19)
(0.461134 0.384763 -1.81927e-22)
(0.336381 0.274688 2.3195e-19)
(0.187344 0.149477 -5.47212e-19)
(0.0666146 0.0513465 6.4705e-19)
(0.00479602 0.00349904 9.43127e-20)
(0.233145 0.176553 4.61094e-20)
(1.042 0.797591 -3.11943e-20)
(1.22071 0.946061 6.191e-21)
(1.23446 0.972804 2.821e-20)
(1.18557 0.954378 -1.9038e-21)
(1.1182 0.924289 -1.03447e-19)
(1.0452 0.891892 2.48398e-20)
(0.965602 0.855376 -2.63953e-19)
(0.87865 0.8116 -5.46673e-19)
(0.784246 0.756473 -5.46287e-19)
(0.696756 0.693653 0)
(0.630386 0.6332 -3.87744e-19)
(0.583344 0.578599 4.80426e-19)
(0.547912 0.528155 0)
(0.506576 0.470889 -3.52209e-19)
(0.430644 0.387223 2.10907e-19)
(0.306284 0.268148 -2.49146e-19)
(0.162846 0.138657 -2.94581e-19)
(0.0530656 0.0436041 -5.21189e-19)
(0.00236956 0.00188416 -4.0633e-19)
(0.233983 0.184934 -5.35548e-20)
(1.03496 0.82813 3.34094e-20)
(1.20889 0.980343 7.38701e-20)
(1.22085 1.00715 4.67093e-20)
(1.1719 0.988092 7.73502e-21)
(1.10486 0.957369 -5.57417e-20)
(1.03176 0.924191 8.25176e-20)
(0.951498 0.886783 -2.70959e-19)
(0.863185 0.842036 -3.23219e-19)
(0.766413 0.785781 5.70656e-19)
(0.675526 0.721311 1.25073e-18)
(0.605579 0.65823 0)
(0.555559 0.599818 0)
(0.517912 0.544029 -1.59096e-19)
(0.475253 0.478923 0)
(0.398839 0.384954 4.53951e-19)
(0.276471 0.256522 5.36344e-19)
(0.140632 0.125208 0)
(0.0417799 0.0357503 0)
(0.00042254 0.000498928 4.36753e-19)
(0.234455 0.192866 6.25058e-20)
(1.02823 0.857086 5.01605e-20)
(1.19746 1.01251 5.44971e-20)
(1.20769 1.03932 -5.17661e-20)
(1.15872 1.0197 7.18817e-22)
(1.09203 0.988446 5.71742e-20)
(1.0189 0.954609 -1.12976e-19)
(0.938072 0.916478 -3.55703e-24)
(0.84853 0.871008 -5.02256e-21)
(0.749497 0.814 -5.37615e-21)
(0.655161 0.748374 6.43375e-19)
(0.581261 0.683074 0)
(0.527563 0.62098 4.84538e-19)
(0.486548 0.559242 3.38844e-19)
(0.44142 0.484306 8.21729e-19)
(0.364803 0.376858 2.44194e-19)
(0.247676 0.237659 -2.89271e-19)
(0.124253 0.10722 -1.6984e-19)
(0.0374203 0.0271267 0)
(0.000401569 -0.000102033 4.69353e-19)
(0.23521 0.200793 -1.4425e-19)
(1.02179 0.884575 0)
(1.1864 1.04263 6.77741e-20)
(1.19502 1.06939 -4.66008e-20)
(1.1461 1.04928 1.08975e-20)
(1.07975 1.01759 -6.06871e-20)
(1.00666 0.983191 2.18939e-19)
(0.925369 0.944492 -2.22951e-20)
(0.834731 0.898526 0)
(0.733578 0.841099 -6.28009e-19)
(0.635815 0.774835 -1.39577e-18)
(0.55764 0.707837 5.6938e-20)
(0.499573 0.642371 6.65875e-19)
(0.453717 0.574368 0)
(0.403997 0.487748 5.53767e-19)
(0.326242 0.362417 0)
(0.217843 0.20744 0)
(0.116934 0.0732624 -1.84091e-19)
(0.0594603 0.0066271 0)
(0.0268608 0.0108819 1.25808e-19)
(0.235571 0.208107 -1.64057e-19)
(1.01555 0.910877 0)
(1.17571 1.0709 1.15764e-19)
(1.18279 1.09761 0)
(1.13398 1.0771 -1.04732e-20)
(1.06797 1.04509 0)
(0.994998 1.01025 1.0807e-20)
(0.913305 0.971166 3.70298e-20)
(0.821685 0.924955 4.03159e-20)
(0.718514 0.867468 -6.87877e-19)
(0.617344 0.80113 4.18707e-20)
(0.534553 0.73311 4.57042e-19)
(0.471325 0.664674 6.48541e-19)
(0.418763 0.590308 8.74711e-20)
(0.361194 0.490936 4.33345e-19)
(0.278672 0.343253 0)
(0.175693 0.164523 6.1148e-19)
(0.0902132 0.0152217 -3.58285e-19)
(0.0436721 0.044104 4.15068e-19)
(-0.0691155 0.429815 -4.89542e-19)
(0.2359 0.215211 1.37528e-19)
(1.00928 0.935797 2.08135e-19)
(1.16528 1.09765 0)
(1.17086 1.1244 5.16098e-21)
(1.1222 1.10372 3.80447e-20)
(1.05645 1.07161 6.82732e-20)
(0.983606 1.03657 7.54959e-20)
(0.901492 0.997442 0)
(0.808881 0.951386 2.67386e-19)
(0.703655 0.894403 -3.59191e-20)
(0.598861 0.828709 0)
(0.510863 0.760633 0)
(0.441323 0.689644 5.78868e-19)
(0.379955 0.608495 -2.69891e-19)
(0.310052 0.49656 -4.37536e-19)
(0.217248 0.324578 0)
(0.101942 0.154464 3.08066e-19)
(0.00657856 0.436005 -3.56937e-19)
(0.0355807 1.87607 -1.95862e-19)
(0.0655475 2.80387 -2.50078e-19)
(0.23603 0.221461 -1.05322e-19)
(1.00315 0.959508 -2.70768e-19)
(1.15512 1.12284 7.09861e-20)
(1.15922 1.14964 5.329e-20)
(1.11078 1.12891 0)
(1.04524 1.09686 3.5773e-20)
(0.972682 1.06186 1.02356e-19)
(0.890116 1.02289 -1.78712e-20)
(0.796581 0.977301 3.97807e-20)
(0.689375 0.921286 6.54028e-19)
(0.58096 0.856902 7.01983e-19)
(0.487538 0.789988 5.08479e-19)
(0.410585 0.717063 5.79924e-19)
(0.339181 0.62767 -6.30036e-19)
(0.256545 0.507548 -6.58116e-19)
(0.143492 0.353398 0)
(0.0503693 0.826385 0)
(0.106689 2.54204 1.70209e-19)
(0.107782 3.19512 0)
(0.110753 3.38554 4.08895e-19)
(0.238705 0.227148 0)
(0.997741 0.982192 0)
(1.145 1.14634 0)
(1.14763 1.17311 1.71557e-20)
(1.0994 1.15243 3.78165e-20)
(1.03412 1.12071 1.21058e-20)
(0.962123 1.08598 6.53738e-20)
(0.879134 1.04739 -1.74084e-20)
(0.784754 1.00257 3.32904e-19)
(0.675707 0.947981 -9.75238e-21)
(0.563798 0.885602 1.38335e-18)
(0.464946 0.821018 -5.83818e-20)
(0.379501 0.747799 7.00319e-20)
(0.298881 0.645195 9.06881e-20)
(0.194559 0.526775 -2.38158e-21)
(0.110291 0.958581 1.78452e-21)
(0.147719 2.70071 -8.85317e-19)
(0.157974 3.28814 -3.34755e-19)
(0.145494 3.42577 1.74036e-19)
(0.131281 3.44862 -1.93809e-19)
(0.156698 0.183757 6.38354e-20)
(0.987116 1.0066 0)
(1.13462 1.16839 -1.49337e-19)
(1.13661 1.19529 -1.5065e-19)
(1.08889 1.17509 1.06643e-19)
(1.02401 1.14382 -7.10165e-21)
(0.951837 1.10907 -6.65794e-20)
(0.868653 1.07109 1.93151e-19)
(0.773588 1.02731 -2.72149e-19)
(0.662962 0.974605 0)
(0.547788 0.914974 6.78382e-19)
(0.443684 0.85358 -4.13024e-19)
(0.348566 0.784822 0)
(0.257467 0.665275 8.39865e-20)
(0.161591 0.800095 2.01161e-19)
(0.162873 2.46294 -2.39201e-19)
(0.225124 3.32176 2.69536e-19)
(0.202985 3.44103 1.45667e-19)
(0.168346 3.46292 1.65152e-19)
(0.145409 3.47334 2.62516e-19)
(0.282047 0.265984 -1.15367e-19)
(0.972356 1.01675 0)
(1.11646 1.19339 1.65475e-19)
(1.12178 1.22695 1.74145e-19)
(1.07217 1.2083 -1.29414e-19)
(1.00686 1.17776 -1.77898e-20)
(0.933923 1.14457 6.08836e-20)
(0.850158 1.10767 1.50853e-20)
(0.753781 1.06582 2.59134e-19)
(0.640474 1.0166 5.62391e-19)
(0.520347 0.962756 3.82525e-20)
(0.407832 0.908219 3.65789e-19)
(0.294296 0.844417 6.51971e-20)
(0.221013 0.968558 -8.23658e-20)
(0.237183 2.31086 -1.89353e-19)
(0.300962 3.32587 1.82413e-19)
(0.284687 3.47306 -2.0224e-19)
(0.247609 3.49494 -1.17242e-19)
(0.209309 3.52244 -9.85492e-20)
(0.156726 3.51588 -1.16491e-20)
(0.270004 0.262881 0)
(0.970247 1.03947 5.02593e-20)
(1.1084 1.2166 -3.49193e-20)
(1.11151 1.2502 -2.16057e-20)
(1.0617 1.23146 -9.4556e-20)
(0.996539 1.20133 2.30555e-20)
(0.923335 1.16833 -3.06805e-20)
(0.83945 1.13218 1.34917e-20)
(0.742679 1.09168 -2.69509e-19)
(0.628338 1.04507 -1.42353e-20)
(0.505979 0.995706 -1.22233e-18)
(0.389835 0.946831 5.19799e-20)
(0.282521 0.91191 -6.1533e-20)
(0.261473 1.47549 -7.62178e-20)
(0.338214 3.08574 1.78213e-20)
(0.360796 3.47111 8.15341e-22)
(0.31985 3.52992 2.90194e-19)
(0.28154 3.55454 1.41304e-19)
(0.231457 3.57847 -3.36158e-20)
(0.171111 3.5741 -5.37377e-20)
(0.253644 0.261258 1.29702e-19)
(0.966563 1.06485 3.45771e-19)
(1.09989 1.2419 -1.00773e-19)
(1.10069 1.27484 -8.1845e-20)
(1.0507 1.25596 0)
(0.985798 1.22604 6.53531e-20)
(0.912604 1.19331 -2.90148e-20)
(0.828876 1.15787 1.17895e-20)
(0.732029 1.11879 -2.99369e-20)
(0.617166 1.075 -5.07242e-19)
(0.493352 1.0304 -5.63135e-19)
(0.375337 0.987893 -4.27345e-19)
(0.284039 1.03956 -4.62715e-19)
(0.330008 2.16332 4.78762e-19)
(0.425381 3.37596 4.00682e-19)
(0.405573 3.53157 0)
(0.3586 3.57606 0)
(0.32082 3.61795 -2.55948e-20)
(0.26739 3.67864 0)
(0.183195 3.65374 -2.57923e-20)
(0.242777 0.263068 -1.97139e-19)
(0.96089 1.09131 -2.97099e-19)
(1.08999 1.26842 0)
(1.08858 1.30029 6.17051e-21)
(1.03848 1.28107 -1.11371e-19)
(0.973954 1.25122 1.19811e-19)
(0.901095 1.21879 -9.48095e-21)
(0.817726 1.18395 6.74952e-21)
(0.721038 1.14622 -1.90062e-19)
(0.606044 1.10518 2.54048e-20)
(0.481572 1.06546 0)
(0.36376 1.03223 0)