/*--------------------------------*- C++ -*----------------------------------*\
| =========                 |                                                 |
| \\      /  F ield         | OpenFOAM: The Open Source CFD Toolbox           |
|  \\    /   O peration     | Version:  2112                                  |
|   \\  /    A nd           | Website:  www.openfoam.com                      |
|    \\/     M anipulation  |                                                 |
\*---------------------------------------------------------------------------*/
FoamFile
{
    version     2.0;
    format      ascii;
    arch        "LSB;label=32;scalar=64";
    class       volScalarField;
    location    "5.5005";
    object      Ma;
}
// * * * * * * * * * * * * * * * * * * * * * * * * * * * * * * * * * * * * * //

dimensions      [0 0 0 0 0 0 0];

internalField   nonuniform List<scalar> 
7000
(
3.00001
3
3
3
3
3
3
3
2.99997
2.99992
2.99937
2.99906
2.995
2.9966
2.98389
2.96955
2.84285
2.56593
1.89266
1.0898
0.486365
0.374687
0.412116
0.439836
0.437565
0.420011
0.394806
0.371697
0.353337
0.336
0.317102
0.296466
0.274974
0.253163
0.231201
0.20961
0.18902
0.169844
0.152174
0.135813
0.120397
0.105398
0.0900841
0.0739383
0.0566291
0.0373935
0.0155665
0.00300168
0.00543901
0.00587944
3.00001
3
3
3
3
3
3
3
2.99997
2.99992
2.99941
2.99908
2.99534
2.99671
2.98491
2.97299
2.8499
2.58036
1.9145
1.1146
0.497171
0.372133
0.407546
0.434347
0.431223
0.412665
0.386287
0.362133
0.342994
0.3252
0.306277
0.286171
0.265789
0.245601
0.225669
0.206277
0.187686
0.169994
0.153144
0.137
0.121415
0.106139
0.0908721
0.0756274
0.0608446
0.0468462
0.0329995
0.0178577
0.00375754
0.00588832
3.00001
3
3
3
3
3
3
3
2.99997
2.99992
2.99943
2.99912
2.99539
2.99734
2.98613
2.97414
2.85232
2.58886
1.92916
1.13255
0.503814
0.366993
0.402786
0.429771
0.426165
0.407142
0.380475
0.356347
0.337371
0.319792
0.301248
0.28179
0.262312
0.243209
0.224512
0.206405
0.188991
0.172245
0.156072
0.140373
0.125125
0.110263
0.0957649
0.0819664
0.0694517
0.0581981
0.0464814
0.0320599
0.0143618
0.00489509
3.00001
3
3
3
3
3
3
3
2.99997
2.99992
2.99947
2.99906
2.99577
2.99704
2.98617
2.97628
2.85679
2.59997
1.94884
1.15736
0.515265
0.363553
0.398679
0.425433
0.421502
0.402412
0.375962
0.352381
0.333849
0.316568
0.298376
0.27949
0.260807
0.242641
0.224974
0.207905
0.191433
0.175486
0.159986
0.144901
0.1303
0.116203
0.102742
0.0903229
0.079306
0.0692412
0.0581603
0.0439756
0.0261581
0.00642814
3.00001
3
3
3
3
3
3
3
2.99999
2.99989
2.99965
2.99892
2.99718
2.99451
2.98323
2.97472
2.85239
2.61012
1.96792
1.18296
0.52546
0.357716
0.394159
0.422101
0.418715
0.399871
0.373747
0.350694
0.332488
0.315358
0.297391
0.278974
0.261011
0.243692
0.226938
0.21076
0.195101
0.179883
0.165069
0.150676
0.136829
0.123621
0.111195
0.0998757
0.0898047
0.0802728
0.0693652
0.0551851
0.0370471
0.0163779
3.00001
3
3
3
3
3
3
3
2.99999
2.99988
2.99971
2.99884
2.99755
2.99389
2.98439
2.97175
2.85674
2.62385
1.99662
1.21873
0.54325
0.356271
0.393168
0.421715
0.418188
0.398977
0.37269
0.34995
0.332018
0.315046
0.297414
0.279694
0.262634
0.24626
0.230447
0.215139
0.200239
0.185702
0.17154
0.157858
0.144768
0.132417
0.120945
0.110502
0.101038
0.0917449
0.0808652
0.0667341
0.0487015
0.0288167
3.00001
3
3
3
3
3
3
3
2.99999
2.99988
2.99972
2.9988
2.99773
2.99358
2.98418
2.97357
2.8655
2.63697
2.03222
1.25953
0.563657
0.354094
0.392057
0.421474
0.417566
0.397789
0.371388
0.349163
0.331672
0.315144
0.298261
0.281584
0.265665
0.250395
0.235589
0.221144
0.206979
0.193076
0.179556
0.166517
0.154171
0.142611
0.13189
0.122098
0.11306
0.103923
0.0931242
0.0792378
0.0617088
0.0427979
3.00001
3
3
3
3
3
3
3
2.99999
2.99988
2.99972
2.99881
2.99768
2.99382
2.98427
2.97397
2.86901
2.65474
2.06599
1.31124
0.588066
0.351526
0.390951
0.421548
0.417122
0.396843
0.370492
0.348884
0.332087
0.316399
0.30058
0.285131
0.270466
0.256354
0.242558
0.228949
0.21548
0.202194
0.189234
0.176781
0.164987
0.154139
0.144086
0.134818
0.126116
0.117143
0.106496
0.0929953
0.0761746
0.0581571
3.00001
3
3
3
3
3
3
3
2.99999
2.99988
2.99974
2.99886
2.99804
2.99394
2.98538
2.97316
2.88095
2.67402
2.11037
1.36685
0.613406
0.348295
0.390179
0.422118
0.417181
0.396764
0.370927
0.350514
0.33472
0.319952
0.305202
0.291014
0.277585
0.264561
0.251696
0.238849
0.225969
0.213185
0.200659
0.188696
0.177514
0.167129
0.157623
0.148808
0.140414
0.131644
0.121252
0.108187
0.0920636
0.0748245
3.00001
3.00001
3
3
3
3
3
3
2.99999
2.99987
2.99973
2.99888
2.99805
2.99408
2.98573
2.97443
2.89011
2.69619
2.1605
1.43585
0.643121
0.346017
0.390094
0.423156
0.418402
0.3988
0.374437
0.355387
0.340642
0.326808
0.31321
0.300225
0.287818
0.275614
0.26339
0.251045
0.238574
0.226171
0.214077
0.202431
0.19169
0.181806
0.172635
0.164223
0.156115
0.147568
0.137487
0.124976
0.109576
0.0929618
3.00001
3.00001
3
3
3
3
3
3
2.99999
2.99988
2.99975
2.99898
2.99824
2.99473
2.98693
2.9772
2.89933
2.71721
2.22658
1.52157
0.684754
0.355421
0.397658
0.429197
0.425411
0.407007
0.384428
0.366109
0.351749
0.338621
0.325768
0.313363
0.301349
0.289529
0.277631
0.265585
0.253452
0.241307
0.22952
0.218308
0.207805
0.198351
0.189613
0.18142
0.173613
0.165362
0.155624
0.14355
0.128775
0.112723
3.00001
3.00001
3
3
3
3
3.00001
3
2.99999
2.99988
2.99976
2.99905
2.99837
2.99508
2.98791
2.97906
2.9055
2.73202
2.31281
1.62643
0.746268
0.38756
0.41766
0.442063
0.440219
0.422959
0.401355
0.382515
0.367718
0.354526
0.341763
0.329485
0.317647
0.305948
0.294228
0.28235
0.270448
0.258654
0.247104
0.236222
0.2261
0.216809
0.208493
0.200671
0.193031
0.185098
0.17581
0.164376
0.150257
0.134704
3.00001
3.00001
3.00001
3
3
3
3.00001
3
2.99999
2.99989
2.99978
2.99913
2.99851
2.99559
2.98861
2.98105
2.91431
2.75532
2.38976
1.72699
0.815952
0.425624
0.427306
0.447325
0.452433
0.439233
0.419957
0.400912
0.385861
0.372844
0.360452
0.348191
0.336361
0.324615
0.312893
0.301243
0.289499
0.278044
0.266916
0.25635
0.246633
0.237732
0.229591
0.222213
0.215031
0.207399
0.198549
0.187632
0.174154
0.159069
3.00001
3.00001
3.00001
3.00001
3
3
3.00001
3
2.99999
2.99989
2.99978
2.99919
2.99858
2.996
2.98864
2.98431
2.92386
2.78983
2.45451
1.84464
0.918994
0.486355
0.434089
0.453029
0.46351
0.454901
0.438829
0.420138
0.404736
0.391702
0.379604
0.367796
0.35615
0.344802
0.333418
0.32213
0.31096
0.29988
0.289271
0.27916
0.269868
0.26143
0.25373
0.246501
0.239727
0.232754
0.224568
0.214463
0.201734
0.187234
3.00001
3.00001
3.00001
3.00001
3.00001
3
3
3
2.99999
2.99989
2.99979
2.99927
2.99867
2.9965
2.9896
2.9872
2.93307
2.81882
2.52283
1.96688
1.04904
0.559944
0.440816
0.459867
0.476201
0.472548
0.45877
0.441294
0.425637
0.412816
0.40096
0.389364
0.377934
0.366724
0.355801
0.344988
0.334429
0.32414
0.31415
0.304727
0.295947
0.288103
0.281066
0.27463
0.268246
0.261783
0.254447
0.245211
0.233451
0.219409
3.00001
3.00001
3.00001
3.00001
3.00001
3.00001
3
3
2.99994
2.99987
2.99949
2.99914
2.99699
2.99513
2.98285
2.97924
2.94947
2.85726
2.58919
2.08587
1.20373
0.645408
0.455168
0.475607
0.496328
0.497105
0.484278
0.467228
0.450801
0.437763
0.426023
0.414614
0.403327
0.392329
0.381583
0.371212
0.361132
0.351504
0.342331
0.333685
0.325697
0.318465
0.312145
0.306497
0.301431
0.296075
0.289914
0.282248
0.271734
0.258942
3.00001
3.00001
3.00001
3.00001
3.00001
3.00001
3
3
2.99997
2.99994
2.99977
2.99961
2.99876
2.9976
2.99496
2.98061
2.97618
2.88266
2.68816
2.12728
1.40352
0.69602
0.455812
0.482431
0.509902
0.51671
0.507192
0.492369
0.476779
0.464355
0.453343
0.442546
0.431884
0.421399
0.41123
0.401328
0.391875
0.382844
0.37441
0.36668
0.359683
0.353506
0.348245
0.343758
0.339745
0.336272
0.33226
0.326723
0.318844
0.307243
3.00001
3.00001
3.00001
3.00001
3.00001
3.00001
3
3
2.99997
2.99994
2.99978
2.99965
2.99887
2.99748
2.9958
2.98126
2.98232
2.89875
2.7259
2.2747
1.58695
0.762882
0.460977
0.487185
0.517118
0.529252
0.523801
0.512212
0.49886
0.488194
0.478919
0.46979
0.460562
0.451446
0.442493
0.433822
0.425443
0.417603
0.410225
0.403571
0.397818
0.393159
0.389677
0.387342
0.385906
0.384907
0.384407
0.383356
0.379698
0.373101
3.00001
3.00001
3.00001
3.00001
3.00001
3.00001
3
3
2.99998
2.99996
2.99984
2.99973
2.99923
2.99796
2.99667
2.98409
2.9864
2.91563
2.76814
2.40756
1.75979
0.865018
0.498
0.492711
0.520122
0.535712
0.5345
0.526492
0.516056
0.507213
0.500099
0.493397
0.486538
0.479595
0.472756
0.466094
0.459758
0.453765
0.448388
0.443731
0.440169
0.437667
0.436566
0.437079
0.439358
0.443593
0.448955
0.455958
0.463496
0.468632
3.00001
3.00001
3.00001
3.00001
3.00001
3.00001
3
3
2.99999
2.99997
2.99992
2.99978
2.99954
2.99784
2.99527
2.97908
2.9796
2.93852
2.82274
2.51454
1.94237
1.03359
0.584576
0.500351
0.521265
0.538866
0.541828
0.536873
0.529327
0.52257
0.517559
0.513052
0.508555
0.504108
0.499865
0.495818
0.491984
0.48871
0.486197
0.484822
0.484207
0.485292
0.487865
0.49303
0.500904
0.51235
0.529151
0.552169
0.587278
0.660865
3.00001
3.00001
3.00001
3.00001
3.00001
3.00001
3.00001
3.00001
3
3
2.99996
2.99994
2.99969
2.99937
2.99733
2.99584
2.97828
2.97701
2.87221
2.65814
2.0712
1.3277
0.70456
0.52516
0.535504
0.551528
0.557839
0.554203
0.548202
0.542263
0.538801
0.536623
0.534807
0.532916
0.531359
0.530542
0.530662
0.531697
0.533633
0.536767
0.541479
0.547911
0.557568
0.570242
0.588665
0.613671
0.648953
0.702143
0.78543
0.899927
3.00001
3.00001
3.00001
3.00001
3.00001
3.00001
3.00001
3.00001
3
3
2.99998
2.99996
2.99975
2.99945
2.99746
2.99638
2.98275
2.98489
2.90498
2.74232
2.32924
1.66556
0.841316
0.540558
0.545721
0.565261
0.577924
0.5765
0.570389
0.5645
0.561102
0.5599
0.559523
0.560007
0.561423
0.563753
0.56717
0.571617
0.577516
0.584986
0.594834
0.607147
0.622879
0.643702
0.669896
0.70648
0.753078
0.818222
0.912674
1.01427
3.00001
3.00001
3.00001
3.00001
3.00001
3.00001
3.00001
3.00001
3.00001
3
2.99999
2.99997
2.99983
2.99961
2.99822
2.99743
2.98818
2.98895
2.93175
2.79915
2.4928
1.90495
1.00423
0.607769
0.55878
0.57979
0.595707
0.597551
0.592823
0.587916
0.584999
0.584187
0.584872
0.587578
0.591667
0.596491
0.602455
0.609869
0.61906
0.630554
0.644323
0.661872
0.682355
0.708565
0.740126
0.779347
0.829385
0.887571
0.965924
1.03695
3.00001
3.00001
3.00001
3.00001
3.00001
3.00001
3.00001
3.00001
3.00001
3
3
2.99998
2.99991
2.99984
2.9992
2.99844
2.99172
2.99192
2.95102
2.87549
2.64383
2.20165
1.32906
0.80507
0.620243
0.615963
0.62418
0.630189
0.626628
0.621212
0.617312
0.615636
0.616654
0.620079
0.624598
0.630288
0.637559
0.646702
0.657928
0.671658
0.688179
0.707887
0.731898
0.759331
0.793386
0.830928
0.877952
0.92742
0.989824
1.04457
3.00001
3.00001
3.00001
3.00001
3.00001
3.00001
3.00001
3.00001
3.00001
3.00001
3
2.99999
2.99995
2.99989
2.99953
2.99901
2.99627
2.99416
2.9801
2.95759
2.81778
2.49194
1.79106
1.04195
0.669962
0.637758
0.648793
0.659435
0.661267
0.657639
0.654293
0.652902
0.653796
0.656662
0.661008
0.666902
0.67467
0.684456
0.696475
0.710773
0.728109
0.748022
0.772209
0.798957
0.831575
0.866196
0.907998
0.951151
1.00153
1.04799
3.00001
3.00001
3.00001
3.00001
3.00001
3.00001
3.00001
3.00001
3.00001
3
3
2.99999
2.99997
2.99987
2.99976
2.99897
2.99806
2.99029
2.99059
2.94381
2.85952
2.60459
2.12702
1.26636
0.792915
0.657556
0.661527
0.675276
0.687287
0.689428
0.687988
0.687456
0.688707
0.691697
0.696193
0.702536
0.710732
0.720874
0.733376
0.747711
0.764986
0.784142
0.807117
0.831951
0.861496
0.892738
0.928895
0.966791
1.00912
1.04917
3.00001
3.00001
3.00001
3.00001
3.00001
3.00001
3.00001
3.00001
3.00001
3.00001
3
3
2.99999
2.99994
2.99987
2.99941
2.99875
2.9947
2.99256
2.97534
2.94427
2.79549
2.468
1.77731
1.05142
0.708284
0.684137
0.698532
0.714184
0.72089
0.721663
0.721657
0.723122
0.726172
0.731118
0.737412
0.746017
0.755718
0.768361
0.782046
0.798997
0.816967
0.838393
0.861134
0.887245
0.915297
0.945979
0.979078
1.01455
1.04952
3.00001
3.00001
3.00001
3.00001
3.00001
3.00001
3.00001
3.00001
3.00001
3.00001
3.00001
3
2.99999
2.99995
2.99991
2.99959
2.99918
2.9962
2.99467
2.97467
2.9797
2.85509
2.63632
2.0507
1.33119
0.800508
0.69375
0.705414
0.72406
0.74072
0.74665
0.748622
0.751136
0.75502
0.760875
0.767773
0.776968
0.786846
0.799305
0.812837
0.828727
0.846152
0.865567
0.886963
0.909871
0.935129
0.961487
0.990033
1.02056
1.04957
3.00001
3.00001
3.00001
3.00001
3.00001
3.00001
3.00001
3.00001
3.00001
3.00001
3
3
2.99999
2.99998
2.99991
2.9998
2.99917
2.99851
2.99573
2.988
2.96674
2.9188
2.76577
2.4168
1.77484
1.02359
0.741528
0.720867
0.739584
0.758555
0.768677
0.772922
0.776194
0.780509
0.786392
0.793579
0.80261
0.81268
0.824597
0.837863
0.852735
0.869145
0.88702
0.906505
0.92732
0.94945
0.973105
0.998375
1.02581
1.05069
3.00001
3.00001
3.00001
3.00001
3.00001
3.00001
3.00001
3.00001
3.00001
3.00001
3.00001
3.00001
3
3
2.99996
2.99993
2.9996
2.99922
2.99646
2.99507
2.9758
2.97986
2.85785
2.64939
2.0755
1.36237
0.845346
0.744493
0.752731
0.769212
0.78598
0.794395
0.799122
0.804052
0.809931
0.816972
0.825187
0.834628
0.845389
0.857468
0.870825
0.885595
0.901584
0.918825
0.937287
0.957183
0.979093
1.00174
1.02535
1.04643
3.00001
3.00001
3.00001
3.00001
3.00001
3.00001
3.00001
3.00001
3.00001
3.00001
3.00001
3.00001
3
3
2.99997
2.99995
2.99973
2.99949
2.99798
2.99719
2.98918
2.96419
2.92919
2.77206
2.46398
1.83835
1.09719
0.81011
0.776644
0.788847
0.803872
0.81526
0.820911
0.825557
0.831201
0.838058
0.845867
0.854508
0.863636
0.873738
0.884788
0.897026
0.910606
0.925806
0.942717
0.960882
0.979981
0.999394
1.01823
1.03455
3.00001
3.00001
3.00001
3.00001
3.00001
3.00001
3.00001
3.00001
3.00001
3.00001
3.00001
3.00001
3.00001
3
3
2.99995
2.99993
2.99962
2.99933
2.99672
2.99562
2.97866
2.98391
2.87495
2.68794
2.16292
1.47483
0.942719
0.819348
0.81118
0.821416
0.832371
0.839185
0.843314
0.847496
0.85269
0.858896
0.866135
0.873895
0.882727
0.89267
0.904002
0.916318
0.929607
0.943966
0.958777
0.973361
0.986758
0.999148
1.00936
3.00001
3.00001
3.00001
3.00001
3.00001
3.00001
3.00001
3.00001
3.00001
3.00001
3.00001
3.00001
3.00001
3
3
2.99999
2.99991
2.99988
2.99938
2.99891
2.99482
2.99341
2.96813
2.97395
2.83007
2.59118
1.98237
1.2923
0.918317
0.856606
0.851207
0.856203
0.863315
0.86738
0.869485
0.871319
0.87388
0.878117
0.883753
0.890451
0.898075
0.906584
0.916085
0.925589
0.935241
0.944096
0.951695
0.958274
0.964469
0.968925
3.00001
3.00001
3.00001
3.00001
3.00001
3.00001
3.00001
3.00001
3.00001
3.00001
3.00001
3.00001
3.00001
3.00001
3
2.99999
2.99998
2.99989
2.99981
2.99908
2.99832
2.99219
2.99073
2.9597
2.96082
2.79329
2.48664
1.83005
1.18896
0.906387
0.874195
0.87519
0.882522
0.888881
0.890854
0.891171
0.89182
0.893294
0.895524
0.898454
0.901715
0.904912
0.908179
0.911012
0.913024
0.914558
0.915826
0.917602
0.919581
0.921598
3.00001
3.00001
3.00001
3.00001
3.00001
3.00001
3.00001
3.00001
3.00001
3.00001
3.00001
3.00001
3.00001
3.00001
3
3
2.99999
2.99994
2.99992
2.99958
2.99925
2.99678
2.99542
2.97791
2.98391
2.8856
2.71509
2.22248
1.58136
1.02895
0.895985
0.883642
0.890105
0.897359
0.900852
0.900537
0.898947
0.896939
0.894624
0.892018
0.888856
0.885384
0.881836
0.878596
0.875753
0.874295
0.874366
0.875338
0.878116
0.882347
3.00001
3.00001
3.00001
3.00001
3.00001
3.00001
3.00001
3.00001
3.00001
3.00001
3.00001
3.00001
3.00001
3.00001
3.00001
3.00001
3
2.99999
2.99993
2.9999
2.99944
2.99909
2.9954
2.99409
2.97135
2.98081
2.85205
2.64727
2.08633
1.43323
1.00205
0.914305
0.902129
0.901163
0.899792
0.896085
0.890088
0.881719
0.871814
0.861636
0.852404
0.84489
0.839942
0.837223
0.836872
0.838206
0.841398
0.847143
0.85515
0.863773
3.00001
3.00001
3.00001
3.00001
3.00001
3.00001
3.00001
3.00001
3.00001
3.00001
3.00001
3.00001
3.00001
3.00001
3.00001
3.00001
3
3
2.99997
2.99987
2.99982
2.99934
2.99857
2.99565
2.99012
2.97131
2.93249
2.8167
2.54377
1.98555
1.28765
0.997016
0.917166
0.893195
0.881129
0.867932
0.851896
0.834392
0.819074
0.808749
0.803185
0.801869
0.803292
0.806874
0.813036
0.821542
0.831056
0.841572
0.852848
0.863602
3.00001
3.00001
3.00001
3.00001
3.00001
3.00001
3.00001
3.00001
3.00001
3.00001
3.00001
3.00001
3.00001
3.00001
3.00001
3.00001
3
3
2.99998
2.99997
2.99987
2.99976
2.99907
2.99837
2.9947
2.98833
2.96496
2.91984
2.78029
2.46761
1.85492
1.18075
0.931151
0.854832
0.826415
0.8056
0.786624
0.773771
0.768599
0.768822
0.771923
0.778307
0.787528
0.797839
0.808928
0.820586
0.832587
0.844496
0.856241
0.866591
3.00001
3.00001
3.00001
3.00001
3.00001
3.00001
3.00001
3.00001
3.00001
3.00001
3.00001
3.00001
3.00001
3.00001
3.00001
3.00001
3.00001
3
3
2.99999
2.99998
2.99988
2.99983
2.99913
2.99842
2.99344
2.98966
2.96546
2.93611
2.74271
2.35898
1.63796
1.05757
0.787441
0.722327
0.723084
0.732351
0.744452
0.757912
0.770064
0.781221
0.791962
0.802868
0.813799
0.824699
0.835309
0.845614
0.855509
0.86505
0.873305
3.00001
3.00001
3.00001
3.00001
3.00001
3.00001
3.00001
3.00001
3.00001
3.00001
3.00001
3.00001
3.00001
3.00001
3.00001
3.00001
3.00001
3.00001
3
3
2.99999
2.99994
2.99989
2.99957
2.99905
2.99764
2.99109
2.98484
2.94774
2.85719
2.57333
1.99111
1.1404
0.716273
0.583713
0.617326
0.662496
0.70996
0.744802
0.767892
0.78516
0.799751
0.81288
0.825034
0.836436
0.846977
0.856655
0.865514
0.873733
0.880705
3.00001
3.00001
3.00001
3.00001
3.00001
3.00001
3.00001
3.00001
3.00001
3.00001
3.00001
3.00001
3.00001
3.00001
3.00001
3.00001
3.00001
3.00001
3
3
2.99999
2.99994
2.99989
2.99955
2.99931
2.99708
2.99586
2.98424
2.96958
2.89494
2.74364
2.29539
1.48239
0.759871
0.441377
0.505837
0.582406
0.647212
0.690492
0.721111
0.745392
0.766346
0.785207
0.80213
0.81721
0.830646
0.84277
0.85382
0.864112
0.873032
3.00001
3.00001
3.00001
3.00001
3.00001
3.00001
3.00001
3.00001
3.00001
3.00001
3.00001
3.00001
3.00001
3.00001
3.00001
3.00001
3.00001
3.00001
3.00001
3
2.99999
2.99994
2.9999
2.99955
2.9993
2.99688
2.99705
2.9797
2.99335
2.92657
2.77439
2.30624
1.54802
0.608681
0.307919
0.406943
0.496492
0.563091
0.609158
0.642625
0.670281
0.695833
0.719406
0.741325
0.761514
0.780224
0.797599
0.813624
0.82885
0.842304
3.00001
3.00001
3.00001
3.00001
3.00001
3.00001
3.00001
3.00001
3.00001
3.00001
3.00001
3.00001
3.00001
3.00001
3.00001
3.00001
3.00001
3.00001
3.00001
3.00001
3
2.99999
2.99995
2.99974
2.99965
2.99839
2.99835
2.99034
2.9915
2.93116
2.807
2.42391
1.70052
0.726951
0.376605
0.398682
0.460391
0.524241
0.564358
0.589924
0.610529
0.630465
0.650745
0.671527
0.692832
0.713652
0.733935
0.753312
0.77186
0.788522
3.00001
3.00001
3.00001
3.00001
3.00001
3.00001
3.00001
3.00001
3.00001
3.00001
3.00001
3.00001
3.00001
3.00001
3.00001
3.00001
3.00001
3.00001
3.00001
3
3
2.99999
2.99995
2.99991
2.99964
2.99912
2.99841
2.99253
2.99054
2.94844
2.86473
2.52253
1.86115
0.913181
0.471549
0.39098
0.453552
0.522647
0.556853
0.570469
0.57978
0.59088
0.60438
0.619269
0.634468
0.650415
0.66717
0.68513
0.703201
0.720341
3.00001
3.00001
3.00001
3.00001
3.00001
3.00001
3.00001
3.00001
3.00001
3.00001
3.00001
3.00001
3.00001
3.00001
3.00001
3.00001
3.00001
3.00001
3
3
2.99998
2.99997
2.99986
2.99978
2.99911
2.99864
2.99431
2.99307
2.96608
2.96297
2.8373
2.54546
1.83562
1.03764
0.413291
0.33295
0.402173
0.470728
0.501469
0.514452
0.525522
0.538267
0.552032
0.565874
0.579471
0.593261
0.607077
0.621585
0.637151
0.652477
3.00001
3.00001
3.00001
3.00001
3.00001
3.00001
3.00001
3.00001
3.00001
3.00001
3.00001
3.00001
3.00001
3.00001
3.00001
3.00001
3.00001
3.00001
3
3
3
2.99999
2.9999
2.99987
2.99945
2.99903
2.99508
2.99482
2.96999
2.95777
2.85722
2.6196
1.92734
1.14084
0.462401
0.341254
0.396264
0.453372
0.477539
0.488546
0.499722
0.51305
0.527214
0.540725
0.552796
0.563938
0.574771
0.585571
0.596415
0.606487
3.00001
3.00001
3.00001
3.00001
3.00001
3.00001
3.00001
3.00001
3.00001
3.00001
3.00001
3.00001
3.00001
3.00001
3.00001
3.00001
3.00001
3.00001
3.00001
3
2.99999
2.99998
2.99991
2.99984
2.99929
2.99895
2.99523
2.99482
2.96865
2.97551
2.88394
2.66641
2.02028
1.24221
0.515311
0.337375
0.393601
0.457506
0.487234
0.501552
0.513422
0.525208
0.536852
0.547431
0.556398
0.563932
0.570493
0.576405
0.582203
0.587454
3.00001
3.00001
3.00001
3.00001
3.00001
3.00001
3.00001
3.00001
3.00001
3.00001
3.00001
3.00001
3.00001
3.00001
3.00001
3.00001
3.00001
3.00001
3.00001
3.00001
3
3
2.99996
2.99992
2.99978
2.99924
2.99825
2.99563
2.9847
2.96948
2.90881
2.76375
2.33666
1.48872
0.735422
0.362306
0.414444
0.477324
0.511787
0.521232
0.520963
0.520773
0.523931
0.52924
0.535437
0.541689
0.547686
0.553416
0.559053
0.564046
3.00001
3.00001
3.00001
3.00001
3.00001
3.00001
3.00001
3.00001
3.00001
3.00001
3.00001
3.00001
3.00001
3.00001
3.00001
3.00001
3.00001
3.00001
3.00001
3.00001
3
3
2.99997
2.99994
2.9997
2.99971
2.99829
2.99563
2.99076
2.97255
2.92395
2.79062
2.43403
1.63897
0.846253
0.366089
0.405148
0.460296
0.503251
0.512166
0.505694
0.500406
0.499923
0.503478
0.509149
0.515932
0.523408
0.531322
0.539616
0.547131
3.00001
3.00001
3.00001
3.00001
3.00001
3.00001
3.00001
3.00001
3.00001
3.00001
3.00001
3.00001
3.00001
3.00001
3.00001
3.00001
3.00001
3.00001
3.00001
3
3
3
2.99996
2.99994
2.99971
2.99962
2.99858
2.99727
2.99009
2.97898
2.92186
2.81051
2.4842
1.71195
0.923926
0.386924
0.384011
0.439063
0.483323
0.493855
0.489761
0.48697
0.488276
0.493434
0.499879
0.507292
0.515694
0.524843
0.534256
0.542586
3.00001
3.00001
3.00001
3.00001
3.00001
3.00001
3.00001
3.00001
3.00001
3.00001
3.00001
3.00001
3.00001
3.00001
3.00001
3.00001
3.00001
3.00001
3.00001
3
3
2.99999
2.99997
2.99983
2.9998
2.99954
2.99857
2.99752
2.98987
2.98382
2.92353
2.8182
2.48587
1.74937
0.965975
0.39546
0.369075
0.423389
0.469686
0.483969
0.484685
0.485032
0.488852
0.495259
0.502731
0.51105
0.519674
0.527867
0.536374
0.54436
3.00001
3.00001
3.00001
3.00001
3.00001
3.00001
3.00001
3.00001
3.00001
3.00001
3.00001
3.00001
3.00001
3.00001
3.00001
3.00001
3.00001
3.00001
3.00001
3
3
2.99999
2.99997
2.99984
2.99983
2.99942
2.99908
2.99449
2.99304
2.9706
2.93475
2.82952
2.50174
1.75947
0.970049
0.382251
0.35188
0.407788
0.459716
0.479577
0.484142
0.487803
0.494273
0.50243
0.511173
0.519284
0.526499
0.533957
0.541659
0.548985
3.00001
3.00001
3.00001
3.00001
3.00001
3.00001
3.00001
3.00001
3.00001
3.00001
3.00001
3.00001
3.00001
3.00001
3.00001
3.00001
3.00001
3.00001
3.00001
3.00001
3
2.99999
2.99998
2.99987
2.99983
2.99913
2.99878
2.99453
2.99456
2.96788
2.95579
2.83497
2.53207
1.76727
0.962964
0.361344
0.332835
0.396735
0.456494
0.480794
0.489049
0.495984
0.504873
0.514509
0.523496
0.531468
0.53866
0.545309
0.551505
0.557128
3.00001
3.00001
3.00001
3.00001
3.00001
3.00001
3.00001
3.00001
3.00001
3.00001
3.00001
3.00001
3.00001
3.00001
3.00001
3.00001
3.00001
3.00001
3.00001
3.00001
3.00001
3
2.99999
2.99991
2.99991
2.9996
2.99919
2.9951
2.99541
2.96451
2.98319
2.84465
2.53734
1.80565
0.973763
0.351386
0.316119
0.390642
0.457627
0.486887
0.498496
0.507883
0.517951
0.527895
0.537333
0.545553
0.552478
0.558052
0.562463
0.566159
3.00001
3.00001
3.00001
3.00001
3.00001
3.00001
3.00001
3.00001
3.00001
3.00001
3.00001
3.00001
3.00001
3.00001
3.00001
3.00001
3.00001
3.00001
3.00001
3.00001
3
3
2.99999
2.99992
2.99986
2.99942
2.99897
2.9955
2.99582
2.96725
2.98796
2.86832
2.5857
1.86663
1.03644
0.372848
0.300162
0.378796
0.451567
0.484137
0.498735
0.510827
0.52258
0.533733
0.544116
0.553116
0.560298
0.565415
0.56867
0.570705
3.00001
3.00001
3.00001
3.00001
3.00001
3.00001
3.00001
3.00001
3.00001
3.00001
3.00001
3.00001
3.00001
3.00001
3.00001
3.00001
3.00001
3.00001
3.00001
3.00001
3.00001
3
2.99999
2.99995
2.9999
2.99962
2.9993
2.99677
2.99777
2.97492
3.01216
2.89024
2.64936
1.95045
1.13399
0.425219
0.280193
0.364525
0.444852
0.479642
0.495222
0.506986
0.517907
0.528643
0.538559
0.546802
0.553284
0.557709
0.560453
0.561524
3.00001
3.00001
3.00001
3.00001
3.00001
3.00001
3.00001
3.00001
3.00001
3.00001
3.00001
3.00001
3.00001
3.00001
3.00001
3.00001
3.00001
3.00001
3.00001
3.00001
3.00001
3
3
2.99997
2.99996
2.99977
2.99959
2.99904
2.99491
2.9925
2.96799
2.9074
2.73805
2.24617
1.36204
0.643723
0.304503
0.392564
0.480908
0.514058
0.517394
0.50956
0.501008
0.49538
0.4939
0.495119
0.49756
0.501012
0.505819
0.510886
3.00001
3.00001
3.00001
3.00001
3.00001
3.00001
3.00001
3.00001
3.00001
3.00001
3.00001
3.00001
3.00001
3.00001
3.00001
3.00001
3.00001
3.00001
3.00001
3.00001
3.00001
3
3
2.99997
2.99995
2.99977
2.99951
2.99879
2.99589
2.98832
2.97414
2.91582
2.77318
2.36948
1.522
0.744025
0.314487
0.393842
0.468473
0.50431
0.508512
0.49983
0.490462
0.484301
0.481911
0.48401
0.487936
0.492488
0.498125
0.504611
3.00001
3.00001
3.00001
3.00001
3.00001
3.00001
3.00001
3.00001
3.00001
3.00001
3.00001
3.00001
3.00001
3.00001
3.00001
3.00001
3.00001
3.00001
3.00001
3.00001
3.00001
3.00001
3
2.99996
2.99993
2.99956
2.99938
2.99665
2.99741
2.97518
3.01677
2.8964
2.70794
2.08597
1.32941
0.514315
0.274204
0.345859
0.411003
0.436674
0.448536
0.458935
0.468851
0.479012
0.489578
0.499535
0.508153
0.515034
0.521191
0.526728
3.00001
3.00001
3.00001
3.00001
3.00001
3.00001
3.00001
3.00001
3.00001
3.00001
3.00001
3.00001
3.00001
3.00001
3.00001
3.00001
3.00001
3.00001
3.00001
3.00001
3.00001
3
2.99999
2.99999
2.99989
2.99962
2.9995
2.99748
2.99662
2.98644
2.97313
2.89903
2.78413
2.35778
1.56205
0.779192
0.340739
0.399938
0.465188
0.503023
0.507341
0.495992
0.484314
0.477429
0.476364
0.480907
0.48726
0.494889
0.503759
0.512927
1.21182
0.818561
0.249274
0.255384
0.353958
0.437398
0.480748
0.528373
0.583538
0.628128
0.663273
0.691758
0.710242
0.713323
0.707324
0.691504
0.664234
0.629643
0.591487
0.551875
0.513822
0.476843
0.441699
0.407586
0.374519
0.342396
0.310815
0.279775
0.248606
0.21778
0.187577
0.157936
0.129023
0.10067
0.072929
0.0457007
0.0213802
0.0176568
0.0420687
0.0672761
0.0929828
0.117531
0.141763
0.165198
0.187738
0.209021
0.231092
0.253736
0.276052
0.29732
0.318231
0.33858
0.358568
0.378189
0.397402
0.416249
0.434806
0.452915
0.470817
0.48822
0.505512
0.522262
0.538956
0.555184
0.571257
0.587043
0.602566
0.617913
0.633025
0.647916
0.66271
0.677207
0.691689
0.705845
0.720034
0.733874
0.747717
0.761313
0.774788
0.788126
0.801275
0.814327
0.827215
0.839891
0.852619
0.864902
0.877451
0.889419
0.901673
0.913452
0.92522
0.936919
0.948081
0.959642
0.970146
0.980919
0.990471
0.999113
1.00587
1.01027
1.14605
0.922882
0.570437
0.41028
0.259131
0.119057
0.0955566
0.181951
0.265257
0.321172
0.358589
0.387128
0.407963
0.407032
0.390299
0.370056
0.342523
0.308848
0.273408
0.239623
0.207662
0.177216
0.148182
0.120376
0.0938823
0.0694373
0.0489266
0.038337
0.0439239
0.0621847
0.0835182
0.105922
0.128761
0.151258
0.173673
0.195515
0.216879
0.237008
0.256945
0.277006
0.297344
0.317335
0.337258
0.356711
0.375612
0.393639
0.411878
0.430916
0.450091
0.468597
0.486705
0.504374
0.521879
0.538956
0.555946
0.572477
0.588962
0.604987
0.620925
0.636519
0.651896
0.667068
0.681942
0.696646
0.711128
0.725387
0.739544
0.753409
0.767269
0.780757
0.794342
0.807488
0.820747
0.833619
0.846511
0.859135
0.87166
0.884058
0.896223
0.908368
0.920247
0.932052
0.943724
0.955155
0.966615
0.977695
0.988916
0.99977
1.01066
1.0215
1.03201
1.04296
1.05295
1.06368
1.0731
1.08295
1.09163
1.09951
1.10578
1.10964
1.12041
1.03714
0.879798
0.763587
0.649524
0.5213
0.398619
0.30088
0.21308
0.13316
0.0639496
0.0178133
0.0422807
0.0637623
0.0444754
0.049711
0.06261
0.0901027
0.113837
0.13343
0.153567
0.173863
0.194105
0.214522
0.234731
0.25495
0.274722
0.293882
0.312661
0.330971
0.348948
0.366594
0.384056
0.401255
0.418092
0.434609
0.450696
0.466131
0.481471
0.496655
0.51196
0.527035
0.542169
0.55699
0.571486
0.585119
0.598922
0.613335
0.628478
0.643004
0.657209
0.670999
0.684866
0.698503
0.712102
0.725414
0.738579
0.751623
0.76454
0.777441
0.790189
0.802854
0.815382
0.82775
0.840068
0.852224
0.86443
0.87649
0.888645
0.900681
0.912723
0.924732
0.936567
0.948507
0.96007
0.971915
0.983208
0.994939
1.00603
1.01757
1.02857
1.0398
1.05074
1.06163
1.07254
1.08316
1.09399
1.10439
1.11504
1.12522
1.13549
1.14536
1.15513
1.16452
1.17365
1.18232
1.19027
1.1973
1.20265
1.20516
1.12557
1.10775
1.03893
0.970209
0.901337
0.816875
0.72476
0.640867
0.560077
0.485505
0.421702
0.373869
0.343599
0.333374
0.35353
0.38563
0.411672
0.430476
0.448956
0.46363
0.47671
0.489226
0.502318
0.51553
0.528783
0.542034
0.555274
0.568129
0.581027
0.593467
0.606186
0.618559
0.63114
0.64338
0.655576
0.667273
0.678861
0.68993
0.701138
0.711937
0.723213
0.734027
0.745188
0.75604
0.766765
0.776718
0.786838
0.797221
0.808429
0.819345
0.830224
0.840687
0.851266
0.861569
0.871952
0.882098
0.89231
0.90234
0.912506
0.92244
0.932545
0.942317
0.952286
0.961878
0.971703
0.981137
0.990852
1.0002
1.00985
1.01923
1.02886
1.03834
1.04797
1.05751
1.06708
1.07662
1.08613
1.09558
1.10506
1.11442
1.12387
1.13332
1.14283
1.15255
1.16225
1.17222
1.18212
1.19218
1.20226
1.21221
1.22239
1.23191
1.24208
1.25111
1.26088
1.26941
1.27822
1.28562
1.29199
1.29592
1.12506
1.14034
1.12041
1.08911
1.05248
1.00479
0.947116
0.885672
0.82194
0.758281
0.702287
0.66048
0.63975
0.642859
0.661176
0.688862
0.716753
0.737148
0.748234
0.754312
0.758047
0.7615
0.766095
0.771636
0.777945
0.784578
0.791345
0.798471
0.805489
0.812802
0.820094
0.827358
0.83469
0.841863
0.849182
0.856191
0.863301
0.869991
0.877098
0.884021
0.891401
0.898454
0.906096
0.913495
0.920894
0.92759
0.934626
0.941802
0.949924
0.957868
0.965964
0.973555
0.981292
0.98872
0.996444
1.00395
1.01179
1.01936
1.0273
1.03491
1.043
1.0507
1.05887
1.06665
1.07486
1.08273
1.09101
1.09902
1.10741
1.11559
1.12414
1.13248
1.1412
1.14965
1.15846
1.16693
1.17577
1.18426
1.19329
1.20192
1.21112
1.21987
1.22922
1.23794
1.24728
1.25584
1.26488
1.27336
1.28183
1.29049
1.29836
1.30725
1.31485
1.32357
1.33097
1.33926
1.34606
1.35306
1.35841
1.36156
1.12301
1.15057
1.15865
1.15306
1.13904
1.11532
1.08188
1.03927
0.991701
0.942528
0.89899
0.868249
0.857719
0.868978
0.890883
0.917129
0.942015
0.963876
0.980615
0.987344
0.987152
0.982735
0.979156
0.977159
0.97678
0.977614
0.979512
0.981489
0.983549
0.985598
0.987839
0.990172
0.992585
0.994997
0.997638
1.00038
1.00346
1.00653
1.01003
1.01346
1.01744
1.02144
1.02602
1.03048
1.035
1.03909
1.04362
1.04826
1.05373
1.05921
1.06501
1.07064
1.07641
1.08211
1.08795
1.09392
1.10003
1.10632
1.11265
1.11913
1.12564
1.1323
1.13898
1.14576
1.1526
1.15947
1.16651
1.17353
1.18082
1.18806
1.19557