/*--------------------------------*- C++ -*----------------------------------*\
| =========                 |                                                 |
| \\      /  F ield         | OpenFOAM: The Open Source CFD Toolbox           |
|  \\    /   O peration     | Version:  2112                                  |
|   \\  /    A nd           | Website:  www.openfoam.com                      |
|    \\/     M anipulation  |                                                 |
\*---------------------------------------------------------------------------*/
FoamFile
{
    version     2.0;
    format      ascii;
    arch        "LSB;label=32;scalar=64";
    class       volScalarField;
    location    "5.5005";
    object      p;
}
// * * * * * * * * * * * * * * * * * * * * * * * * * * * * * * * * * * * * * //

dimensions      [1 -1 -2 0 0 0 0];

internalField   nonuniform List<scalar> 
7000
(
0.999998
1
1.00001
1.00001
1.00001
1.00001
1.00001
1.00001
1.00001
1.00011
1.00034
1.00113
1.0022
1.0066
1.00829
1.00932
1.16326
1.17821
2.36562
3.83086
9.1191
10.7836
10.5985
10.2805
10.2412
10.2949
10.4235
10.5544
10.6437
10.7109
10.773
10.8331
10.8891
10.9392
10.9831
11.0215
11.0547
11.0834
11.1085
11.1306
11.1504
11.1678
11.1826
11.195
11.2042
11.2095
11.2098
11.2056
11.2016
11.2006
1
1.00001
1.00001
1.00001
1.00001
1.00001
1.00001
1.00001
1.00001
1.0001
1.00033
1.00106
1.00212
1.00627
1.00768
1.00888
1.15544
1.16518
2.33092
3.73311
8.93927
10.747
10.583
10.2732
10.235
10.2881
10.4154
10.5456
10.6354
10.7035
10.7663
10.8269
10.8832
10.9337
10.978
11.0167
11.0503
11.0795
11.1051
11.1277
11.148
11.1657
11.1808
11.1933
11.2025
11.2075
11.2071
11.2032
11.1998
11.1989
1
1.00001
1.00001
1.00001
1.00001
1.00001
1.00001
1.00001
1.00001
1.0001
1.00032
1.00103
1.00212
1.00585
1.00701
1.00768
1.15312
1.15796
2.31092
3.67305
8.8144
10.76
10.5934
10.2789
10.2398
10.2924
10.4182
10.546
10.6343
10.7015
10.7637
10.8234
10.8787
10.9282
10.9718
11.0102
11.0438
11.0732
11.0992
11.1223
11.1428
11.1606
11.1755
11.1876
11.1962
11.2008
11.2013
11.1993
11.197
11.1966
1
1.00001
1.00001
1.00001
1.00001
1.00001
1.00001
1.00002
1.00001
1.0001
1.00031
1.00099
1.00208
1.00591
1.00715
1.00855
1.1466
1.14795
2.28187
3.5862
8.63294
10.7385
10.5759
10.2627
10.2271
10.2811
10.4084
10.5349
10.6224
10.6899
10.7524
10.8121
10.8673
10.9163
10.9598
10.9983
11.0322
11.0621
11.0887
11.1123
11.1333
11.1514
11.1665
11.1784
11.187
11.192
11.1938
11.1937
11.1929
11.1929
1
1
1.00001
1.00001
1.00001
1.00001
1.00001
1.00002
1.00002
1.00007
1.0003
1.00073
1.00197
1.00538
1.0096
1.01726
1.14021
1.15464
2.24302
3.47326
8.43055
10.7307
10.5696
10.2552
10.22
10.2748
10.4027
10.5268
10.6121
10.6786
10.7405
10.7995
10.8538
10.9019
10.945
10.9833
11.0174
11.0477
11.0748
11.0989
11.1203
11.1388
11.1541
11.1663
11.1753
11.1812
11.1844
11.1861
11.1872
11.1889
1
1
1.00001
1.00001
1.00001
1.00001
1.00001
1.00001
1.00002
1.00007
1.0003
1.00067
1.00202
1.00438
1.01076
1.0182
1.13583
1.1494
2.20316
3.36499
8.18124
10.7248
10.5627
10.242
10.2063
10.2624
10.3921
10.5141
10.5975
10.6631
10.7245
10.7828
10.8362
10.8838
10.9264
10.9646
10.9988
11.0295
11.0571
11.0818
11.1036
11.1225
11.1383
11.1509
11.1606
11.1676
11.1723
11.1758
11.1784
11.1815
1
1
1.00001
1.00001
1.00001
1.00001
1.00001
1.00001
1.00002
1.00007
1.0003
1.00067
1.00209
1.0037
1.0129
1.01039
1.13636
1.13254
2.16104
3.26501
7.87968
10.7231
10.5576
10.225
10.1894
10.2472
10.379
10.4985
10.5795
10.6441
10.7048
10.7622
10.8147
10.8616
10.9038
10.9419
10.9763
11.0074
11.0355
11.0607
11.083
11.1024
11.1187
11.132
11.1426
11.1507
11.1569
11.1619
11.1658
11.1697
1
1
1.00001
1.00001
1.00001
1.00001
1.00001
1.00001
1.00002
1.00007
1.00031
1.00065
1.00208
1.00388
1.01196
1.01727
1.12458
1.1299
2.10549
3.10706
7.54674
10.7274
10.553
10.2036
10.1699
10.2295
10.3632
10.4796
10.5579
10.6213
10.6812
10.7376
10.7891
10.8353
10.8772
10.9152
10.9498
10.9813
11.0098
11.0355
11.0583
11.0781
11.095
11.109
11.1205
11.1298
11.1372
11.1434
11.1482
11.1527
1
1
1.00001
1.00001
1.00001
1.00001
1.00001
1.00001
1.00002
1.00007
1.00029
1.0006
1.00191
1.0034
1.01114
1.01642
1.11496
1.10968
2.05764
2.96448
7.14921
10.7309
10.546
10.1782
10.1486
10.2097
10.3439
10.4565
10.5325
10.5948
10.6537
10.709
10.7595
10.805
10.8465
10.8844
10.9192
10.951
10.9798
11.0058
11.029
11.0492
11.0666
11.0813
11.0936
11.1038
11.1123
11.1196
11.1252
11.1303
1
1
1.00001
1.00001
1.00001
1.00001
1.00001
1.00001
1.00002
1.00008
1.00029
1.0006
1.00187
1.00335
1.0109
1.01632
1.10526
1.09894
1.99449
2.78163
6.70246
10.733
10.5364
10.1529
10.1265
10.1878
10.3202
10.4292
10.5034
10.5647
10.6224
10.6765
10.7257
10.7706
10.8116
10.8494
10.8841
10.916
10.945
10.9711
10.9945
11.0151
11.0329
11.0481
11.0611
11.0721
11.0814
11.0894
11.0954
11.1009
1
1
1
1.00001
1.00001
1.00001
1.00001
1.00001
1.00002
1.00007
1.00026
1.00055
1.00169
1.003
1.00981
1.01444
1.09739
1.09053
1.91245
2.58591
6.18493
10.7244
10.5288
10.1472
10.1086
10.1653
10.2899
10.3969
10.4706
10.5307
10.5869
10.6396
10.6879
10.7319
10.7723
10.8097
10.8441
10.8757
10.9045
10.9306
10.9538
10.9744
10.9924
11.0079
11.0213
11.0329
11.0429
11.0517
11.0584
11.0645
1
1
1
1
1.00001
1.00001
1.00001
1
1.00002
1.00007
1.00025
1.00052
1.00155
1.00288
1.00875
1.01505
1.08988
1.10996
1.77403
2.40358
5.58142
10.6371
10.5061
10.1783
10.101
10.1448
10.2515
10.359
10.4338
10.4929
10.5473
10.5985
10.6455
10.6884
10.728
10.7646
10.7983
10.8293
10.8574
10.883
10.9058
10.9261
10.9439
10.9594
10.973
10.9849
10.9952
11.0043
11.0112
11.0178
1
1
1
1
1
1
1
1
1.00002
1.00007
1.00023
1.00048
1.00142
1.00261
1.00802
1.01353
1.08254
1.10291
1.68064
2.21476
5.11198
10.2914
10.445
10.2409
10.0992
10.1237
10.2036
10.3129
10.391
10.4496
10.502
10.5514
10.5972
10.6391
10.6775
10.713
10.7456
10.7755
10.8026
10.827
10.849
10.8684
10.8855
10.9004
10.9136
10.9255
10.9361
10.9458
10.9533
10.9607
1
1
1
1
1
1
1
1
1.00002
1.00007
1.00022
1.00045
1.00135
1.00239
1.00791
1.00968
1.07631
1.07436
1.61517
2.04531
4.66684
9.61922
10.444
10.2932
10.0994
10.1029
10.1534
10.258
10.3416
10.401
10.4514
10.4986
10.5426
10.5829
10.6196
10.6533
10.6842
10.7123
10.7377
10.7605
10.7808
10.7987
10.8146
10.8285
10.8406
10.8515
10.8615
10.8708
10.8783
10.8863
1
1
1
1
1
1
1.00001
1.00001
1.00003
1.00007
1.00021
1.00042
1.00122
1.00224
1.00693
1.00957
1.06394
1.06856
1.52291
1.87716
4.21471
8.76164
10.4697
10.3551
10.1073
10.0684
10.1051
10.1943
10.2833
10.3445
10.3931
10.4381
10.4802
10.5186
10.5533
10.5848
10.6132
10.6387
10.6615
10.6817
10.6994
10.7147
10.7278
10.7393
10.7495
10.7589
10.7678
10.7767
10.7844
10.7938
1
1
1
1
1
1
1
1.00001
1.00004
1.00013
1.00028
1.00083
1.00164
1.00476
1.009
1.02816
1.04415
1.04719
1.43784
1.71029
3.76495
7.79378
10.5206
10.4123
10.1233
10.0239
10.0504
10.1254
10.2177
10.2805
10.327
10.3692
10.4088
10.4448
10.4769
10.5054
10.5305
10.5526
10.5717
10.588
10.6017
10.6129
10.6218
10.6288
10.6346
10.6398
10.6453
10.652
10.6584
10.6682
1
1
1
1
1
1
1
1.00001
1.00002
1.00007
1.00014
1.00039
1.00071
1.0021
1.00361
1.0124
1.01644
1.11091
1.1053
2.03961
2.92561
6.90428
10.5322
10.418
10.1124
9.96564
9.98398
10.0472
10.142
10.2065
10.2516
10.2909
10.3273
10.3601
10.3888
10.4134
10.4343
10.4517
10.4657
10.4764
10.4839
10.4886
10.4904
10.4903
10.4889
10.4866
10.4852
10.4862
10.4895
10.5007
1
1
1
1
1
1
1
1.00001
1.00002
1.00006
1.00012
1.00036
1.00062
1.00207
1.00392
1.01132
1.01297
1.09826
1.09869
1.8476
2.46772
5.84684
10.4332
10.3693
10.0933
9.90468
9.91372
9.96274
10.0556
10.1215
10.1655
10.2017
10.2344
10.2632
10.2874
10.3071
10.3224
10.3336
10.3407
10.3435
10.3422
10.3374
10.3275
10.3144
10.2989
10.2818
10.2653
10.2527
10.2448
10.2523
1
1
1
1
1
1
1
1.00001
1.00002
1.00005
1.00009
1.00027
1.00046
1.00166
1.00333
1.00908
1.0104
1.08236
1.08618
1.67341
2.14715
4.96072
9.94471
10.2594
10.0723
9.85723
9.84918
9.88318
9.96096
10.029
10.0714
10.1027
10.1301
10.1535
10.1721
10.1855
10.1936
10.1962
10.1944
10.1875
10.1731
10.1526
10.1261
10.0931
10.0536
10.0087
9.95978
9.91188
9.87056
9.85982
1
1
1
1
1
1
1
1.00001
1.00001
1.00003
1.00006
1.00017
1.00026
1.00191
1.00247
1.01399
1.03463
1.05656
1.05888
1.53281
1.87397
4.27084
8.79626
10.1462
10.0472
9.83086
9.78078
9.80394
9.86327
9.92835
9.9693
9.99544
10.0153
10.0309
10.0418
10.0468
10.0457
10.0396
10.025
10.0011
9.96924
9.92848
9.87662
9.81248
9.73362
9.63768
9.52334
9.38961
9.24146
9.11049
1
1
1
1
1
1
1
1
1.00001
1.00001
1.00004
1.00004
1.00027
1.00028
1.00218
1.00417
1.01187
1.0129
1.12347
1.11488
2.11314
3.12504
7.3923
10.135
10.0687
9.85289
9.72201
9.72612
9.75462
9.8108
9.84611
9.86414
9.87448
9.87987
9.87923
9.87437
9.86135
9.83668
9.80304
9.75923
9.70326
9.63206
9.54183
9.42646
9.27782
9.08097
8.8099
8.41278
7.78137
6.49813
1
1
1
1
1
1
1
1
1
1.00001
1.00002
1.00003
1.00021
1.00024
1.00181
1.00402
1.00873
1.0135
1.08913
1.09032
1.77539
2.31613
5.31636
9.99979
10.0698
9.8841
9.66906
9.62881
9.64375
9.67926
9.70576
9.71321
9.7117
9.70563
9.69124
9.66655
9.63361
9.59076
9.53615
9.46655
9.37972
9.27071
9.13327
8.95837
8.73223
8.43683
8.038
7.49311
6.76504
5.6858
1
1
1
1
1
1
1
1
1
1
1.00001
1.00002
1.00015
1.00017
1.00124
1.00268
1.00589
1.00977
1.06282
1.07429
1.55964
1.9391
4.40923
8.97861
9.95129
9.82898
9.5795
9.49522
9.50231
9.52406
9.54288
9.54235
9.53512
9.51571
9.48112
9.43938
9.38916
9.32707
9.2498
9.1549
9.03804
8.89614
8.72053
8.50451
8.23621
7.90286
7.49019
6.98258
6.3961
5.70503
1
1
1
1
1
1
1
1
1
1
1.00001
1.00002
1.00007
1.00008
1.00071
1.00097
1.00519
1.0067
1.04296
1.04188
1.39461
1.57746
3.43711
6.85686
9.68441
9.73908
9.60561
9.4316
9.38447
9.38688
9.38893
9.38284
9.36312
9.32282
9.27391
9.2181
9.1518
9.07156
8.97479
8.8592
8.7212
8.5571
8.3621
8.13053
7.8568
7.53482
7.16398
6.7394
6.28137
5.77032
1
1
1
1
1
1
1
1
1
1
1.00001
1.00001
1.00004
1.00006
1.00042
1.00056
1.00258
1.00632
1.01202
1.01742
1.1981
1.21372
2.5323
4.18195
9.09516
9.74903
9.63097
9.40606
9.29165
9.26082
9.24725
9.22389
9.18491
9.13397
9.07528
9.00745
8.92782
8.83388
8.7235
8.59461
8.445
8.27154
8.07306
7.84387
7.58571
7.29273
6.9695
6.61586
6.24379
5.84357
1
1
1
1
1
1
1
1
1
1
1
1.00002
1.00002
1.0001
1.00012
1.00089
1.00124
1.006
1.00765
1.04875
1.04801
1.43837
1.65795
3.62549
7.2571
9.55294
9.55958
9.42239
9.2135
9.12258
9.08922
9.05696
9.01022
8.95161
8.88419
8.80683
8.7177
8.61493
8.49691
8.36202
8.20883
8.03567
7.84206
7.62498
7.38682
7.12448
6.84145
6.53967
6.2257
5.88999
1
1
1
1
1
1
1
1
1
1
1
1.00001
1.00001
1.00005
1.00008
1.00054
1.00075
1.00327
1.00701
1.01932
1.01751
1.22825
1.25156
2.55624
4.26016
8.98812
9.53399
9.40451
9.15206
9.0006
8.93595
8.8939
8.84286
8.77844
8.70436
8.61976
8.52441
8.4166
8.29572
8.15976
8.00844
7.84071
7.65631
7.45458
7.23609
7.00129
6.75193
6.48994
6.22076
5.93128
1
1
1
1
1
1
1
1
1
1
1
1.00001
1.00001
1.00004
1.00007
1.00034
1.00036
1.00281
1.00533
1.01404
1.01375
1.13776
1.12827
2.15493
3.10111
7.25454
9.30338
9.27977
9.1249
8.88903
8.7741
8.72047
8.67059
8.60665
8.5311
8.44324
8.34642
8.23782
8.11754
7.98463
7.83882
7.67976
7.50735
7.32177
7.12341
6.9134
6.69287
6.46426
6.22878
5.97599
1
1
1
1
1
1
1
1
1
1
1
1.00001
1.00001
1.00003
1.00004
1.00023
1.0004
1.00155
1.00202
1.01221
1.0139
1.08374
1.07202
1.68215
2.09509
4.58654
8.65607
9.1809
9.06336
8.81255
8.64581
8.56527
8.50935
8.44608
8.37069
8.28258
8.18686
8.08117
7.96505
7.83846
7.7014
7.55393
7.39585
7.22749
7.04948
6.86288
6.6706
6.46847
6.25413
6.03433
1
1
1
1
1
1
1
1
1
1
1
1
1.00001
1.00001
1.00004
1.00006
1.00031
1.0004
1.00254
1.00511
1.01321
1.01381
1.13077
1.1225
2.1201
3.00332
6.96363
8.90283
8.90597
8.78541
8.55662
8.4261
8.35636
8.29613
8.22607
8.14331
8.05034
7.94786
7.83739
7.71989
7.5948
7.46193
7.32041
7.17123
7.01768
6.85591
6.68002
6.49328
6.30685
6.1188
1
1
1
1
1
1
1
1
1
1
1
1
1
1
1.00003
1.00004
1.0002
1.00038
1.00152
1.00184
1.01171
1.01671
1.07097
1.09554
1.60311
1.96953
4.30932
8.05476
8.75819
8.69308
8.51094
8.32771
8.22902
8.16634
8.10293
8.02834
7.94383
7.85228
7.7551
7.65092
7.53987
7.42438
7.30308
7.17336
7.02876
6.87572
6.71685
6.55604
6.40325
6.2535
1
1
1
1
1
1
1
1
1
1
1
1
1
1
1.00001
1.00004
1.00007
1.00029
1.00036
1.00235
1.0046
1.01151
1.01184
1.11113
1.09804
2.01898
2.64048
6.1944
8.32267
8.51512
8.43397
8.26346
8.13314
8.05429
7.99573
7.93533
7.86644
7.7923
7.71402
7.62992
7.53843
7.43345
7.32024
7.20036
7.07394
6.9432
6.815
6.69451
6.58916
6.48945
1
1
1
1
1
1
1
1
1
1
1
1
1
1
1.00001
1.00002
1.00006
1.00012
1.00048
1.00064
1.00359
1.00797
1.01569
1.02217
1.15857
1.15386
2.24571
3.24397
7.12538
8.34076
8.37222
8.29756
8.14699
8.03745
7.96442
7.91008
7.85727
7.79643
7.72534
7.64829
7.56586
7.47771
7.38511
7.28978
7.19647
7.10681
7.02916
6.96709
6.91267
6.86533
1
1
1
1
1
1
1
1
1
1
1
1
1
1
1
1.00001
1.00002
1.00009
1.00008
1.00071
1.00071
1.00525
1.01085
1.02252
1.02214
1.22148
1.22499
2.43975
3.92063
7.59519
8.3292
8.30073
8.2038
8.0587
7.97226
7.91982
7.87415
7.8265
7.77453
7.7191
7.66296
7.60909
7.55539
7.50394
7.46584
7.44182
7.42478
7.40952
7.3944
7.37533
1
1
1
1
1
1
1
1
1
1
1
1
1
1
1
1.00001
1.00001
1.00005
1.00008
1.00032
1.00037
1.00248
1.00511
1.01118
1.01673
1.09825
1.07787
1.93601
2.41566
5.58906
7.8549
8.22249
8.18535
8.08677
8.00038
7.96027
7.93647
7.91907
7.90741
7.89888
7.89607
7.89991
7.91026
7.93066
7.95202
7.96696
7.96641
7.96128
7.9465
7.91268
1
1
1
1
1
1
1
1
1
1
1
1
1
1
1
1
1.00001
1.00001
1.00006
1.00009
1.00041
1.00052
1.00321
1.00704
1.01436
1.0193
1.13164
1.11866
2.09627
2.86739
6.30234
7.89146
8.14617
8.13494
8.10139
8.09677
8.1109
8.14959
8.21203
8.28485
8.36515
8.43626
8.4899
8.52166
8.52509
8.51748
8.49466
8.44657
8.37095
8.27677
1
1
1
1
1
1
1
1
1
1
1
1
1
1
1
1
1
1
1.00004
1.00005
1.00023
1.00027
1.0016
1.00177
1.00969
1.01661
1.06096
1.05162
1.55187
1.69612
3.7316
6.70872
7.98811
8.30293
8.3705
8.43275
8.52512
8.66515
8.82446
8.9503
9.02815
9.05894
9.05297
9.03091
8.98203
8.89996
8.80338
8.69483
8.57674
8.45085
1
1
1
1
1
1
1
1
1
1
1
1
1
1
1
1
1
1.00001
1.00001
1.00005
1.00006
1.00029
1.00039
1.00185
1.00233
1.01107
1.02164
1.07083
1.07404
1.64361
1.86258
4.13115
7.37558
8.73254
9.02644
9.16942
9.3407
9.4823
9.55491
9.55168
9.5314
9.4813
9.38216
9.26772
9.14575
9.01621
8.88381
8.75423
8.62907
8.50671
1
1
1
1
1
1
1
1
1
1
1
1
1
1
1
1
1
1
1
1.00001
1.00002
1.00011
1.00008
1.00076
1.00081
1.00466
1.01037
1.02353
1.02802
1.28951
1.31428
2.80972
5.02552
8.79271
10.193
10.3366
10.2945
10.1908
10.04
9.88468
9.73848
9.5979
9.45763
9.31759
9.17972
9.04677
8.91931
8.79815
8.68419
8.5764
1
1
1
1
1
1
1
1
1
1
1
1
1
1
1
1
1
1
1
1.00001
1.00002
1.00004
1.0001
1.00033
1.00059
1.00271
1.00236
1.01798
1.04106
1.03102
1.52169
1.63434
4.12416
8.13294
10.8808
10.9233
10.7466
10.372
10.0633
9.86683
9.71924
9.5839
9.45349
9.32562
9.20073
9.08155
8.97022
8.86749
8.77271
8.68279
1
1
1
1
1
1
1
1
1
1
1
1
1
1
1
1
1
1
1
1.00001
1.00002
1.00003
1.00014
1.00019
1.00088
1.00125
1.00509
1.00653
1.03416
1.02849
1.30005
1.35447
3.15767
6.18311
11.5494
11.4087
10.874
10.3327
10.0116
9.82008
9.68617
9.57618
9.46666
9.35742
9.25214
9.15421
9.06257
8.97555
8.89255
8.81093
1
1
1
1
1
1
1
1
1
1
1
1
1
1
1
1
1
1
1
1
1.00002
1.00003
1.00014
1.00021
1.0009
1.00145
1.00538
1.00731
1.03593
1.04388
1.02611
1.89677
2.29581
6.41265
11.3997
11.1365
10.5683
10.135
9.88124
9.75088
9.67163
9.59413
9.5134
9.43308
9.35393
9.27349
9.19206
9.11002
9.02772
8.94285
1
1
1
1
1
1
1
1
1
1
1
1
1
1
1
1
1
1
1
1
1.00001
1.00001
1.00008
1.0001
1.00044
1.00085
1.00273
1.00367
1.0152
1.04443
1.02678
1.74094
1.99067
5.55217
10.9555
11.0241
10.6672
10.1674
9.89052
9.76722
9.70111
9.64314
9.57649
9.50448
9.4278
9.34966
9.27013
9.18885
9.10629
9.02096
1
1
1
1
1
1
1
1
1
1
1
1
1
1
1
1
1
1
1
1
1.00001
1.00002
1.00005
1.00007
1.00028
1.00055
1.00206
1.00217
1.01262
1.02824
1.0068
1.60983
1.72053
4.91842
9.97264
11.2305
10.8965
10.2496
9.90418
9.77893
9.7257
9.67105
9.60292
9.52806
9.45338
9.37961
9.30536
9.23075
9.15614
9.07994
1
1
1
1
1
1
1
1
1
1
1
1
1
1
1
1
1
1
1
1.00001
1.00001
1.00004
1.00007
1.00028
1.00042
1.00166
1.00262
1.00958
1.01403
1.0539
1.1368
1.12184
2.50774
4.00628
9.85173
11.0402
10.6428
10.0515
9.77467
9.69724
9.66756
9.6259
9.56931
9.50654
9.44393
9.38181
9.31997
9.25785
9.19714
9.13565
1
1
1
1
1
1
1
1
1
1
1
1
1
1
1
1
1
1
1
1.00001
1.00001
1.00001
1.00008
1.00017
1.0004
1.00042
1.00357
1.00804
1.01408
1.04094
1.12843
1.07508
2.43967
3.56707
9.0819
10.7186
10.3955
9.89996
9.69787
9.66012
9.64714
9.61922
9.57463
9.51903
9.46053
9.40394
9.35049
9.29741
9.2461
9.1908
1
1
1
1
1
1
1
1
1
1
1
1
1
1
1
1
1
1
1
1
1.00001
1.00003
1.00004
1.00021
1.00032
1.00137
1.00213
1.00855
1.01221
1.05611
1.08641
1.07158
2.26454
3.15519
8.50338
10.8972
10.5411
9.9872
9.75078
9.69222
9.67397
9.64591
9.6034
9.55297
9.50145
9.45211
9.40636
9.36133
9.31715
9.26969
1
1
1
1
1
1
1
1
1
1
1
1
1
1
1
1
1
1
1
1
1.00001
1.00001
1.00003
1.00004
1.00026
1.00043
1.00097
1.00508
1.00538
1.03175
1.03999
1.26114
1.25559
3.18207
6.03743
11.3385
11.055
10.35
9.9204
9.75476
9.71241
9.69009
9.65294
9.60484
9.55456
9.50698
9.46221
9.41884
9.37558
9.33144
1
1
1
1
1
1
1
1
1
1
1
1
1
1
1
1
1
1
1
1
1
1.00001
1.00003
1.00003
1.00024
1.00026
1.00137
1.00209
1.01013
1.01357
1.05829
1.20282
1.18662
2.88082
4.80107
11.1829
11.0488
10.6128
10.0832
9.84253
9.78133
9.76517
9.72782
9.67764
9.62472
9.57514
9.52846
9.4815
9.43409
9.38587
1
1
1
1
1
1
1
1
1
1
1
1
1
1
1
1
1
1
1
1
1
1.00001
1.00003
1.00003
1.00022
1.00037
1.00111
1.00193
1.00692
1.00988
1.08002
1.16697
1.12521
2.76822
4.41277
10.6102
11.0256
10.66
10.1519
9.91453
9.8569
9.83446
9.79442
9.73859
9.68001
9.62416
9.57064
9.51919
9.46564
9.41124
1
1
1
1
1
1
1
1
1
1
1
1
1
1
1
1
1
1
1
1
1.00001
1.00001
1.00002
1.00014
1.00025
1.00053
1.0008
1.00211
1.00826
1.00511
1.06377
1.16595
1.16911
2.64053
4.25363
10.3439
10.9868
10.6352
10.1388
9.91569
9.86481
9.84225
9.80108
9.74445
9.68415
9.62916
9.57428
9.52029
9.46891
9.41537
1
1
1
1
1
1
1
1
1
1
1
1
1
1
1
1
1
1
1
1
1.00001
1.00001
1.00001
1.00013
1.00031
1.00042
1.00042
1.0038
1.00873
1.01465
1.05373
1.16184
1.16028
2.63058
4.23984
10.3576
10.9733
10.6045
10.1169
9.8953
9.84073
9.81705
9.77536
9.72014
9.66493
9.6069
9.55592
9.50678
9.45796
9.40948
1
1
1
1
1
1
1
1
1
1
1
1
1
1
1
1
1
1
1
1
1
1.00001
1.00004
1.00006
1.00025
1.00042
1.00158
1.00262
1.00883
1.01581
1.04233
1.16261
1.10134
2.71892
4.25138
10.491
11.0139
10.5926
10.0513
9.812
9.75081
9.72707
9.69445
9.649
9.59997
9.55406
9.51063
9.46884
9.42698
9.38579
1
1
1
1
1
1
1
1
1
1
1
1
1
1
1
1
1
1
1
1
1
1.00001
1.00001
1.00007
1.0002
1.0003
1.00038
1.00357
1.00936
1.01293
1.04678
1.14343
1.11706
2.62091
4.22534
10.5377
11.0894
10.5888
9.99711
9.72814
9.65144
9.62673
9.59632
9.56083
9.52335
9.48675
9.45281
9.42151
9.39134
9.36062
1
1
1
1
1
1
1
1
1
1
1
1
1
1
1
1
1
1
1
1
1
1.00001
1.00003
1.00003
1.00019
1.00023
1.00132
1.00199
1.00849
1.01128
1.05423
1.1097
1.10359
2.50408
3.89049
10.2908
11.2195
10.6656
10.0134
9.70646
9.60806
9.57314
9.54257
9.51308
9.48206
9.45134
9.42269
9.39697
9.3744
9.35351
1
1
1
1
1
1
1
1
1
1
1
1
1
1
1
1
1
1
1
1
1
1
1.00002
1.00002
1.00012
1.00017
1.00087
1.00165
1.00602
1.00789
1.04491
1.06716
1.05098
2.3889
3.48355
9.63737
11.3696
10.7605
10.0416
9.7082
9.60847
9.57469
9.55291
9.5272
9.49732
9.46668
9.43706
9.40944
9.38427
9.36535
1
1
1
1
1
1
1
1
1
1
1
1
1
1
1
1
1
1
1
1
1
1
1.00001
1.00002
1.00003
1.0002
1.00026
1.00088
1.00345
1.00434
1.03245
1.03765
1.28168
1.37163
3.42327
7.05964
11.8892
11.3826
10.3894
9.8951
9.71546
9.6634
9.63691
9.60285
9.56219
9.51499
9.47221
9.43474
9.40132
9.37294
1
1
1
1
1
1
1
1
1
1
1
1
1
1
1
1
1
1
1
1
1
1
1.00001
1.00002
1.00003
1.00021
1.00019
1.00142
1.00212
1.00698
1.03122
1.02504
1.24346
1.18828
3.12368
5.58627
11.5976
11.2313
10.4775
9.9905
9.80009
9.74792
9.72596
9.68976
9.64069
9.5942
9.54362
9.50054
9.46171
9.42125
1
1
1
1
1
1
1
1
1
1
1
1
1
1
1
1
1
1
1
1
1
1
1.00001
1.00002
1.00012
1.00019
1.00092
1.00157
1.00659
1.00727
1.03626
1.06065
1.03192
2.14204
2.80895
7.62616
10.7308
10.4319
9.94821
9.7678
9.74225
9.74104
9.73101
9.70519
9.65413
9.59841
9.5457
9.50001
9.46351
9.43002
1
1
1
1
1
1
1
1
1
1
1
1
1
1
1
1
1
1
1
1
1
1
1.00001
1.00001
1.00013
1.00013
1.00076
1.00105
1.00422
1.00557
1.02889
1.05046
1.21713
1.26131
2.92445
5.29244
11.2275
10.9882
10.4539
9.99746
9.81561
9.77469
9.76239
9.73403
9.68426
9.6276
9.56967
9.52169
9.48053
9.44144
2.81773
2.89581
4.10329
4.0216
3.79354
3.68795
3.6102
3.47328
3.34301
3.24113
3.15774
3.0897
3.05802
3.0483
3.05027
3.1011
3.17936
3.27543
3.38184
3.48997
3.59351
3.69219
3.78624
3.87618
3.9621
4.04371
4.12175
4.19634
4.26717
4.33416
4.3957
4.45186
4.50256
4.54821
4.58868
4.62478
4.65532
4.68647
4.71204
4.73212
4.7467
4.75778
4.76427
4.76732
4.76677
4.76461
4.75908
4.74824
4.73354
4.71689
4.6978
4.67666
4.65317
4.62746
4.59964
4.56981
4.53803
4.50458
4.46942
4.43294
4.39507
4.35623
4.31636
4.27581
4.23456
4.19281
4.15063
4.10808
4.06524
4.02217
3.97887
3.93544
3.89185
3.84821
3.80447
3.76072
3.71694
3.67316
3.62939
3.58563
3.54189
3.4982
3.45459
3.41106
3.36767
3.32445
3.28145
3.2387
3.19632
3.15438
3.113
3.07229
3.03243
2.99364
2.95608
2.92024
2.88664
2.8564
2.83134
2.81522
3.73043
3.79046
4.13504
4.0027
3.7736
3.72091
3.65408
3.47699
3.32766
3.21473
3.14139
3.0878
3.05616
3.04376
3.04755
3.0948
3.17094
3.26622
3.37286
3.48072
3.5838
3.6819
3.77522
3.86445
3.94993
4.03148
4.10957
4.18423
4.25538
4.32237
4.38471
4.44139
4.49257
4.53893
4.58007
4.61677
4.64904
4.67902
4.70507
4.72582
4.74094
4.75198
4.75866
4.76155
4.76119
4.75944
4.75465
4.74443
4.72865
4.71149
4.69265
4.67168
4.6483
4.62273
4.59499
4.56534
4.53373
4.50048
4.46558
4.42931
4.39174
4.35311
4.31353
4.27317
4.23215
4.19059
4.14857
4.10618
4.06346
4.02048
3.97727
3.9339
3.89038
3.84676
3.80306
3.75934
3.71559
3.67183
3.62807
3.58433
3.5406
3.49693
3.45333
3.4098
3.36644
3.32324
3.28028
3.23753
3.19524
3.15341
3.11211
3.07154
3.03165
2.99285
2.95523
2.91929
2.88549
2.85488
2.82924
2.81203
4.61847
4.2995
4.23175
4.06834
3.81569
3.69595
3.59484
3.44841
3.31358
3.21334
3.14785
3.0986
3.05761
3.02579
3.02471
3.08431
3.16084
3.2527
3.35999
3.46867
3.57263
3.67195
3.76674
3.85722
3.94398
4.02671
4.10575
4.1815
4.25289
4.31998
4.38198
4.43894
4.4906
4.53731
4.57908
4.61624
4.64896
4.67843
4.70365
4.72406
4.73917
4.74986
4.75614
4.75824
4.75779
4.75604
4.75148
4.74159
4.72461
4.70621
4.68673
4.66556
4.64216
4.61661
4.5889
4.55925
4.52775
4.49462
4.45994
4.4239
4.38663
4.34829
4.30902
4.26896
4.22821
4.18689
4.1451
4.1029
4.06037
4.01754
3.97446
3.93119
3.88775
3.8442
3.80054
3.75686
3.7131
3.66936
3.62558
3.58184
3.53811
3.49448
3.45091
3.4073
3.36401
3.3209
3.27807
3.23556
3.19338
3.1516
3.1104
3.06983
3.03007
2.99124
2.95363
2.91752
2.88347
2.85237
2.8265
2.80674
4.99188
4.56544
4.37378
4.15905
3.90607
3.7274
3.60289
3.46047
3.33058
3.23199
3.16235
3.10808
3.07083
3.05649
3.06093
3.08777
3.15216
3.2416
3.34343
3.44959
3.55403
3.65438
3.74998
3.8414
3.92889
4.01228
4.09165
4.16715
4.23899
4.30638
4.36868
4.42621
4.47847
4.5258
4.56809
4.60574
4.63881
4.668
4.69288
4.71328
4.72856
4.73931
4.74546
4.74704
4.7466
4.74499
4.74094
4.73222
4.71536
4.69602
4.67569
4.65424
4.63096
4.60564
4.57821
4.54889
4.51775
4.48498
4.4507
4.41505
4.3782
4.34025
4.30138
4.26168
4.22132
4.18035
4.1389
4.09699
4.05472
4.01211
3.96925
3.92615
3.88289
3.83948
3.796
3.75245
3.70882
3.66517
3.62153
3.57778
3.53414
3.49063
3.44722
3.40404
3.36082
3.31776
3.27498
3.23252
3.19044
3.14879
3.1077
3.06722
3.02755
2.9887
2.95106
2.91474
2.88033
2.84854
2.82096
2.80055
5.20679
4.77539
4.51269
4.2707
4.02493
3.81072
3.65721
3.52156
3.40527
3.31938
3.2622
3.22218
3.19234
3.1642
3.14878
3.15197
3.17048
3.21835
3.3027
3.40171
3.51282
3.6231
3.72684
3.82335
3.91334
3.99731
4.07638
4.15139
4.22269
4.28987
4.35247
4.41038
4.46329
4.5113
4.55425
4.59243
4.62585
4.65496
4.67962
4.69982
4.71513
4.72583
4.7319
4.73291
4.73243
4.73078
4.72684
4.71855
4.70277
4.68348
4.66249
4.64039
4.6169
4.59164
4.56452
4.53552
4.50479
4.47242
4.43861
4.40344
4.36709
4.32965
4.29131
4.25212
4.21226
4.17174
4.13071
4.08917
4.04725
4.00492
3.96233
3.91945
3.87642
3.8332
3.78997
3.74659
3.70305
3.65949
3.61601
3.57255
3.52914
3.48562
3.44228
3.39899
3.35595
3.31299
3.27041
3.22809
3.18621
3.14481
3.10388
3.06368
3.02406
2.98546
2.94777
2.91144
2.87672
2.8444
2.81578
2.79381
5.35538
4.95587
4.66264
4.40802
4.16552
3.95456
3.78285
3.65894
3.56875
3.50863
3.47242
3.44163
3.40353
3.35512
3.30327
3.25816
3.24151
3.24859
3.27636
3.33799
3.43176
3.55527
3.67728
3.78904
3.88865
3.97659
4.0565
4.13057
4.19994
4.26542
4.3272
4.38508
4.43864
4.4875
4.53134
4.57016
4.60414
4.63355
4.65838
4.6786
4.69412
4.70507
4.71142
4.71227
4.71179
4.71019
4.7064
4.69853
4.68446
4.66641
4.64576
4.62344
4.59974
4.57456
4.54777
4.51928
4.48911
4.45733
4.42409
4.3895
4.35373
4.31687
4.27909
4.24045
4.2011
4.16105
4.12045
4.07928
4.0377
3.99569
3.95334
3.91077
3.868
3.82494
3.78197
3.73884
3.69584
3.65256
3.60933
3.56597
3.52272
3.47932
3.43612
3.39292
3.35003
3.30723
3.26483
3.22266
3.18099
3.13974
3.09902
3.05895
3.01952
2.98097
2.94331
2.90687
2.8719
2.83904
2.80959
2.78574
5.47362
5.11485
4.82559
4.56895
4.33546
4.13885
3.9848
3.8834
3.82492
3.79512
3.7752
3.74741
3.69564
3.609
3.50543
3.4046
3.32814
3.29604
3.30105
3.32325
3.37704
3.46201
3.57948
3.70792
3.82576
3.93028
4.02067
4.09947
4.16987
4.23462
4.29514
4.35219
4.40578
4.45547
4.50048
4.54055
4.57571
4.60584
4.6313
4.65177
4.66768
4.67909
4.68599
4.6871
4.68665
4.68513
4.68156
4.67417
4.6617
4.64534
4.62577
4.60383
4.58018
4.55507
4.52853
4.50047
4.47087
4.43972
4.40711
4.37315
4.33801
4.30176
4.2646
4.22652
4.18772
4.14814
4.108
4.0672
4.02599
3.9843
3.94209
3.89997
3.85778
3.81538
3.77275
3.72986
3.68703
3.64396
3.60092
3.55768
3.51459
3.47135
3.42834
3.38531
3.34261
3.30005
3.25787
3.21603
3.17458
3.13371
3.09324
3.05354
3.01433
2.97606
2.93849
2.90217
2.86701
2.83387
2.80381
2.7784
5.57736
5.26353
4.99465
4.7579
4.55059
4.38228
4.26483
4.20103
4.17874
4.17048
4.15278
4.11386
4.03293
3.88505
3.72373
3.57523
3.45738
3.38102
3.35454
3.35858
3.37594
3.41927
3.49824
3.59245
3.70915
3.83313
3.94519
4.04163
4.12406
4.19526
4.25798
4.31494
4.36763
4.41659
4.46166
4.50241
4.53854
4.56979
4.59624
4.61774
4.63459
4.64681
4.65463
4.65646
4.65604
4.65459
4.65127
4.6444
4.63349
4.61896
4.60107
4.58031
4.55734
4.53265
4.50648
4.47889
4.44986
4.41937
4.38752
4.3543
4.31993
4.28439
4.24793
4.21046
4.17224
4.13314
4.09346
4.05306
4.01225
3.97097
3.92986
3.88798
3.84606
3.80389
3.76157
3.71896
3.67629
3.63343
3.59056
3.54757
3.50465
3.46169
3.4189
3.37618
3.3337
3.29147
3.24954
3.20804
3.16688
3.12633
3.08617
3.04674
3.00783
2.96977
2.93243
2.89613
2.86111
2.82765
2.79742
2.7708
5.69067
5.42404
5.19835
4.99828
4.83434
4.71586
4.65058
4.62928
4.62327
4.60788
4.56945
4.48617
4.3251
4.13125
3.93682
3.76442
3.62351
3.51961
3.45368
3.42554
3.42731
3.43797
3.46766
3.52873
3.59996
3.69663
3.81287
3.92777
4.03375
4.12479
4.20123
4.26582
4.32152
4.37076
4.41518
4.45543
4.49163
4.52364
4.5512
4.5742
4.59261
4.60635
4.61578
4.6196
4.61935
4.61829
4.61566
4.61013
4.60052
4.58773
4.57177
4.55272
4.53105
4.50726
4.48179
4.45481
4.42644
4.39666
4.36557
4.33314
4.29956
4.26478
4.22901
4.19217
4.15445
4.11581
4.07652
4.03662
3.99643
3.9558
3.91496
3.87367
3.83211
3.79024
3.7482
3.70588
3.66348
3.62087
3.57829
3.53557
3.49299
3.45034
3.40793
3.36555
3.32349
3.28164
3.24014
3.19904
3.15832
3.11818
3.07843
3.0394
3.00084
2.96311
2.92603
2.88996
2.855
2.82154
2.79116
2.76379
5.8306
5.6231
5.45997
5.32564
5.22492
5.168
5.14764
5.1349
5.10758
5.04882
4.93297
4.75972
4.55739
4.34809
4.14941
3.97361
3.82377
3.7015
3.60746
3.54187
3.50266
3.4928
3.49699
3.51386
3.55382
3.60637
3.67754
3.77286
3.88858
4
4.10069
4.18627
4.25656
4.31401
4.36189
4.40278
4.43853
4.47017
4.49806
4.52217
4.54226
4.5581
4.56981
4.57658
4.57748
4.57692
4.5752
4.57135
4.56363
4.55246
4.5384
4.52125
4.5013
4.47891
4.45453
4.42842
4.40084
4.37182
4.34154
4.30995
4.27723
4.24326
4.20823
4.17201
4.13478
4.0967
4.05811
4.01887
3.97926
3.93909
3.8986
3.85763
3.81639
3.77476
3.73301
3.69095
3.64888
3.60656
3.56435
3.52196
3.47978
3.43752
3.39552
3.35363
3.312
3.27064
3.22957
3.18897
3.14868
3.10901
3.06969
3.03109
2.99294
2.95559
2.91886
2.88312
2.84845
2.81518
2.78496
2.75731
6.03618
5.90825
5.82674
5.76486
5.72582
5.70577
5.68043
5.62839
5.5297
5.37608
5.18889
4.97731
4.76343
4.55919
4.36808
4.19595
4.04195
3.90693
3.79176
3.69756
3.62523
3.57627
3.54609
3.54672
3.5528
3.57199
3.61183
3.66288
3.73488
3.83438
3.94608
4.05345
4.14788
4.22637
4.28908
4.33848
4.37791
4.41049
4.43833
4.46258
4.48358
4.5012
4.51524
4.52504
4.53041
4.53024
4.5293
4.52701
4.52221
4.51287
4.50069
4.48553
4.46757
4.44695
4.42401
4.39906
4.37244
4.34429
4.31487
4.28413
4.25226
4.21906
4.18474
4.14911
4.11272
4.07534
4.03738
3.99869
3.95952
3.91974
3.87958
3.83895
3.79804
3.75678
3.71535
3.67369
3.63198
3.5901
3.54832
3.50643
3.46473
3.42301
3.38155
3.34018
3.2991
3.25832
3.21781
3.17776
3.13801
3.09883
3.06003
3.02186
2.9842
2.94725
2.911
2.87566
2.84145
2.8086
2.77886
2.75149
6.36001
6.32028
6.30885
6.29683
6.27553
6.23223
6.14528
6.00033
5.81712
5.60696
5.38849
5.17201
4.96524
4.77168
4.59073
4.42119
4.26398
4.11995
3.99012
3.87605
3.77949
3.70144
3.64182
3.6019
3.58305
3.58487
3.59421
3.61701
3.65174
3.70362
3.7825
3.88299
3.98855
4.08866
4.17542
4.24562
4.29984
4.34115
4.37307
4.39872
4.42021
4.43859
4.4541
4.46645
4.47526
4.47909
4.47883
4.47771
4.47493
4.46903
4.45917
4.44612
4.43033
4.41163
4.39039
4.36684
4.34142
4.31432
4.28589
4.25608
4.22509
4.19266
4.15906
4.12425
4.08863
4.05199
4.01463
3.97645
3.93771
3.89833
3.85854
3.81828
3.77774
3.73686
3.69585
3.65459
3.61336
3.57195
3.5307
3.48933
3.44821
3.40708
3.36622
3.3255
3.28505
3.24492
3.20504
3.16562
3.12648
3.0879
3.04968
3.01208
2.97498
2.93859
2.9029
2.86818
2.83461
2.80249
2.77345
2.74688
6.82396
6.82731
6.82407
6.80686
6.75879
6.65387
6.46023
6.24286
6.0175
5.79245
5.57518
5.36808
5.17301
4.98869
4.81369
4.64455
4.48437
4.33368
4.19385
4.06632
3.95289
3.85424
3.77178
3.70531
3.65587
3.62216
3.60911
3.61157
3.62141
3.64214
3.67809
3.72909
3.81361
3.91055
4.01145
4.10481
4.18396
4.24654
4.29349
4.32791
4.35353
4.37344
4.38969
4.40314
4.41385
4.42137
4.42414
4.42381
4.42255
4.41953
4.41331