/*--------------------------------*- C++ -*----------------------------------*\
| =========                 |                                                 |
| \\      /  F ield         | OpenFOAM: The Open Source CFD Toolbox           |
|  \\    /   O peration     | Version:  2112                                  |
|   \\  /    A nd           | Website:  www.openfoam.com                      |
|    \\/     M anipulation  |                                                 |
\*---------------------------------------------------------------------------*/
FoamFile
{
    version     2.0;
    format      ascii;
    arch        "LSB;label=32;scalar=64";
    class       surfaceScalarField;
    location    "5.5005";
    object      phi;
}
// * * * * * * * * * * * * * * * * * * * * * * * * * * * * * * * * * * * * * //

dimensions      [1 0 -1 0 0 0 0];

oriented        oriented;

internalField   nonuniform List<scalar> 
13790
(
0.00290515
5.65042e-09
0.00290514
2.87647e-09
0.00290514
1.0324e-09
0.00290514
2.48955e-10
0.00290514
4.0089e-10
0.00290514
7.48085e-10
0.00290514
8.85578e-10
0.00290514
8.48616e-10
0.00290514
-3.02415e-10
0.00290513
7.88413e-10
0.00290514
7.74601e-09
0.00290505
4.77932e-08
0.00290534
6.16173e-08
0.00290532
2.9519e-07
0.0029046
5.56775e-07
0.00288991
-3.46545e-07
0.0028992
3.26354e-06
0.00289942
-5.14239e-07
0.00290783
-7.67784e-06
0.00292614
-1.7109e-05
0.00284876
7.71014e-05
0.00279552
5.49699e-05
0.00271698
7.94695e-05
0.00262867
8.88346e-05
0.00253945
9.01379e-05
0.00245174
8.89966e-05
0.00236301
8.94734e-05
0.00227079
9.41654e-05
0.00217253
0.000101517
0.0020643
0.000109149
0.00194508
0.000116304
0.00181876
0.000123198
0.00168914
0.000129869
0.00155658
0.000135256
0.0014231
0.000137376
0.00129241
0.000135317
0.00116774
0.000129298
0.00105092
0.000120832
0.000941918
0.000112129
0.000839101
0.000105149
0.000739615
0.000101138
0.000639128
0.000100937
0.000534658
0.000104376
0.00042263
0.000112259
0.000298469
0.000124777
0.000161203
0.000137955
4.15818e-05
0.000120306
-1.92407e-05
6.10815e-05
-3.16401e-05
1.25095e-05
-3.15939e-05
0.00301309
6.43859e-09
0.00301309
4.77229e-09
0.00301309
3.31804e-09
0.00301309
2.48734e-09
0.00301308
2.37533e-09
0.00301308
2.20864e-09
0.00301308
2.06086e-09
0.00301308
1.46409e-09
0.00301308
-2.2634e-10
0.00301307
9.16438e-11
0.00301308
6.23699e-09
0.00301306
3.61304e-08
0.00301335
4.96909e-08
0.00301359
3.21794e-07
0.00301341
6.54703e-07
0.00299815
-1.19482e-07
0.00301197
1.84336e-06
0.00301304
-1.61719e-06
0.00301415
-7.93025e-06
0.0030126
-1.47648e-05
0.00294835
0.000140566
0.0028687
0.000136109
0.0027855
0.000163361
0.00269193
0.000182573
0.00259392
0.000188694
0.00249411
0.000189528
0.0023926
0.000191467
0.00228936
0.000199424
0.00218237
0.00021149
0.00206768
0.000224091
0.00194497
0.000235795
0.0018186
0.000246826
0.00169225
0.000257073
0.00156589
0.000264634
0.00144078
0.000266678
0.0013188
0.000262196
0.00120101
0.000251987
0.00108755
0.000238551
0.000977869
0.000225108
0.000870965
0.000214483
0.000765236
0.000208461
0.000658735
0.000207735
0.000550774
0.000212263
0.000441183
0.000222235
0.000331182
0.000235507
0.000227006
0.000242813
0.000128574
0.000219267
4.12705e-05
0.000148741
-3.16612e-06
5.71122e-05
-3.46992e-05
0.00312505
6.73807e-09
0.00312504
6.0874e-09
0.00312504
5.24345e-09
0.00312504
4.67233e-09
0.00312504
4.35587e-09
0.00312504
4.2659e-09
0.00312503
3.97911e-09
0.00312503
2.33764e-09
0.00312503
8.69174e-12
0.00312502
4.79331e-09
0.00312501
1.10381e-08
0.00312499
5.61968e-08
0.00312474
6.22603e-08
0.0031248
2.32139e-07
0.00312531
-2.80754e-07
0.00313229
-2.41247e-06
0.00312807
2.4299e-08
0.00313735
-4.94648e-06
0.00313133
-7.49855e-06
0.00311976
-4.33201e-06
0.00303766
0.000221506
0.00295167
0.000222898
0.00285957
0.000255607
0.00276154
0.000280299
0.00265864
0.000291744
0.00255119
0.000297309
0.00244316
0.00029995
0.00233494
0.00031006
0.00222404
0.000325396
0.00210617
0.000341801
0.00198144
0.000357255
0.0018544
0.000371635
0.00172852
0.000384347
0.00160374
0.000392675
0.00148132
0.000393568
0.00136236
0.000386359
0.00124692
0.000372544
0.00113435
0.000355512
0.0010237
0.000339135
0.000914134
0.000326535
0.000804761
0.000319445
0.000694663
0.000318126
0.000584744
0.000322086
0.000476782
0.000330577
0.00037318
0.000339876
0.000277392
0.000339351
0.000188475
0.000308801
0.000103017
0.00023463
3.22226e-05
0.000128125
-2.35146e-06
0.00324116
6.54595e-09
0.00324116
6.50996e-09
0.00324116
6.12486e-09
0.00324115
6.37351e-09
0.00324115
5.83013e-09
0.00324115
5.31511e-09
0.00324115
4.57152e-09
0.00324114
3.39164e-09
0.00324114
-1.43723e-09
0.00324113
1.58141e-08
0.00324112
3.49988e-09
0.003241
1.66509e-07
0.00324104
1.02194e-07
0.00324045
7.60555e-07
0.00324175
-1.67853e-06
0.00324774
-6.88514e-06
0.00324448
-2.59925e-06
0.00327044
-1.57844e-05
0.00324652
5.39916e-07
0.00323055
1.48556e-05
0.00313741
0.000311564
0.00303325
0.000326551
0.00292907
0.000358942
0.0028262
0.000382604
0.00271913
0.000399043
0.0026098
0.000407249
0.00249843
0.000412205
0.00238721
0.000424094
0.00227311
0.000442553
0.00215202
0.000462579
0.00202476
0.000481359
0.00189632
0.00049832
0.00177011
0.000512444
0.00164598
0.000520344
0.00152513
0.000519235
0.00140787
0.000509018
0.00129362
0.000492035
0.0011813
0.000472284
0.00106992
0.000453975
0.000958778
0.000440302
0.00084721
0.000432674
0.000735187
0.00043037
0.000624456
0.00043276
0.000517056
0.000438466
0.000415184
0.000442592
0.000320803
0.000434574
0.000233178
0.000397164
0.000148959
0.000319403
6.94111e-05
0.000208031
6.73476e-05
0.00336158
6.32276e-09
0.00336158
6.51799e-09
0.00336158
6.69133e-09
0.00336158
7.19913e-09
0.00336158
7.17708e-09
0.00336158
7.00517e-09
0.00336158
6.56063e-09
0.00336157
7.57882e-09
0.00336156
2.58753e-09
0.00336158
5.42163e-09
0.00336158
-7.97649e-10
0.0033618
5.39276e-08
0.00336227
2.27344e-08
0.00335415
5.13346e-07
0.00336195
-7.15477e-07
0.00334196
-2.99637e-06
0.00334457
-1.52597e-06
0.00345011
-7.19928e-06
0.0032996
3.82813e-06
0.00333741
2.96639e-05
0.003224
0.000418933
0.00311191
0.000437712
0.00300868
0.00046142
0.00290461
0.00048708
0.00279646
0.000508145
0.00268512
0.000519909
0.00257119
0.000527476
0.00245578
0.000542516
0.00233654
0.000564747
0.00221025
0.000588305
0.00207868
0.000609751
0.00194752
0.000628227
0.00181989
0.000642475
0.00169558
0.000648684
0.00157527
0.000644713
0.00145877
0.000631206
0.00134492
0.00061135
0.00123235
0.000589546
0.00111993
0.000570074
0.00100723
0.000555671
0.000893952
0.000547553
0.000780084
0.000544535
0.000667676
0.000545166
0.000559206
0.000547466
0.000456366
0.00054638
0.000360139
0.000531785
0.000268994
0.000489227
0.000179781
0.000409359
9.1714e-05
0.000296626
0.00015944
0.00348648
6.06106e-09
0.00348648
6.25751e-09
0.00348648
6.73601e-09
0.00348648
7.38204e-09
0.00348648
7.87041e-09
0.00348648
8.14772e-09
0.00348648
8.36743e-09
0.00348648
9.00765e-09
0.00348647
6.34444e-09
0.00348647
2.15245e-09
0.00348647
-1.3428e-09
0.00348666
1.26066e-08
0.00348645
-3.22779e-08
0.00348533
1.9293e-07
0.00349054
-6.34507e-07
0.00346411
-7.72852e-07
0.00347396
2.57901e-07
0.00358173
-6.74786e-07
0.00342386
1.14864e-05
0.00345827
4.76023e-05
0.00334669
0.000522952
0.00322628
0.00055767
0.00311332
0.000574181
0.00299942
0.000602098
0.00288456
0.000624562
0.00276787
0.000638133
0.00264873
0.000648004
0.00252772
0.000666904
0.00240244
0.000692698
0.00227077
0.000718692
0.002136
0.00074148
0.00200368
0.000760326
0.00187588
0.000773348
0.0017522
0.000776883
0.00163289
0.000769614
0.00151703
0.000753104
0.00140316
0.000730873
0.0012897
0.000707738
0.00117591
0.000687542
0.00106113
0.000673232
0.00094558
0.000664638
0.000829828
0.000660962
0.000715204
0.00066013
0.000604011
0.000659325
0.00049781
0.000653632
0.000396797
0.00063392
0.000299241
0.000587893
0.000202284
0.000507254
0.000103976
0.000395632
0.00026398
0.00361602
5.76357e-09
0.00361602
5.95317e-09
0.00361602
6.5373e-09
0.00361602
7.3421e-09
0.00361602
8.04905e-09
0.00361602
8.78782e-09
0.00361602
9.43227e-09
0.00361602
1.00978e-08
0.00361602
7.33336e-09
0.00361601
2.09757e-09
0.00361599
-1.13817e-09
0.003616
1.08968e-10
0.00361584
1.55647e-09
0.00361833
-1.28051e-08
0.00361499
2.92356e-07
0.00365701
-2.6181e-06
0.00361748
3.95535e-06
0.00365792
-1.69701e-06
0.00361191
2.62038e-05
0.00357283
7.39724e-05
0.00347268
0.000617681
0.00334431
0.000688626
0.00321807
0.000701072
0.00309229
0.000728466
0.00296956
0.000748801
0.00284728
0.000761893
0.00272326
0.00077408
0.00259679
0.000796624
0.00246634
0.000824739
0.0023317
0.000851753
0.00219657
0.000874668
0.00206548
0.000892408
0.00193947
0.000903082
0.00181781
0.000903523
0.00170008
0.00089322
0.00158492
0.000874411
0.00147054
0.000850982
0.0013558
0.000827279
0.00123974
0.000807614
0.0011227
0.000793186
0.00100427
0.000785124
0.000884902
0.000781161
0.000766536
0.000778663
0.000651221
0.000775109
0.000540038
0.000765793
0.000432734
0.000742346
0.000327309
0.000694501
0.000220974
0.000614665
0.000112349
0.000505207
0.000377168
0.00375038
5.43744e-09
0.00375038
5.61627e-09
0.00375038
6.19986e-09
0.00375038
7.05231e-09
0.00375038
7.92111e-09
0.00375038
8.9769e-09
0.00375038
9.94159e-09
0.00375038
1.09076e-08
0.00375037
8.80311e-09
0.00375037
3.91096e-09
0.00375033
5.14315e-09
0.00375038
9.35565e-09
0.00375004
5.89017e-08
0.00375141
2.17503e-07
0.00374972
3.89344e-07
0.0037489
-1.68686e-07
0.00374118
3.70258e-06
0.0038473
4.22592e-06
0.00369848
2.53071e-05
0.00372811
9.43283e-05
0.0036145
0.000712594
0.00346524
0.000837035
0.00332097
0.000845064
0.0031838
0.000866218
0.00305453
0.000879837
0.00292745
0.000890665
0.00279769
0.000905332
0.00266628
0.000930685
0.00253371
0.000959586
0.00239952
0.000985837
0.00226635
0.00100683
0.00213814
0.00102202
0.00201529
0.00102983
0.00189646
0.00102751
0.00178054
0.0010153
0.00166587
0.000995595
0.00155062
0.000972457
0.00143358
0.000949754
0.00131432
0.000930956
0.0011926
0.000917673
0.0010705
0.000909252
0.00094694
0.000905709
0.000823467
0.00090233
0.000702445
0.000896698
0.000584626
0.00088492
0.000469342
0.000859217
0.000355326
0.000810096
0.000240035
0.000731392
0.000121576
0.000624882
0.000499821
0.00388972
5.1054e-09
0.00388972
5.22881e-09
0.00388972
5.85063e-09
0.00388972
6.5925e-09
0.00388972
7.70675e-09
0.00388972
8.80524e-09
0.00388972
9.87557e-09
0.00388972
1.09576e-08
0.00388972
8.88157e-09
0.00388972
5.01509e-09
0.00388972
3.93221e-09
0.00388971
5.92615e-09
0.00388958
3.53602e-08
0.00389082
8.61735e-08
0.00388781
2.72552e-07
0.00391155
-1.83469e-07
0.00388189
4.43796e-06
0.00397337
3.02096e-06
0.0038928
3.66648e-05
0.00383225
0.000118427
0.00375227
0.000799269
0.00358682
0.00100512
0.00342207
0.00101026
0.0032763
0.00101252
0.00314366
0.00101433
0.00301405
0.00102179
0.00288218
0.00103969
0.00275
0.0010675
0.00261745
0.00109501
0.00248409
0.00111803
0.00235357
0.00113573
0.00222931
0.00114831
0.00211028
0.00115379
0.00199443
0.00114988
0.00187991
0.00113741
0.00176452
0.00111863
0.00164661
0.00109693
0.00152533
0.00107629
0.00140131
0.0010587
0.00127512
0.0010468
0.00114662
0.00104018
0.00101754
0.00103565
0.000887974
0.00103197
0.000759956
0.00102536
0.000634243
0.00101208
0.00050988
0.000985243
0.000385143
0.000936583
0.000258898
0.000859331
0.000130465
0.000754901
0.000631757
0.00403424
4.75234e-09
0.00403424
4.83671e-09
0.00403424
5.43619e-09
0.00403425
6.09886e-09
0.00403425
7.18864e-09
0.00403425
8.20031e-09
0.00403425
9.14998e-09
0.00403425
9.99211e-09
0.00403425
9.27247e-09
0.00403424
8.52868e-09
0.00403423
1.70806e-08
0.00403419
3.33961e-08
0.00403401
1.09518e-07
0.00403497
2.2315e-07
0.00403082
6.38595e-07
0.00405656
8.49125e-07
0.00402801
3.98726e-06
0.00411763
1.769e-06
0.00403721
5.06786e-05
0.00397662
0.000134131
0.00390845
0.000875779
0.00371229
0.0012051
0.00351949
0.00120464
0.00337712
0.00115696
0.00324804
0.00114671
0.00312215
0.00114966
0.00299081
0.00117504
0.00285968
0.00120383
0.00272852
0.0012285
0.00259802
0.00124795
0.00247207
0.00126327
0.00235215
0.00127391
0.00223549
0.00127782
0.00211992
0.00127366
0.00200348
0.00126206
0.00188429
0.00124539
0.00176139
0.00122618
0.00163456
0.0012083
0.0015035
0.00119383
0.00137044
0.00118279
0.0012356
0.00117755
0.00109809
0.00117439
0.00096106
0.0011696
0.000824588
0.00116285
0.000689318
0.00114906
0.000554862
0.00112175
0.000420148
0.00107339
0.000282811
0.00099874
0.000142384
0.000897277
0.000775964
0.00418414
4.36722e-09
0.00418414
4.44821e-09
0.00418414
4.97393e-09
0.00418414
5.58781e-09
0.00418414
6.54569e-09
0.00418414
7.42038e-09
0.00418414
8.21957e-09
0.00418414
8.88172e-09
0.00418414
8.08665e-09
0.00418414
7.67459e-09
0.00418415
1.52278e-08
0.00418414
2.95312e-08
0.00418404
9.28322e-08
0.00418521
1.87268e-07
0.00418185
5.25009e-07
0.00420722
5.89647e-07
0.00418047
3.49867e-06
0.0042769
-4.04406e-06
0.00418439
6.7944e-05
0.00415644
0.000131778
0.0041456
0.000881113
0.0039142
0.00144127
0.00367258
0.00144949
0.00354088
0.00129292
0.00341139
0.00128106
0.00328797
0.00127824
0.00315622
0.00131331
0.00302319
0.00134263
0.00289179
0.00136391
0.00276246
0.00138054
0.00263654
0.00139321
0.00251441
0.00140189
0.00239466
0.00140462
0.00227491
0.00140118
0.00215327
0.00139154
0.00202803
0.00137798
0.00189795
0.00136297
0.00176328
0.0013479
0.00162506
0.00133635
0.00148306
0.00132839
0.0013402
0.00132317
0.00119486
0.00132175
0.00104723
0.00131867
0.000900905
0.00131086
0.000754814
0.00129738
0.000607833
0.0012713
0.000458934
0.00122497
0.000308185
0.00115211
0.000154802
0.00105317
0.000933146
0.0043396
3.95573e-09
0.0043396
4.05229e-09
0.0043396
4.48683e-09
0.0043396
5.09263e-09
0.0043396
5.77408e-09
0.0043396
6.30443e-09
0.0043396
6.69012e-09
0.00433961
6.81523e-09
0.00433961
5.58674e-09
0.00433961
4.96232e-09
0.00433962
1.23614e-08
0.00433957
2.69437e-08
0.00433977
8.78487e-08
0.00433876
1.85953e-07
0.00434119
4.5159e-07
0.0043135
7.17349e-07
0.00434939
3.69595e-06
0.00416742
1.64978e-06
0.00435518
5.61562e-05
0.00434517
0.000130228
0.00454595
0.000654435
0.00425185
0.00173987
0.00399722
0.00171185
0.00381423
0.00148243
0.00366363
0.00143714
0.00352338
0.00142336
0.00338298
0.00145966
0.00324272
0.00148853
0.00310401
0.00150678
0.00296821
0.00151975
0.00283646
0.00152982
0.00270913
0.00153644
0.0025837
0.00153907
0.00245747
0.00153612
0.00232837
0.00152903
0.00219505
0.00151856
0.00205714
0.00150709
0.00191359
0.00149654
0.00176623
0.00148727
0.00161576
0.0014821
0.00146198
0.00147941
0.00130751
0.00147785
0.00115002
0.00147715
0.000990439
0.00147184
0.000831602
0.00145854
0.000671609
0.00143398
0.000509105
0.00139035
0.000342361
0.00132188
0.000172212
0.00122622
0.00110816
0.00450084
3.53373e-09
0.00450084
3.6293e-09
0.00450084
3.98895e-09
0.00450084
4.61081e-09
0.00450084
4.93195e-09
0.00450084
5.1833e-09
0.00450084
4.69302e-09
0.00450085
3.45067e-09
0.00450085
7.87841e-10
0.00450086
-1.54029e-10
0.00450086
4.1557e-09
0.00450084
1.31895e-08
0.00450103
5.38015e-08
0.00450025
1.24029e-07
0.00450252
3.14225e-07
0.00447582
8.41056e-07
0.00451061
4.36464e-06
0.0043409
7.63563e-06
0.00450716
5.04871e-05
0.00451352
0.000117019
0.004588
0.000556398
0.00441189
0.00190735
0.00427084
0.00185547
0.00407468
0.0016865
0.00391613
0.00160227
0.00377064
0.00157394
0.00363089
0.00160431
0.00348796
0.00163706
0.00334683
0.00165349
0.00320916
0.00166335
0.00307248
0.00167213
0.00293755
0.00167788
0.00280317
0.00168091
0.00266682
0.00167973
0.00252838
0.00167481
0.00238527
0.00166849
0.00223785
0.00166039
0.00208607
0.00165356
0.00192937
0.00164825
0.00176975
0.00164517
0.00160671
0.00164572
0.00143998
0.00164705
0.00127194
0.00164692
0.00110072
0.00164455
0.00092589
0.00163553
0.000748624
0.00161433
0.000567237
0.00157525
0.000381655
0.00151101
0.000191481
0.00141995
0.00130315
0.00466807
3.13247e-09
0.00466807
3.12309e-09
0.00466807
3.54902e-09
0.00466807
3.88627e-09
0.00466807
4.60713e-09
0.00466807
5.05969e-09
0.00466807
4.27716e-09
0.00466807
1.08235e-09
0.00466807
-2.31239e-09
0.00466808
-9.94078e-09
0.0046681
-1.46661e-08
0.00466816
-4.96953e-08
0.0046682
-5.97834e-08
0.00466912
-2.76395e-07
0.00466805
-2.53876e-07
0.00469175
-2.04245e-06
0.00466736
3.36098e-06
0.00474936
5.52604e-06
0.0046796
5.2213e-05
0.00466474
0.000112799
0.004701
0.000515131
0.00460614
0.00197494
0.00445955
0.00200634
0.00430755
0.00184574
0.0041741
0.00174305
0.00402107
0.00173414
0.00388579
0.00174457
0.00374463
0.00178241
0.00360058
0.00180163
0.00345825
0.00181042
0.00331878
0.00181765
0.00317958
0.00182372
0.0030405
0.00182701
0.00289881
0.0018283
0.00275328
0.00182675
0.00260389
0.0018241
0.00244834
0.00182147
0.00228809
0.00181853
0.00212288
0.00181761
0.00195368
0.00181822
0.00178093
0.00182187
0.00160316
0.00182779
0.00141949
0.00183279
0.00123335
0.00183293
0.00104383
0.00182765
0.000848128
0.0018131
0.000646
0.00178093
0.000436178
0.00172471
0.000220371
0.00163992
0.00152753
0.00484151
2.69262e-09
0.00484151
2.62108e-09
0.00484151
3.06304e-09
0.00484151
3.24993e-09
0.00484151
3.85924e-09
0.00484151
3.91433e-09
0.00484151
5.36468e-09
0.00484151
1.27933e-09
0.00484151
-2.73282e-09
0.00484152
-2.53872e-08
0.00484153
-3.04993e-08
0.00484165
-1.53119e-07
0.00484172
-1.63139e-07
0.00484228
-8.91723e-07
0.00484315
-7.99142e-07
0.00484907
-6.46281e-06
0.00483961
6.25728e-06
0.0048941
4.53755e-06
0.00480805
6.44535e-05
0.00484062
0.000102461
0.00485959
0.000484219
0.00484454
0.00194637
0.00472446
0.00213424
0.00458721
0.0019918
0.00445285
0.00188561
0.00431107
0.00188237
0.00417045
0.00189148
0.00403262
0.00192546
0.00389023
0.00194908
0.00374438
0.00196115
0.00359817
0.00196877
0.00345187
0.00197536
0.00330428
0.00197977
0.0031556
0.00198221
0.00300384
0.00198361
0.00284837
0.00198434
0.00268842
0.00198587
0.00252205
0.00198882
0.00234994
0.00199277
0.00217204
0.00199901
0.00198971
0.00200697
0.00180221
0.00201815
0.00160731
0.00203017
0.00140251
0.00203989
0.00119124
0.00204219
0.000973054
0.00203527
0.000744054
0.00201416
0.000504488
0.00196868
0.000253749
0.00189482
0.00178577
0.00502139
2.16882e-09
0.00502139
2.19343e-09
0.00502139
2.41996e-09
0.0050214
2.79777e-09
0.0050214
3.11115e-09
0.0050214
3.57943e-09
0.0050214
4.06092e-09
0.00502139
5.55441e-09
0.00502138
1.01335e-08
0.00502132
2.65371e-08
0.00502123
6.55914e-08
0.0050209
1.73893e-07
0.00502021
4.20109e-07
0.00501848
1.02486e-06
0.00501555
2.33158e-06
0.00499924
5.64073e-06
0.00499131
1.48231e-05
0.00504483
-9.89853e-06
0.00492146
0.000128451
0.00505606
-9.36665e-06
0.00502088
0.00050329
0.00523644
0.00167465
0.0051581
0.00222622
0.00499832
0.00216504
0.00482383
0.00206806
0.00467012
0.00204103
0.00452023
0.00204649
0.00437468
0.00207543
0.0042281
0.00210006
0.00407892
0.00211463
0.00392823
0.00212362
0.00377592
0.00213151
0.00362111
0.0021381
0.00346335
0.00214334
0.00330316
0.00214742
0.00313976
0.00215179
0.00297278
0.00215708
0.00280112
0.0021646
0.00262298
0.00217465
0.00243789
0.00218745
0.00224528
0.00220291
0.00204584
0.00222066
0.00183765
0.00224086
0.00162001
0.00225992
0.00138823
0.0022767
0.00114256
0.00228469
0.000882197
0.00227912
0.00060261
0.00225343
0.000308582
0.00219474
0.00209998
0.00520796
1.64756e-09
0.00520796
1.69533e-09
0.00520796
1.85136e-09
0.00520797
2.1802e-09
0.00520797
2.51921e-09
0.00520797
2.48116e-09
0.00520797
1.98384e-09
0.00520797
2.02748e-09
0.00520798
3.68726e-09
0.00520799
1.23065e-08
0.00520802
3.1875e-08
0.0052081
8.845e-08
0.00520832
2.09413e-07
0.00520876
4.76641e-07
0.00521059
8.97131e-07
0.00520991
2.80408e-06
0.00525165
5.58181e-06
0.00519757
5.67073e-06
0.00543221
2.4479e-05
0.00523086
8.48757e-05
0.00540735
0.000257758
0.00554693
0.00150767
0.00545136
0.00234078
0.00527192
0.00235985
0.00513581
0.00221274
0.00499654
0.00218573
0.00485992
0.00218814
0.00472413
0.00221551
0.00458369
0.0022447
0.00443882
0.00226373
0.00429077
0.00227557
0.00413983
0.00228561
0.00398468
0.0022956
0.00382486
0.00230505
0.00365995
0.00231426
0.00349072
0.00232342
0.00331683
0.00233407
0.00313807
0.00234692
0.00295403
0.00236264
0.00276283
0.0023826
0.00256295
0.0024066
0.00235332
0.00243439
0.00213129
0.00246647
0.00189385
0.00250055
0.00164175
0.00253224
0.00136872
0.00256209
0.00106934
0.00258363
0.000742553
0.00258537
0.000380431
0.00256213
0.00248641
0.00540147
1.11684e-09
0.00540147
1.17586e-09
0.00540147
1.28317e-09
0.00540147
1.51742e-09
0.00540147
1.65994e-09
0.00540147
1.91859e-09
0.00540147
1.59617e-09
0.00540147
1.77985e-09
0.00540147
3.59297e-09
0.00540147
1.04129e-08
0.00540148
2.49927e-08
0.00540149
6.1499e-08
0.00540153
1.28993e-07
0.00540139
2.27047e-07
0.00540349
3.67138e-07
0.00539918
5.3848e-07
0.00543316
-1.01893e-06
0.00540829
4.41865e-06
0.00553026
5.616e-06
0.00538887
8.71802e-05
0.00548283
0.000197956
0.00586356
0.00105528
0.00566874
0.00255128
0.00554807
0.00250136
0.00539838
0.00237988
0.00527416
0.00232095
0.00515474
0.00231775
0.00503982
0.00233772
0.00491419
0.00237554
0.00478369
0.00239859
0.00464838
0.00241476
0.0045076
0.0024295
0.00436133
0.00244395
0.00420881
0.00245897
0.00404957
0.00247438
0.00388316
0.00249071
0.00371044
0.00250841
0.00353024
0.00252943
0.00334278
0.00255291
0.00314907
0.00257954
0.00294621
0.00261305
0.00273114
0.00265347
0.00250265
0.00269938
0.00225557
0.00275179
0.00198348
0.0028085
0.00168403
0.002866
0.00134755
0.00292546
0.000958669
0.00298101
0.000514121
0.00301404
0.00300735
0.00560216
5.88081e-10
0.00560216
6.68261e-10
0.00560216
7.75761e-10
0.00560216
9.56545e-10
0.00560216
1.06141e-09
0.00560216
1.19988e-09
0.00560216
1.40375e-09
0.00560216
2.50407e-09
0.00560216
5.03237e-09
0.00560215
1.3278e-08
0.00560215
2.82637e-08
0.00560214
6.85037e-08
0.00560204
1.52943e-07
0.00560202
1.48678e-07
0.00560272
5.29237e-07
0.00560173
-4.2852e-07
0.00562444
-6.11298e-06
0.00559983
6.8072e-06
0.00568235
6.69789e-06
0.00557148
8.20523e-05
0.00564634
0.000158688
0.00592995
0.000752224
0.00584211
0.0026056
0.0057366
0.00261706
0.00560616
0.00252401
0.00550641
0.00243126
0.00540365
0.00242868
0.00530505
0.00244311
0.0052043
0.00248262
0.00509291
0.00251627
0.00497445
0.00253812
0.00485088
0.00255673
0.00472094
0.00257633
0.00458388
0.0025974
0.00443911
0.00262015
0.00428644
0.0026444
0.00412561
0.00267066
0.00395825
0.00269878
0.00378119
0.00273257
0.00359059
0.00277327
0.00338919
0.00281807
0.00317611
0.0028703
0.00294906
0.00293049
0.00270313
0.00300225
0.00243184
0.00308477
0.00212158
0.00318189
0.00176013
0.00329237
0.00132448
0.00342263
0.000758082
0.00358696
0.00377273
0.00581031
1.06262e-10
0.00581031
2.04291e-10
0.00581031
3.12506e-10
0.00581031
4.72168e-10
0.00581031
6.33092e-10
0.00581031
9.45583e-10
0.00581031
1.35164e-09
0.00581031
3.02194e-09
0.00581031
4.74941e-09
0.00581032
1.35976e-08
0.00581023
1.96176e-08
0.00581051
6.77558e-08
0.00580932
6.03575e-08
0.00580999
5.18481e-07
0.00580993
3.86324e-07
0.00581077
2.52606e-06
0.00578846
4.92414e-06
0.00578297
1.54346e-05
0.00585363
-1.49079e-06
0.00571267
0.000131539
0.00584442
5.94752e-05
0.00589445
0.000682314
0.0060578
0.00237486
0.00593714
0.00274238
0.00581919
0.0026507
0.00573557
0.00252492
0.00564868
0.00252213
0.00556645
0.0025304
0.00548165
0.00257138
0.00538814
0.00261291
0.00528434
0.00264411
0.00517328
0.00266917
0.00505747
0.00269356
0.00493736
0.00271879
0.00481181
0.00274696
0.00468039
0.0027771
0.00454207
0.00281034
0.00439186
0.0028506
0.0042322
0.00289428
0.0040635
0.00294411
0.0038849
0.00299925
0.00369357
0.00306486
0.0034877
0.00314003
0.00326457
0.00322963
0.00301598
0.00333796
0.00273551
0.00346771
0.00239809
0.00363662
0.00196944
0.00385865
0.00139714
0.00416695
0.00517716
0.00840003
8.865e-12
0.00840003
3.62581e-11
0.00840003
8.09549e-11
0.00840003
1.41818e-10
0.00840003
2.24137e-10
0.00840003
3.39305e-10
0.00840003
5.40401e-10
0.00840003
9.50094e-10
0.00840004
2.02806e-09
0.00840005
3.75949e-09
0.00840004
1.08317e-08
0.00840026
2.3255e-08
0.00840008
3.96872e-08
0.00840076
1.44843e-07
0.00840109
2.89378e-07
0.00839991
9.36207e-07
0.00840062
2.94785e-06
0.00847358
5.91381e-06
0.00839588
1.2912e-05
0.00870676
3.31847e-05
0.00844341
0.000146387
0.00862801
0.00038052
0.00897005
0.00198039
0.00873218
0.00298582
0.00849463
0.00289852
0.00828929
0.00274151
0.008145
0.00267547
0.00801089
0.00267284
0.00790099
0.00268902
0.00779268
0.00272745
0.00767769
0.00276332
0.00755349
0.00279526
0.0074192
0.00282529
0.00727961
0.00285365
0.00714079
0.00288422
0.00699808
0.00292205
0.00684756
0.00296431
0.00669544
0.00300797
0.00653856
0.00305684
0.00637601
0.00311161
0.00620401
0.00317463
0.00602965
0.00324235
0.00585057
0.00332197
0.00567364
0.00340993
0.00550627
0.0035094
0.00535416
0.00362425
0.00526677
0.00372892
0.00529918
0.00383317
0.00562732
0.00384647
0.0035199
0.00729216
0.00840003
1.16447e-12
0.00840003
5.53169e-12
0.00840003
1.51505e-11
0.00840003
3.21311e-11
0.00840003
6.20016e-11
0.00840003
1.07041e-10
0.00840003
2.10908e-10
0.00840003
3.30305e-10
0.00840003
7.8506e-10
0.00840003
1.55977e-09
0.00840005
3.83696e-09
0.00840001
7.4634e-09
0.00840003
2.69714e-08
0.0084002
4.6012e-08
0.0084001
2.11076e-07
0.00839825
5.51993e-07
0.00840666
1.22382e-06
0.00838719
2.27274e-06
0.00839385
9.40645e-06
0.00856645
1.58556e-05
0.00842492
9.45676e-05
0.00862172
0.000216051
0.00943793
0.00104949
0.00907343
0.00335345
0.00880446
0.00317555
0.00854027
0.00301542
0.00836878
0.00285733
0.00822334
0.00282582
0.00809438
0.00282426
0.00798036
0.0028477
0.00787405
0.0028759
0.00776937
0.00290396
0.0076667
0.00293059
0.00756053
0.00296239
0.00744878
0.00299841
0.00734106
0.00303518
0.00723616
0.00307605
0.00713225
0.00311976
0.00703076
0.0031675
0.00693265
0.00321884
0.00684075
0.00327482
0.00675399
0.00333621
0.00668618
0.00339521
0.00663848
0.00346172
0.00663528
0.00351635
0.00669425
0.00356867
0.0068371
0.00358911
0.00711779
0.00355524
0.00749729
0.00346936
0.0031442
0.00787406
0.00840003
1.94774e-13
0.00840003
1.03298e-12
0.00840003
3.65988e-12
0.00840003
7.96874e-12
0.00840003
2.28375e-11
0.00840003
3.58764e-11
0.00840003
1.27549e-10
0.00840003
2.17471e-10
0.00840003
5.87218e-10
0.00840002
1.39564e-09
0.00840005
2.25483e-09
0.00839992
2.69076e-09
0.00840006
2.90926e-08
0.00839998
4.79266e-08
0.00840099
2.22165e-07
0.00839818
6.61874e-07
0.00841427
9.65746e-07
0.00833777
1.42404e-06
0.00841086
8.32777e-06
0.00814847
1.4044e-05
0.00843889
7.59557e-05
0.00845066
0.000183319
0.00863401
0.000815255
0.00900272
0.00294513
0.00884803
0.0033435
0.00863875
0.00324199
0.00851643
0.00300226
0.00839074
0.00296629
0.0082738
0.00295195
0.00817167
0.00295695
0.00807911
0.00297638
0.00799568
0.00299503
0.00791368
0.00301972
0.00783067
0.00305131
0.00775224
0.003082
0.0076756
0.00311476
0.00760359
0.00315073
0.0075378
0.00318869
0.0074813
0.00322798
0.0074358
0.00326992
0.00740602
0.00331096
0.00739457
0.00335494
0.00740369
0.00339322
0.00744714
0.00342445
0.00752119
0.00344738
0.00765394
0.00343967
0.00782534
0.00342046
0.00804989
0.00333256
0.00828401
0.00323629
0.00298457
0.00844385
0.00840003
5.53633e-14
0.00840003
2.29192e-13
0.00840003
9.57437e-13
0.00840003
1.83873e-12
0.00840003
5.84936e-12
0.00840003
9.55184e-12
0.00840003
3.35026e-11
0.00840003
4.39532e-11
0.00840003
2.13585e-10
0.00840003
3.50839e-10
0.00840005
1.18621e-09
0.00839997
1.82493e-09
0.0084001
1.15183e-08
0.0083998
1.88841e-08
0.0084002
1.19412e-07
0.00840051
2.57757e-07
0.0084008
9.45379e-07
0.00841055
1.08115e-06
0.00839404
8.66638e-06
0.00851174
1.21627e-05
0.00839721
6.54693e-05
0.00844012
0.000141401
0.00864082
0.000582356
0.00959505
0.00185593
0.00940638
0.0035423
0.00923896
0.0034448
0.00896914
0.00330381
0.00879375
0.00316259
0.00865862
0.00310112
0.00854312
0.00308738
0.00844285
0.00309062
0.00834774
0.00310344
0.00825811
0.00312009
0.00817875
0.0031375
0.00810653
0.00315819
0.00804132
0.00318189
0.00798476
0.00320797
0.00793885
0.00323481
0.00790621
0.00326137
0.00789171
0.00328665
0.00789522
0.00331109
0.00792669
0.00332949
0.00797861
0.00334795
0.00806347
0.00334702
0.0081708
0.00334651
0.00830829
0.00330745
0.00846522
0.00326688
0.00862933
0.0031705
0.00879721
0.00306887
0.0028899
0.00889144
0.00840003
5.8476e-14
0.00840003
2.86634e-14
0.00840003
6.8243e-13
0.00840003
3.76981e-13
0.00840003
4.44729e-12
0.00840003
3.7377e-12
0.00840003
2.47191e-11
0.00840003
1.20212e-11
0.00840003
1.98389e-10
0.00840003
-2.45227e-11
0.00840003
1.6806e-09
0.0084
1.01296e-09
0.0084001
9.13779e-09
0.00839974
3.92214e-09
0.00840015
1.00469e-07
0.00839983
4.19724e-08
0.00840391
5.3269e-07
0.00839842
6.3952e-07
0.00841499
2.65287e-06
0.00829982
3.25469e-07
0.00841424
4.73903e-05
0.00852015
2.1071e-05
0.00874833
0.000342246
0.00972408
0.000844547
0.00997232
0.00326669
0.00963766
0.00379646
0.00935722
0.00359854
0.0092258
0.00330502
0.00909324
0.00323923
0.00897006
0.00321369
0.008854
0.00320905
0.00875037
0.00320967
0.00866102
0.00321216
0.00858243
0.00321878
0.00851353
0.00322857
0.00845415
0.00324136
0.00840578
0.00325584
0.00836949
0.00326994
0.00834544
0.00328364
0.00833927
0.00329164
0.00835152
0.00329901
0.0083874
0.00329514
0.00844717
0.0032918
0.00853071
0.00326789
0.00863736
0.00324541
0.00875888
0.00319097
0.00889599
0.00313437
0.00902695
0.00304252
0.00915678
0.00294069
0.00279753
0.00924911
0.00840003
1.08028e-14
0.00840003
1.24379e-13
0.00840003
3.35747e-13
0.00840003
1.1325e-12
0.00840003
2.61717e-12
0.00840003
7.49453e-12
0.00840003
1.52814e-11
0.00840003
5.52207e-11
0.00840003
1.17792e-10
0.00840003
4.26151e-10
0.00840003
9.68487e-10
0.00840004
3.11049e-09
0.00839997
6.28839e-09
0.00840008
1.87694e-08
0.00839964
3.95132e-08
0.00840022
1.28947e-07
0.00840052
2.83435e-07
0.00840079
9.29258e-07
0.0084125
1.11746e-06
0.00838856
5.7978e-06
0.00854429
1.47406e-05
0.00837743
5.81721e-05
0.00857451
0.000157219
0.0087004
0.000687898
0.00972174
0.00216302
0.00972211
0.00378986
0.00972381
0.00360946
0.00951771
0.00352637
0.00939022
0.00337275
0.0092861
0.00331558
0.00918827
0.00330204
0.00909426
0.00329838
0.00900756
0.00329435
0.00893244
0.00329092
0.00887142
0.00329045
0.00882432
0.00329106
0.00878869
0.00329508
0.00876752
0.00329484
0.00875647
0.00329772
0.00875949
0.0032903
0.00877479
0.00328452
0.00880708
0.00326362
0.00885694
0.00324321
0.00892296
0.00320356
0.00900815
0.00316233
0.0091023
0.00309987
0.00920937
0.00302969
0.00931352
0.00294137