/*--------------------------------*- C++ -*----------------------------------*\
| =========                 |                                                 |
| \\      /  F ield         | OpenFOAM: The Open Source CFD Toolbox           |
|  \\    /   O peration     | Version:  2112                                  |
|   \\  /    A nd           | Website:  www.openfoam.com                      |
|    \\/     M anipulation  |                                                 |
\*---------------------------------------------------------------------------*/
FoamFile
{
    version     2.0;
    format      ascii;
    arch        "LSB;label=32;scalar=64";
    class       volScalarField;
    location    "5.5005";
    object      T;
}
// * * * * * * * * * * * * * * * * * * * * * * * * * * * * * * * * * * * * * //

dimensions      [0 0 0 1 0 0 0];

internalField   nonuniform List<scalar> 
7000
(
1
1
1
1
1
1
1.00001
1
1.00002
1.00002
1.00031
1.00037
1.00264
1.00112
1.00958
1.00616
1.08441
1.2047
1.66384
2.44944
2.64916
2.69196
2.68156
2.67001
2.6699
2.67998
2.6893
2.69958
2.70439
2.70797
2.71697
2.72991
2.73895
2.74089
2.73892
2.73438
2.72851
2.7228
2.71832
2.71534
2.71368
2.71421
2.71994
2.72544
2.72852
2.72847
2.72279
2.7187
2.71787
2.71735
1
1
1
1
1
1
1.00001
1
1.00002
1.00002
1.00029
1.00036
1.00245
1.00111
1.00895
1.00451
1.0809
1.19606
1.65112
2.43389
2.64004
2.69109
2.68098
2.67009
2.67065
2.68119
2.69123
2.70148
2.70636
2.71085
2.72082
2.73361
2.74166
2.74293
2.74065
2.7359
2.7299
2.72408
2.71955
2.7166
2.71489
2.71631
2.72205
2.72677
2.72828
2.72797
2.72496
2.72061
2.71748
2.7161
1
1
1
1
1
1
1.00001
1
1.00002
1.00002
1.00028
1.00035
1.00245
1.00078
1.00827
1.00414
1.07996
1.19098
1.64203
2.42146
2.63548
2.69152
2.68135
2.67045
2.67141
2.68202
2.69235
2.70204
2.70631
2.71117
2.72145
2.73354
2.74043
2.74114
2.73868
2.73388
2.72798
2.72248
2.71836
2.71582
2.71437
2.71612
2.72191
2.72688
2.72854
2.72838
2.72616
2.72228
2.71942
2.71702
1
1
1
1
1
1
1.00001
1
1.00002
1.00003
1.00026
1.00039
1.0022
1.00096
1.00814
1.00313
1.07789
1.1845
1.63019
2.40314
2.62753
2.69186
2.68223
2.67189
2.67324
2.68359
2.69374
2.70297
2.70709
2.71223
2.72259
2.73398
2.73988
2.74009
2.7373
2.73236
2.72667
2.72155
2.71781
2.71538
2.71378
2.71605
2.72206
2.72651
2.72772
2.72738
2.7257
2.7227
2.72002
2.71703
1
1
1
1
1
1
1
1
1.00001
1.00005
1.00015
1.0005
1.00134
1.00245
1.00927
1.00417
1.08116
1.17757
1.62097
2.37998
2.62151
2.6937
2.68349
2.67272
2.6739
2.68384
2.69375
2.70267
2.70693
2.71246
2.72292
2.73382
2.73871
2.73837
2.7353
2.73044
2.72495
2.72002
2.71634
2.71434
2.71335
2.71535
2.72115
2.72625
2.72784
2.72754
2.72588
2.72293
2.72014
2.71783
1
1
1
1
1
1
1
1
1.00001
1.00005
1.00012
1.00056
1.00114
1.00284
1.00836
1.00651
1.07864
1.1695
1.60252
2.35149
2.61061
2.69344
2.68305
2.67218
2.67352
2.68314
2.69356
2.70217
2.70623
2.7126
2.7235
2.73304
2.73651
2.73576
2.73256
2.72764
2.72243
2.71792
2.71487
2.71294
2.71279
2.71512
2.71979
2.72437
2.72617
2.72599
2.72464
2.72238
2.71977
2.71661
1
1
1
1
1
1
1
1
1.00001
1.00005
1.00012
1.00059
1.00105
1.003
1.00846
1.00558
1.07348
1.16322
1.57724
2.32318
2.59642
2.69273
2.68219
2.67146
2.67317
2.68308
2.6933
2.70096
2.70576
2.71312
2.72327
2.73118
2.73358
2.7325
2.72925
2.72461
2.71979
2.71601
2.71296
2.71177
2.71063
2.71224
2.71789
2.72341
2.72571
2.72562
2.72387
2.72141
2.71941
2.71707
1
1
1
1
1
1
1
1
1.00001
1.00005
1.00012
1.00059
1.00108
1.0029
1.00828
1.00608
1.07226
1.15315
1.55764
2.27397
2.58081
2.69235
2.68169
2.67046
2.67256
2.68232
2.69249
2.70114
2.70615
2.71222
2.72093
2.72804
2.73012
2.72903
2.7259
2.72161
2.71695
2.71291
2.71017
2.7089
2.71032
2.71072
2.7158
2.72207
2.72497
2.72515
2.72407
2.72131
2.71763
2.71392
1
1
1
1
1
1
1
1
1.00001
1.00006
1.00011
1.00057
1.00089
1.0029
1.00766
1.00731
1.06506
1.14242
1.52921
2.23559
2.56088
2.69073
2.68001
2.66835
2.67117
2.6812
2.6923
2.69865
2.70239
2.70895
2.71868
2.72553
2.72708
2.72555
2.72184
2.71709
2.71284
2.70946
2.70835
2.7073
2.70622
2.70934
2.71362
2.71937
2.72219
2.72206
2.72072
2.71941
2.71786
2.71517
1
1
1
1
1
1
1
1
1.00001
1.00006
1.00011
1.00056
1.00089
1.00283
1.00743
1.00724
1.06011
1.13069
1.49873
2.18028
2.5364
2.68732
2.67703
2.66444
2.66732
2.67742
2.68844
2.69529
2.69931
2.70736
2.71599
2.72028
2.72013
2.71812
2.71503
2.71148
2.70879
2.70648
2.70463
2.70601
2.70488
2.70629
2.7133
2.71807
2.72116
2.72202
2.7209
2.7173
2.71344
2.7094
1
1
1
1
1
1
1
1
1.00001
1.00006
1.00011
1.00051
1.00081
1.00251
1.00686
1.00616
1.05471
1.12199
1.45293
2.10316
2.50351
2.6784
2.66901
2.65833
2.6609
2.67078
2.67902
2.68634
2.69235
2.69847
2.705
2.70905
2.71069
2.7098
2.70797
2.70557
2.70304
2.70253
2.70143
2.7008
2.70279
2.70199
2.70637
2.71409
2.71673
2.71705
2.71664
2.7162
2.7143
2.71127
1
1
1
1
1
1
1
1
1.00001
1.00006
1.0001
1.00048
1.00074
1.00235
1.00632
1.00549
1.05047
1.12047
1.38669
2.00031
2.4594
2.664
2.64886
2.64429
2.64591
2.65721
2.66636
2.67436
2.68161
2.68871
2.69636
2.70118
2.7026
2.70244
2.70089
2.69979
2.69809
2.69671
2.69762
2.69699
2.69758
2.7004
2.70146
2.70725
2.71382
2.71475
2.71336
2.70981
2.70625
2.70181
1
1
1
1
1
1
1
1
1.00001
1.00006
1.0001
1.00043
1.00068
1.00209
1.00603
1.00487
1.04522
1.11116
1.33528
1.89512
2.39516
2.6518
2.64467
2.64169
2.63821
2.64628
2.65465
2.66307
2.66987
2.67502
2.67919
2.68517
2.6877
2.69033
2.69221
2.69195
2.69363
2.69321
2.69377
2.6948
2.69446
2.69599
2.70018
2.70243
2.70578
2.70934
2.70979
2.70919
2.70691
2.70448
1
1
1
1
1
1
1
1
1.00001
1.00006
1.0001
1.00041
1.00066
1.00186
1.00618
1.00349
1.04029
1.09284
1.29714
1.76514
2.31994
2.63157
2.64553
2.64166
2.63317
2.63961
2.64386
2.65271
2.66043
2.66796
2.67277
2.67625
2.67964
2.68035
2.6823
2.68302
2.68311
2.6853
2.68598
2.68794
2.68825
2.68856
2.69155
2.69909
2.70279
2.70275
2.70198
2.69906
2.69552
2.68943
1
1
1
1
1
1
1
1.00001
1.00001
1.00006
1.00009
1.00036
1.00062
1.00162
1.00567
1.00265
1.03568
1.07938
1.25663
1.64464
2.2222
2.60558
2.65215
2.64554
2.63267
2.63355
2.63767
2.64227
2.64743
2.65267
2.65852
2.66364
2.6686
2.673
2.67529
2.67757
2.6782
2.67847
2.68014
2.68143
2.68348
2.6831
2.68333
2.68569
2.69378
2.69825
2.69781
2.69699
2.69304
2.69173
1
1
1
1
1
1
1
1
1.00003
1.00006
1.00026
1.00039
1.00151
1.00217
1.00854
1.00825
1.02763
1.05951
1.22048
1.54339
2.10426
2.55329
2.65261
2.64133
2.63471
2.63085
2.63723
2.64025
2.64439
2.64631
2.64899
2.65163
2.6558
2.66023
2.66526
2.66866
2.67164
2.67272
2.67336
2.67434
2.67563
2.67733
2.67791
2.68003
2.68
2.68381
2.68522
2.6821
2.68
2.67035
1
1
1
1
1
1
1
1
1.00002
1.00003
1.00012
1.00018
1.00061
1.00116
1.0021
1.01079
1.00569
1.06475
1.13334
1.52355
2.18193
2.52182
2.65682
2.63824
2.63333
2.629
2.63583
2.63956
2.64444
2.64665
2.64749
2.64836
2.64922
2.6514
2.654
2.65774
2.66049
2.66326
2.66475
2.66498
2.66518
2.66541
2.66603
2.66839
2.6738
2.67436
2.67403
2.67364
2.66616
2.6652
1
1
1
1
1
1
1
1
1.00002
1.00003
1.00011
1.00016
1.00054
1.00122
1.00166
1.01064
1.00283
1.05518
1.12086
1.41842
2.03701
2.46261
2.65259
2.62668
2.62348
2.62009
2.62637
2.63265
2.64057
2.64513
2.6472
2.6483
2.6491
2.64914
2.64964
2.65026
2.65181
2.65236
2.65409
2.65504
2.65501
2.65401
2.65236
2.65013
2.65035
2.65454
2.65329
2.64902
2.64744
2.63191
1
1
1
1
1
1
1
1
1.00001
1.00002
1.00008
1.00013
1.00035
1.00098
1.00128
1.00912
1.0016
1.04535
1.10403
1.327
1.86407
2.35577
2.62759
2.62471
2.61304
2.60785
2.6104
2.61756
2.62588
2.63458
2.64123
2.64482
2.64694
2.64805
2.6479
2.64734
2.64632
2.64515
2.64287
2.64225
2.64076
2.64011
2.63869
2.63658
2.63405
2.62939
2.62918
2.62272
2.60739
2.60175
1
1
1
1
1
1
1
1
1.00001
1.00002
1.00004
1.00012
1.00014
1.00111
1.00182
1.01021
1.00652
1.03334
1.07621
1.26413
1.67396
2.23033
2.5755
2.61791
2.60952
2.60092
2.60102
2.60476
2.60966
2.61556
2.62308
2.63151
2.63843
2.64251
2.64371
2.64336
2.64216
2.63934
2.63637
2.63055
2.62732
2.62046
2.61673
2.6093
2.60344
2.59786
2.5854
2.57775
2.55188
2.45419
1
1
1
1
1
1
1
1
1
1
1.00002
1.00002
1.00017
1.00022
1.00131
1.00152
1.01254
1.00408
1.07029
1.15042
1.55706
2.24165
2.51968
2.6216
2.60972
2.60312
2.59699
2.60003
2.60156
2.60382
2.60586
2.60971
2.61496
2.62316
2.62978
2.63231
2.63213
2.63007
2.62619
2.62021
2.61226
2.60568
2.59243
2.58278
2.56356
2.54492
2.52245
2.47951
2.43342
2.32635
1
1
1
1
1
1
1
1
1
1
1.00001
1.00001
1.00014
1.0002
1.00125
1.00141
1.00993
1.00184
1.05182
1.11458
1.38017
1.96676
2.40494
2.60616
2.59479
2.5922
2.58496
2.58627
2.59047
2.59346
2.595
2.59613
2.59869
2.60122
2.60493
2.6081
2.60829
2.60739
2.60399
2.5996
2.59061
2.58124
2.56986
2.55146
2.5352
2.49972
2.47162
2.41626
2.34314
2.26889
1
1
1
1
1
1
1
1
1
1
1.00001
1.00001
1.0001
1.00015
1.00088
1.00099
1.00676
1.00143
1.03666
1.09023
1.27462
1.71181
2.25442
2.57369
2.59424
2.58537
2.5766
2.57181
2.57423
2.57599
2.5769
2.57703
2.57739
2.57728
2.57742
2.57847
2.57857
2.57772
2.57532
2.56935
2.56285
2.54813
2.53742
2.5158
2.49462
2.46705
2.42465
2.38782
2.31423
2.26861
1
1
1
1
1
1
1
1
1
1
1.00001
1.00001
1.00005
1.00005
1.00041
1.00056
1.00457
1.00142
1.02676
1.05044
1.19025
1.44823
2.02735
2.44363
2.56678
2.56307
2.56133
2.55563
2.55815
2.55906
2.55861
2.55706
2.55577
2.55311
2.55178
2.55132
2.55074
2.5495
2.54715
2.5421
2.53422
2.52334
2.50487
2.48899
2.45839
2.43699
2.39276
2.36429
2.30545
2.27091
1
1
1
1
1
1
1
1
1
1
1
1.00001
1.00003
1.00003
1.00024
1.00039
1.00176
1.00238
1.01119
1.01071
1.0978
1.25575
1.71815
2.41766
2.54661
2.54994
2.54362
2.53861
2.53489
2.53717
2.53706
2.53591
2.53386
2.52978
2.52569
2.52242
2.51907
2.5158
2.51195
2.50816
2.50033
2.49284
2.47616
2.46318
2.4347
2.41567
2.37703
2.34882
2.30492
2.27001
1
1
1
1
1
1
1
1
1
1
1
1.00001
1.00001
1.00007
1.00008
1.00051
1.0007
1.00533
1.00167
1.03069
1.05752
1.2125
1.50759
2.08168
2.48818
2.56235
2.55374
2.54293
2.53147
2.52716
2.52676
2.52555
2.52321
2.51872
2.51357
2.50663
2.49918
2.49178
2.48256
2.47604
2.4656
2.45863
2.44381
2.43342
2.41107
2.3944
2.36514
2.33863
2.30423
2.2726
1
1
1
1
1
1
1
1
1
1
1
1
1.00001
1.00004
1.00004
1.0003
1.00049
1.0026
1.00271
1.01369
1.01753
1.10964
1.27406
1.71396
2.37183
2.52348
2.53256
2.52714
2.51682
2.51106
2.50956
2.5089
2.50676
2.50354
2.49665
2.49058
2.4794
2.47241
2.45837
2.45054
2.43532
2.42714
2.41161
2.40129
2.38435
2.3683
2.34877
2.32542
2.30127
2.27254
1
1
1
1
1
1
1
1
1
1
1
1
1
1.00003
1.00003
1.00023
1.00029
1.00188
1.00202
1.01472
1.00119
1.08133
1.16366
1.57119
2.23569
2.46472
2.53859
2.52417
2.51727
2.50532
2.50144
2.50037
2.49818
2.49528
2.48773
2.48147
2.4682
2.45952
2.4441
2.43218
2.41646
2.40236
2.38744
2.37184
2.35778
2.34039
2.32523
2.30601
2.28697
2.26845
1
1
1
1
1
1
1
1
1
1
1
1
1.00001
1.00001
1.00004
1.0001
1.0004
1.00071
1.00172
1.00589
1.01447
1.04323
1.10549
1.32088
1.87214
2.24761
2.48073
2.49559
2.49077
2.4822
2.47912
2.47957
2.48046
2.48023
2.47755
2.47317
2.46325
2.45398
2.44074
2.4269
2.41132
2.39488
2.37837
2.36107
2.34409
2.32695
2.30916
2.29171
2.27157
2.25524
1
1
1
1
1
1
1
1
1
1
1
1
1
1
1.00003
1.00002
1.00022
1.00028
1.00176
1.00186
1.01407
1.00167
1.08019
1.15514
1.5608
2.20756
2.41868
2.4866
2.47376
2.47
2.46011
2.45566
2.45438
2.4524
2.45146
2.4502
2.44768
2.44297
2.43501
2.42425
2.41161
2.39687
2.38138
2.36446
2.3471
2.33005
2.31103
2.29348
2.27427
2.2583
1
1
1
1
1
1
1
1
1
1
1
1
1
1
1.00002
1.00002
1.00015
1.00019
1.00104
1.00083
1.00537
1.01711
1.03605
1.10515
1.29006
1.80747
2.19141
2.43435
2.45579
2.44736
2.44376
2.43773
2.43596
2.43368
2.43057
2.42692
2.42295
2.41816
2.41446
2.40955
2.40334
2.39484
2.38404
2.37127
2.35631
2.34005
2.32281
2.30439
2.2878
2.27353
1
1
1
1
1
1
1
1
1
1
1
1
1
1
1
1.00003
1.00002
1.00021
1.00023
1.00164
1.00166
1.01239
1.00067
1.07107
1.13398
1.50996
2.13383
2.33135
2.41721
2.42276
2.41859
2.41686
2.41744
2.41864
2.41837
2.41712
2.41501
2.41078
2.40766
2.40312
2.39798
2.39082
2.38263
2.3733
2.36162
2.34899
2.33618
2.32455
2.31427
2.30527
1
1
1
1
1
1
1
1
1
1
1
1
1
1
1.00001
1.00001
1.00005
1.00004
1.00033
1.00039
1.00255
1.00253
1.0186
1.00274
1.09583
1.18853
1.62288
2.24216
2.36731
2.38545
2.38362
2.37932
2.37522
2.37643
2.37996
2.38423
2.38928
2.3919
2.39287
2.39251
2.39124
2.38851
2.38298
2.37849
2.37259
2.36763
2.36347
2.35977
2.35555
2.35214
1
1
1
1
1
1
1
1
1
1
1
1
1
1
1
1.00001
1.00001
1.00006
1.00005
1.00049
1.00059
1.00378
1.00338
1.02338
1.00612
1.11327
1.26123
1.69063
2.2494
2.39888
2.39687
2.39044
2.37753
2.36882
2.3654
2.36494
2.3654
2.36642
2.36794
2.36923
2.37074
2.37372
2.37705
2.38073
2.38444
2.38744
2.39124
2.39308
2.39551
2.39647
1
1
1
1
1
1
1
1
1
1
1
1
1
1
1
1
1.00001
1.00003
1.00002
1.00023
1.00027
1.00158
1.00178
1.01257
1.00129
1.06557
1.12038
1.46705
2.02289
2.30115
2.39657
2.39592
2.38811
2.3788
2.37176
2.36926
2.3691
2.36976
2.37123
2.37417
2.3791
2.38505
2.39149
2.3971
2.40435
2.41091
2.41509
2.41932
2.42135
2.42223
1
1
1
1
1
1
1
1
1
1
1
1
1
1
1
1
1
1
1.00004
1.00003
1.00031
1.00031
1.00226
1.00226
1.01663
1.00052
1.0847
1.15753
1.55286
2.11694
2.32059
2.38301
2.38745
2.38803
2.38728
2.3867
2.3876
2.39057
2.39626
2.40377
2.41057
2.41756
2.42253
2.42776
2.43048
2.43247
2.43379
2.4326
2.42948
2.42565
1
1
1
1
1
1
1
1
1
1
1
1
1
1
1
1
1
1
1.00002
1.00007
1.00009
1.00029
1.00069
1.00198
1.00452
1.01313
1.0375
1.0786
1.2494
1.67306
2.04571
2.30488
2.37416
2.39645
2.40808
2.42203
2.43589
2.44835
2.45862
2.46441
2.46652
2.46504
2.46212
2.45699
2.45084
2.44261
2.43516
2.42726
2.4195
2.41229
1
1
1
1
1
1
1
1
1
1
1
1
1
1
1
1
1
1
1.00001
1.00002
1.00007
1.00011
1.00044
1.00077
1.00243
1.00523
1.01623
1.04439
1.09595
1.29625
1.79497
2.12821
2.33841
2.40989
2.44133
2.4624
2.48345
2.49796
2.50602
2.50761
2.50581
2.5021
2.49439
2.48551
2.47576
2.46534
2.45368
2.44186
2.43047
2.42092
1
1
1
1
1
1
1
1
1
1
1
1
1
1
1
1
1
1
1
1.00001
1.00001
1.00007
1.00005
1.00047
1.0006
1.00319
1.00421
1.01921
1.01704
1.14076
1.35588
1.79011
2.26421
2.48175
2.52664
2.52428
2.51454
2.50776
2.49921
2.49156
2.48396
2.47736
2.46994
2.46263
2.45501
2.44788
2.44091
2.43418
2.42747
2.42118
1
1
1
1
1
1
1
1
1
1
1
1
1
1
1
1
1
1
1
1.00001
1.00001
1.00004
1.00005
1.00022
1.00039
1.00121
1.00442
1.00567
1.03036
1.05353
1.24071
1.66105
2.13529
2.50204
2.61321
2.58785
2.57182
2.54161
2.51325
2.4945
2.48135
2.47098
2.46185
2.45352
2.44537
2.43785
2.43091
2.42465
2.41909
2.41471
1
1
1
1
1
1
1
1
1
1
1
1
1
1
1
1
1
1
1
1.00001
1.00001
1.00003
1.00005
1.00022
1.00031
1.00145
1.00183
1.00736
1.01538
1.0459
1.14013
1.39633
1.9031
2.57764
2.76722
2.70677
2.66416
2.61499
2.57982
2.55279
2.52857
2.50708
2.48898
2.4744
2.46237
2.45211
2.44302
2.43495
2.42737
2.42099
1
1
1
1
1
1
1
1
1
1
1
1
1
1
1
1
1
1
1
1
1.00001
1.00003
1.00005
1.00023
1.00031
1.00159
1.00112
1.01067
0.999233
1.04726
1.08279
1.41971
2.16139
2.49948
2.71798
2.68583
2.65832
2.63268
2.61081
2.59112
2.57511
2.5579
2.54135
2.52346
2.5065
2.49058
2.47604
2.46385
2.45201
2.44223
1
1
1
1
1
1
1
1
1
1
1
1
1
1
1
1
1
1
1
1
1.00001
1.00001
1.00003
1.00014
1.00015
1.00082
1.00069
1.0051
1.00132
1.04289
1.07204
1.3373
1.98519
2.36714
2.68816
2.68033
2.66474
2.6333
2.61743
2.6137
2.61298
2.6116
2.60798
2.59917
2.58243
2.56408
2.54505
2.52799
2.51296
2.49976
1
1
1
1
1
1
1
1
1
1
1
1
1
1
1
1
1
1
1
1
1.00001
1.00001
1.00003
1.00004
1.00019
1.00039
1.00076
1.00384
1.00286
1.032
1.0421
1.27896
1.80056
2.25386
2.69123
2.72678
2.70838
2.67877
2.66848
2.66888
2.66861
2.66601
2.6593
2.65005
2.64293
2.63324
2.62011
2.59968
2.58049
2.55996
1
1
1
1
1
1
1
1
1
1
1
1
1
1
1
1
1
1
1
1
1.00001
1.00002
1.00007
1.0001
1.00045
1.0006
1.00288
1.00292
1.01782
1.01051
1.09884
1.20627
1.7389
2.53698
2.769
2.76029
2.72299
2.68626
2.66827
2.65941
2.65205
2.64833
2.64627
2.64398
2.64165
2.63703
2.63268
2.62355
2.60843
2.58792
1
1
1
1
1
1
1
1
1
1
1
1
1
1
1
1
1
1
1
1
1.00001
1.00001
1.00006
1.00005
1.00031
1.00033
1.00236
1.00195
1.01594
1.01548
1.08558
1.15549
1.68846
2.47742
2.75472
2.74575
2.69921
2.6492
2.61938
2.60704
2.60235
2.60094
2.60164
2.60553
2.61486
2.6237
2.62792
2.62787
2.62655
2.62212
1
1
1
1
1
1
1
1
1
1
1
1
1
1
1
1
1
1
1
1
1.00001
1.00001
1.00005
1.00008
1.00036
1.00046
1.00243
1.00211
1.01625
1.00729
1.07408
1.1307
1.63554
2.41823
2.69509
2.69321
2.66133
2.61734
2.59788
2.59689
2.59937
2.60503
2.61089
2.61836
2.6279
2.6368
2.64306
2.64756
2.64993
2.64977
1
1
1
1
1
1
1
1
1
1
1
1
1
1
1
1
1
1
1
1
1
1
1.00002
1.00003
1.0001
1.0004
1.0007
1.00213
1.00734
1.01503
1.03962
1.13569
1.35423
1.9405
2.67923
2.79206
2.74147
2.69615
2.67361
2.66693
2.66307
2.66246
2.65986
2.65916
2.65889
2.65855
2.65818
2.65753
2.65595
2.65387
1
1
1
1
1
1
1
1
1
1
1
1
1
1
1
1
1
1
1
1
1
1
1.00002
1.00002
1.00016
1.00007
1.00091
1.00193
1.00443
1.01268
1.0313
1.12373
1.27819
1.87228
2.64496
2.78062
2.74804
2.73065
2.71732
2.71308
2.70682
2.68678
2.66502
2.64377
2.62936
2.62073
2.616
2.61399
2.61374
2.61594
1
1
1
1
1
1
1
1
1
1
1
1
1
1
1
1
1
1
1
1
1
1
1.00002
1.00002
1.00015
1.00014
1.00075
1.00106
1.00531
1.00777
1.03495
1.11392
1.2411
1.82803
2.60199
2.74833
2.74782
2.73549
2.7294
2.72058
2.70098
2.66714
2.63855
2.61189
2.59833
2.59295
2.59187
2.59342
2.59819
2.60857
1
1
1
1
1
1
1
1
1
1
1
1
1
1
1
1
1
1
1
1
1
1.00001
1.00001
1.00008
1.00008
1.00022
1.00071
1.00073
1.00543
1.00493
1.03424
1.10788
1.24494
1.79894
2.56116
2.75324
2.76233
2.75224
2.73434
2.70468
2.66823
2.63859
2.6152
2.60033
2.59491
2.59491
2.59942
2.61097
2.62325
2.6357
1
1
1
1
1
1
1
1
1
1
1
1
1
1
1
1
1
1
1
1
1
1.00001
1.00001
1.00008
1.00007
1.00033
1.00028
1.00268
1.00282
1.01451
1.02791
1.10067
1.23271
1.79396
2.56609
2.7867
2.78492
2.76328
2.70889
2.65768
2.62668
2.61079
2.60186
2.59909
2.6008
2.60922
2.62489
2.63865
2.64874
2.65459
1
1
1
1
1
1
1
1
1
1
1
1
1
1
1
1
1
1
1
1
1
1.00001
1.00001
1.00007
1.00008
1.00045
1.00053
1.0028
1.00202
1.01742
1.01465
1.09909
1.20669
1.80028
2.61185
2.82299
2.80612
2.73832
2.66242
2.62002
2.60401
2.59965
2.59941
2.60164
2.60867
2.62013
2.63234
2.64229
2.64944
2.65249
1
1
1
1
1
1
1
1
1
1
1
1
1
1
1
1
1
1
1
1
1
1.00001
1.00001
1.00005
1.00004
1.00024
1.00028
1.00242
1.00172
1.01927
0.997989
1.09721
1.20974
1.77098
2.66291
2.84538
2.79785
2.69739
2.63823
2.60823
2.60223
2.60271
2.60578
2.61092
2.6161
2.62317
2.6296
2.63532
2.63999
2.64169
1
1
1
1
1
1
1
1
1
1
1
1
1
1
1
1
1
1
1
1
1
1.00001
1.00001
1.00004
1.00007
1.00028
1.00046
1.00228
1.00158
1.01769
0.998327
1.08447
1.17668
1.74666
2.63718
2.84278
2.77419
2.68656
2.63405
2.60512
2.60126
2.60317
2.60928
2.61737
2.62454
2.63035
2.63453
2.63818
2.64049
2.64205
1
1
1
1
1
1
1
1
1
1
1
1
1
1
1
1
1
1
1
1
1
1.00001
1.00001
1.00003
1.00005
1.00018
1.00031
1.00166
1.00073
1.01389
0.986036
1.0737
1.13622
1.69895
2.55938
2.78965
2.73737
2.67256
2.62121
2.6021
2.60327
2.61009
2.6203
2.62932
2.63722
2.64445
2.64855
2.65246
2.65428
2.65841
1
1
1
1
1
1
1
1
1
1
1
1
1
1
1
1
1
1
1
1
1
1
1
1.00002
1.00002
1.00012
1.00017
1.00037
1.00283
1.00228
1.01669
1.03885
1.149
1.42899
2.0068
2.75056
2.84038
2.80195
2.72689
2.69208
2.68539
2.69034
2.69005
2.68393
2.66648
2.64639
2.63367
2.62946
2.62907
2.63191
1
1
1
1
1
1
1
1
1
1
1
1
1
1
1
1
1
1
1
1
1
1
1
1.00002
1.00002
1.00012
1.0002
1.00054
1.00215
1.00498
1.01265
1.03591
1.13224
1.3254
1.92907
2.66242
2.79359
2.75549
2.70369
2.6802
2.67984
2.68967
2.69599
2.6945
2.68271
2.65135
2.62006
2.59969
2.59101
2.58583
1
1
1
1
1
1
1
1
1
1
1
1
1
1
1
1
1
1
1
1
1
1
1.00001
1.00002
1.00003
1.00023
1.00027
1.00173
1.00092
1.01359
0.982886
1.06921
1.10916
1.58864
2.34503
2.61873
2.6821
2.65262
2.60733
2.599
2.60066
2.60851
2.62975
2.65782
2.6789
2.68742
2.68853
2.68743
2.68088
2.6704
1
1
1
1
1
1
1
1
1
1
1
1
1
1
1
1
1
1
1
1
1
1
1.00001
1
1.00006
1.00019
1.00021
1.00128
1.00153
1.00634
1.01246
1.04869
1.12325
1.34157
1.89516
2.64134
2.75747
2.71859
2.68683
2.67793
2.6806
2.69894
2.70958
2.7085
2.69576
2.66503
2.64159
2.62677
2.61968
2.61575
2.11495
2.55319
2.83336
3.06178
3.04641
3.0362
3.02716
3.01827
2.99258
2.97607
2.95764
2.9495
2.93634
2.93579
2.94046
2.94474
2.95387
2.9655
2.97352
2.98636
2.99277
3.004
3.00932
3.01684
3.02237
3.02495
3.02909
3.03182
3.03259
3.03268
3.03148
3.02847
3.02309
3.01745
3.00912
3.00302
2.99492
2.99002
2.97738
2.96658
2.95227
2.94348
2.92959
2.92099
2.90729
2.89881
2.88577
2.8776
2.86437
2.85557
2.84419
2.83443
2.82428
2.81388
2.80399
2.79442
2.78389
2.77464
2.76384
2.75507
2.74406
2.73567
2.72498
2.71624
2.70659
2.69738
2.68856
2.67947
2.67072
2.66232
2.65328
2.64528
2.63614
2.62824
2.61893
2.611
2.60194
2.59351
2.58485
2.5761
2.56759
2.55873
2.54995
2.54154
2.53192
2.52406
2.51384
2.50612
2.49594
2.48759
2.47848
2.46892
2.46134
2.4507
2.4441
2.43421
2.42749
2.42067
2.41506
2.4126
2.12731
2.35597
2.56715
2.87919
3.04726
3.14199
3.19067
3.27245
3.29523
3.3026
3.30359
3.30074
3.29067
3.29216
3.29052
3.29132
3.29518
3.29566
3.2983
3.30064
3.30072
3.29943
3.29418
3.28357
3.26967
3.25532
3.24289
3.22931
3.2173
3.2034
3.18876
3.17642
3.15846
3.14413
3.12703
3.11215
3.09458
3.07979
3.06155
3.04591
3.02687
3.0101
2.9903
2.97304
2.95354
2.93568
2.91639
2.89806
2.87895
2.85965
2.83914
2.81991
2.79948
2.78086
2.76067
2.74274
2.72318
2.70587
2.68755
2.67052
2.65378
2.63731
2.62194
2.60671
2.59214
2.57828
2.56434
2.55172
2.53849
2.52713
2.51461
2.50434
2.49286
2.48323
2.47297
2.46375
2.45457
2.44557
2.43732
2.42863
2.4208
2.4128
2.40492
2.3977
2.38975
2.3831
2.37523
2.36855
2.36132
2.35393
2.3477
2.33903
2.33399
2.3248
2.32013
2.31207
2.30677
2.30132
2.29652
2.29485
2.1727
2.26106
2.35612
2.46073
2.61364
2.82608
2.99508
3.15214
3.25339
3.27702
3.26181
3.26368
3.29301
3.31218
3.32383
3.32349
3.31082
3.29514
3.27635
3.25988
3.23532
3.21018
3.1858
3.16174
3.14357
3.12458
3.10838
3.09639
3.08005
3.06748
3.0537
3.04089
3.02725
3.013
2.99942
2.98535
2.97081
2.95841
2.94401
2.93091
2.91628
2.90315
2.88827
2.87448
2.85894
2.84626
2.83135
2.81686
2.79912
2.7831
2.76635
2.7509
2.7334
2.71657
2.69902
2.68268
2.66651
2.65034
2.63426
2.61755
2.60126
2.58497
2.56912
2.5539
2.53866
2.52414
2.50912
2.4948
2.47983
2.46547
2.45103
2.43675
2.42334
2.40937
2.39723
2.3836
2.37258
2.35933
2.34896
2.33636
2.32604
2.31452
2.30411
2.29375
2.28329
2.27416
2.26417
2.25605
2.24687
2.23945
2.23143
2.22469
2.218
2.21225
2.20684
2.20211
2.19851
2.19555
2.19468
2.19839
2.18555
2.19967
2.25083
2.3039
2.36096
2.46296
2.59304
2.73469
2.88699
3.00585
3.07857
3.1091
3.13101
3.13964
3.12316
3.09461
3.05794
3.02536
2.98392
2.95716
2.93872
2.92352
2.90192
2.88012
2.86006
2.84216
2.82505
2.81087
2.79478
2.78194
2.76541
2.75101
2.73425
2.71949
2.70398
2.69111
2.67738
2.66592
2.65244
2.642
2.62847
2.61855
2.60662
2.59617
2.58436
2.5753
2.56468
2.55534
2.54367
2.53336
2.5217
2.5113
2.49954
2.48902
2.47774
2.46751
2.45664
2.44653
2.43549
2.42551
2.41452
2.40515
2.39473
2.38617
2.37649
2.36878
2.3598
2.35266
2.34425
2.33718
2.32906
2.32172
2.31382
2.30632
2.29873
2.29133
2.28399
2.27689
2.2696
2.2627
2.25542
2.24815
2.2407
2.23242
2.22421
2.21481
2.20546
2.1954
2.18501
2.17493
2.16379
2.1548
2.1433
2.13544
2.12461
2.11735
2.10809
2.10167
2.09528
2.09167
2.20632
2.18234
2.19618
2.22061
2.24638
2.2886
2.34965
2.42876
2.52302
2.62363
2.70762
2.76999
2.80048
2.8079
2.79425
2.76275
2.73232
2.70504
2.68739
2.67451
2.66552
2.65849
2.64913
2.63846
2.62682
2.61612
2.60649
2.59533
2.58506
2.57309
2.56139
2.55007
2.53867
2.52855
2.51786
2.50914
2.49986
2.49297
2.4839
2.47642
2.46723
2.4607
2.45207
2.44489
2.43662
2.43109
2.42388
2.41794
2.40937
2.40226
2.39403
2.38778
2.38052
2.3747
2.3675
2.3614
2.35381
2.34758
2.33965
2.33326
2.32483
2.31814
2.3095
2.30267
2.29415
2.28725
2.27884
2.27176
2.26336
2.25607
2.2475
2.24
2.23124
2.2237
2.21494
2.2077
2.1992
2.19237
2.18382
2.17704
2.16834
2.16135
2.15226
2.14543
2.1365
2.13028
2.12238
2.11634
2.11023
2.10341
2.09904
2.09127
2.08747
2.07984
2.07599
2.06884
2.06535
2.05973
2.05634
2.05466
2.21198
2.18694
2.17303
2.17627
2.18574
2.20429
2.23384
2.27763
2.3313
2.39278
2.45052
2.50014
2.52739
2.52035
2.50615
2.48564
2.46281
2.43958
2.41771
2.41112
2.40423
2.40529
2.40581
2.40539
2.40336
2.40054
2.3959
2.3928
2.39023
2.38808
2.38528
2.38253
2.3801
2.37852
2.37668
2.37514
2.37266
2.37082
2.36774
2.36574
2.3622
2.35957
2.3557
2.35298
2.34948
2.34764
2.3442
2.34182
2.33749
2.33405
2.3296
2.32593
2.32163
2.31769
2.31333
2.30862
2.30355
2.29795
2.29239
2.2864
2.28047
2.27412
2.26784
2.26135
2.25489
2.2485
2.24171
2.23526
2.2281
2.22135
2.21387
2.20683
2.19898
2.19176
2.18372
2.17657
2.16831
2.16165
2.15355
2.14732
2.13916
2.1327
2.12412
2.11694
2.10764
2.09976
2.08957
2.08137
2.07077
2.06247
2.05258
2.04427
2.03547
2.02764
2.0192
2.01232
2.00413
1.99819
1.9919
1.9885
2.22372
2.19184
2.17309
2.16518
2.15969
2.16754
2.1849
2.209
2.24436
2.28677
2.32017
2.34156
2.36411
2.35285
2.3325
2.30554
2.28387
2.2704
2.2616
2.25043
2.24957
2.25422
2.26266
2.27439
2.28439
2.29029
2.29407
2.29693
2.29912
2.30176
2.30393
2.3055
2.3071
2.30794
2.30915
2.30933
2.3092
2.30876
2.30751
2.30612
2.30363
2.30208
2.29916
2.29708
2.29399
2.2921
2.28878
2.28627
2.28218
2.27876
2.27427
2.27037
2.26546
2.26102
2.25564
2.25077
2.2451
2.23991
2.23419
2.22881
2.22309
2.21767
2.21165
2.20623
2.19969
2.19421
2.18717
2.18133
2.17367
2.1674
2.15918
2.15257
2.1441
2.1374
2.12888
2.12263
2.11448
2.10891
2.10103
2.09587
2.08784
2.0827
2.07438
2.06894
2.0607
2.05462
2.04717
2.04011
2.03396
2.02597
2.021
2.01273
2.00859
2.0006
1.99662
1.9887
1.98462
1.97715
1.97353
1.96869
2.22356
2.20671
2.17919
2.16595
2.16
2.16216
2.17486
2.19871
2.22269
2.2487
2.27388
2.28387
2.27553
2.26014
2.23719
2.20946
2.18727
2.16823
2.15712
2.15213
2.14745
2.14839
2.15407
2.16384
2.17523
2.18496
2.19494
2.20341
2.20885
2.21297
2.21604
2.21925
2.22194
2.22442
2.22552
2.22635
2.22667
2.22723
2.22737
2.22731
2.22689
2.2263
2.22508
2.22396
2.22202
2.22085
2.21846
2.21672
2.21362
2.21102
2.20762
2.20431
2.20054
2.19679
2.19298
2.18928
2.1852
2.18165
2.17716
2.17355
2.16825
2.16421
2.15829
2.15406
2.14778
2.14327
2.13647
2.13169
2.1247
2.11977
2.11269
2.10735
2.10022
2.09451
2.08743
2.08133
2.0741
2.06728
2.05967
2.05219
2.0445
2.03687
2.02957
2.02202
2.01528
2.0077
2.00145
1.99381
1.98777
1.9803
1.97421
1.96711
1.9609
1.95419
1.94836
1.94256
1.93737
1.93302
1.92868
1.92733
2.22082
2.20748
2.19703
2.18426
2.17664
2.17746
2.18795
2.2056
2.22249
2.23895
2.24945
2.24523
2.23176
2.20648
2.17933
2.15241
2.1318
2.11172
2.09946
2.09117
2.08484
2.08347
2.0849
2.09001
2.10039
2.11164
2.12567
2.13714
2.14722
2.15657
2.16421
2.16928
2.17303
2.17621
2.17938
2.18188
2.1846
2.18662
2.18855
2.18995
2.19081
2.19083
2.19044
2.18934
2.18747
2.18603
2.18403
2.1826
2.18009
2.17819
2.17539
2.17285
2.1696
2.16656
2.16298
2.15971
2.15572
2.15212
2.14752
2.1436
2.13849
2.13426
2.12865
2.12399
2.11808
2.11316
2.10725
2.10196
2.09586
2.09
2.08379
2.07762
2.07137
2.06506
2.05862
2.05216
2.04518
2.03853
2.03083
2.0243
2.01632
2.01045
2.00288
1.99777
1.99085
1.98603
1.97962
1.97437
1.96841
1.96232
1.95673
1.94988
1.94427
1.937
1.93136
1.92393
1.91851
1.91148
1.9069
1.90222
2.22756
2.21586
2.21033
2.21085
2.21371
2.2188
2.23052
2.24089
2.24661
2.24792
2.23826
2.22262
2.20058
2.17526
2.15046
2.12522
2.10362
2.08449
2.06829
2.05744
2.04766
2.04528
2.04333
2.04427
2.0473
2.05453
2.0642
2.07683
2.09175
2.10532
2.11597
2.12433
2.13177
2.13728
2.14156
2.14462
2.14758
2.14997
2.15184
2.15352
2.15435
2.15592
2.15628
2.15712
2.15691
2.15694
2.15689
2.15665
2.15587
2.15489
2.15286
2.15094
2.14802
2.14529
2.14186
2.13886
2.13517
2.13211
2.12791
2.12451
2.11968
2.1159
2.11041
2.10621
2.10027
2.09595
2.08991
2.08545
2.07928
2.07443
2.06805
2.0629
2.05627
2.05092
2.04389
2.0384
2.03091
2.02533
2.01744
2.0117
2.00378
1.99786
1.99048
1.98431
1.97776
1.97108
1.9653
1.958
1.95283
1.94508
1.94022
1.93267
1.92783
1.92074
1.91584
1.9091
1.9045
1.8983
1.89434
1.89035
2.24849
2.2389
2.23845
2.24133
2.24896
2.25644
2.26332
2.26578
2.26098
2.25004
2.23361
2.21254
2.18928
2.16598
2.14282
2.11972
2.09875
2.07899
2.06103
2.04634
2.03321
2.02548
2.01965
2.01814
2.01887
2.02049
2.02525
2.03326
2.04353
2.05791
2.07185
2.08492
2.09564
2.10344
2.1088
2.1133
2.11675
2.11979
2.12208
2.12405
2.12628
2.12746
2.12879
2.1288
2.12857
2.12774
2.1269
2.12631
2.12507
2.1239
2.12148
2.11966
2.11677
2.11435
2.11099
2.10821
2.10434
2.10138
2.09691
2.09373
2.08855
2.08512
2.07949
2.07568
2.06957
2.06525
2.05902
2.05447
2.04836
2.04345
2.03724
2.03184
2.02559
2.01995
2.01367
2.00786
2.00133
1.99545
1.98867
1.98281
1.97595
1.97005
1.96337
1.95726
1.95101
1.94462
1.93868
1.93194
1.92589
1.91906
1.91271
1.90616
1.8997
1.89366
1.88751
1.88173
1.87626
1.87082
1.86655
1.86328
2.2907
2.2845
2.28471
2.28617
2.28966
2.29089
2.28734
2.2785
2.2652
2.24806
2.22782
2.20726
2.1856
2.16573
2.14471
2.12387
2.1047
2.08522
2.0669
2.05016
2.03438
2.02331
2.01225
2.00557
2.00057
1.99924
2.00015
2.00216
2.00684
2.01515
2.02582
2.03945
2.05289
2.06495
2.0747
2.08281
2.08844
2.09254
2.09584
2.09857
2.10082
2.10289
2.10425
2.10617
2.10664
2.10753
2.10745
2.10736
2.10703
2.10635
2.10496
2.10386
2.10156
2.09989
2.09681
2.09447
2.09065
2.08782
2.08341
2.0803
2.07534
2.07193
2.06663
2.06283
2.05723
2.0527
2.04671
2.04157
2.03545
2.02997
2.02366
2.01783
2.01128
2.00551
1.99889
1.99348
1.98656
1.98123
1.97375
1.96812
1.9603
1.9542
1.94673
1.94029
1.93384
1.92733
1.92204
1.91559
1.91085
1.90446
1.89956
1.89321
1.88804
1.88171
1.87664
1.87033
1.86567
1.85968
1.85585
1.85189
2.34818
2.34509
2.34119
2.33529
2.32856
2.31893
2.30214
2.28322
2.26598
2.24722
2.22831
2.20958
2.18979
2.17104
2.1511
2.13128
2.11162
2.09155
2.07225
2.05425
2.03752
2.02391
2.01016
2.00085
1.99271
1.98707
1.98363
1.98207
1.98264
1.98497
1.99081
1.99851
2.01198
2.02558
2.03925
2.05124
2.06053
2.0677
2.07305
2.07637
2.07917
2.08092
2.08315
2.08398
2.08492
2.08487
2.08454
2.08401
2.08354
2.083
2.0818
2.08064
2.07813
2.07634
2.07293
2.07055
2.06666
2.06404
2.05968
2.05674
2.05184
2.04831
2.04287
2.03881
2.03324
2.02878
2.02314
2.01827
2.01266
2.0076
2.00193
1.99666
1.99061
1.98523
1.97882
1.97358
1.96693
1.96171
1.95488
1.94948
1.94276
1.93713
1.93077
1.92483
1.91881
1.91253
1.9067
1.90026
1.8944
1.88805
1.882
1.87588
1.86984
1.86385
1.85843
1.85249
1.84808
1.84251
1.83923
1.83558
2.39775
2.39632
2.3914
2.38094
2.36324
2.34142
2.31792
2.29387
2.27314
2.25338
2.23417
2.21569
2.19718
2.17882
2.15979
2.14093
2.12115
2.1023
2.08252
2.0654
2.04693
2.03182
2.01581
2.00348
1.99152
1.98249
1.97665