/*--------------------------------*- C++ -*----------------------------------*\
| =========                 |                                                 |
| \\      /  F ield         | OpenFOAM: The Open Source CFD Toolbox           |
|  \\    /   O peration     | Version:  2112                                  |
|   \\  /    A nd           | Website:  www.openfoam.com                      |
|    \\/     M anipulation  |                                                 |
\*---------------------------------------------------------------------------*/
FoamFile
{
    version     2.0;
    format      ascii;
    arch        "LSB;label=32;scalar=64";
    class       volVectorField;
    location    "5.5005";
    object      U;
}
// * * * * * * * * * * * * * * * * * * * * * * * * * * * * * * * * * * * * * //

dimensions      [0 1 -1 0 0 0 0];

internalField   nonuniform List<vector> 
7000
(
(3 -5.80765e-07 0.000805021)
(3 -1.36988e-06 0.000764326)
(3 -1.91685e-06 0.000723861)
(3 -2.10396e-06 0.000683629)
(3 -1.93204e-06 0.00064363)
(3 -1.60367e-06 0.00060387)
(3 -1.30205e-06 0.000564362)
(3 -1.03218e-06 0.000525094)
(2.99999 -1.20431e-06 0.000486402)
(2.99995 -8.99208e-07 0.000448488)
(2.99982 1.7504e-07 0.000412659)
(2.9996 1.02369e-05 0.000377837)
(2.99895 8.80562e-06 0.000355544)
(2.99826 6.48201e-05 0.000320685)
(2.99813 0.000192459 0.000271757)
(2.97866 -0.000535226 0.000937416)
(2.96039 0.000646771 0.000944686)
(2.81631 -0.00253671 0.0060961)
(2.4413 -0.00876496 0.0105417)
(1.70532 -0.020059 0.0239449)
(0.791351 -0.0160009 0.0129385)
(0.614555 -0.0155352 0.00239886)
(0.674788 -0.00969393 -0.000947885)
(0.71867 -0.00620565 -0.000838874)
(0.714955 -0.00478228 -0.000312319)
(0.687572 -0.00402165 -0.000135148)
(0.647435 -0.00328179 -0.000122153)
(0.610708 -0.001997 -0.000316991)
(0.581062 -0.000276017 -0.000553455)
(0.552914 0.00155203 -0.000726466)
(0.522673 0.0033852 -0.000867773)
(0.489804 0.00524494 -0.00101098)
(0.455019 0.00708699 -0.00116135)
(0.419034 0.00871767 -0.00131403)
(0.382499 0.00984894 -0.00146531)
(0.346452 0.0103044 -0.00161376)
(0.312058 0.0101026 -0.00175988)
(0.280091 0.00948278 -0.00190353)
(0.250731 0.00879834 -0.00204527)
(0.223629 0.00836442 -0.00218609)
(0.198141 0.0083895 -0.0023272)
(0.173389 0.00902162 -0.00247055)
(0.148183 0.0103752 -0.00261954)
(0.121377 0.012628 -0.00277029)
(0.092138 0.0158739 -0.00292158)
(0.0586511 0.0191241 -0.00307282)
(0.0211094 0.0142757 -0.00321956)
(-0.00131208 0.00338876 -0.00336012)
(-0.00825721 -0.000177575 -0.00349124)
(-0.00663934 -0.0060628 -0.00361857)
(3 -6.11696e-07 0.000777211)
(3 -1.39676e-06 0.00073787)
(3 -1.92757e-06 0.000698757)
(3 -2.03376e-06 0.000659874)
(3 -1.70774e-06 0.000621223)
(3 -1.37072e-06 0.00058281)
(3 -1.12174e-06 0.000544645)
(3 -1.04614e-06 0.000506717)
(2.99999 -1.60744e-06 0.000469333)
(2.99995 -9.40987e-07 0.000432676)
(2.99984 2.20669e-06 0.000397911)
(2.99962 2.19959e-05 0.000364291)
(2.999 3.16854e-05 0.000341891)
(2.99837 0.000174236 0.000307206)
(2.99822 0.000456327 0.000261546)
(2.97968 2.51892e-05 0.000870762)
(2.96294 0.00202768 0.000857578)
(2.82199 0.000257246 0.00576498)
(2.46003 -0.000258563 0.00989726)
(1.73872 0.000474333 0.022963)
(0.807094 0.031555 0.012758)
(0.609825 0.0278484 0.00257324)
(0.666598 0.0306189 -0.000866306)
(0.709011 0.0321321 -0.000792314)
(0.703989 0.0318216 -0.000299858)
(0.674998 0.0310136 -0.000133058)
(0.632967 0.0304881 -0.000120568)
(0.594402 0.0309426 -0.000305394)
(0.563348 0.0320458 -0.000530664)
(0.534394 0.0332746 -0.000697012)
(0.50402 0.0344933 -0.000833845)
(0.471789 0.0357558 -0.000972014)
(0.438531 0.0370116 -0.00111627)
(0.404977 0.0379972 -0.0012622)
(0.371618 0.0383286 -0.0014066)
(0.339087 0.0378057 -0.00154831)
(0.307945 0.0364633 -0.0016878)
(0.278422 0.0346053 -0.00182509)
(0.250419 0.0326851 -0.0019609)
(0.223639 0.0311278 -0.00209612)
(0.197746 0.0302223 -0.00223174)
(0.17229 0.0301822 -0.00237018)
(0.146634 0.0311439 -0.00251287)
(0.120354 0.0332198 -0.00265565)
(0.0937119 0.0362004 -0.0027967)
(0.0669522 0.0386711 -0.00293703)
(0.0411424 0.0355698 -0.00307652)
(0.0193653 0.0219598 -0.0032168)
(0.000303748 0.00519838 -0.00335453)
(-0.0015409 -0.00892715 -0.00347916)
(3 -6.42395e-08 0.000748287)
(3 -7.2107e-08 0.00071036)
(3 -1.52915e-07 0.000672657)
(3 -1.65178e-07 0.000635181)
(3 -4.67612e-08 0.000597936)
(3 7.20695e-08 0.000560925)
(3 1.71493e-07 0.000524159)
(3 -5.95961e-08 0.000487628)
(2.99999 -5.93133e-07 0.000451612)
(2.99995 -4.70486e-07 0.000416296)
(2.99984 3.12809e-06 0.000382718)
(2.99963 1.73982e-05 0.000350454)
(2.99905 1.95621e-05 0.00032748)
(2.99849 7.71086e-05 0.000292875)
(2.99844 0.000185582 0.000248304)
(2.98028 -0.000502646 0.000827144)
(2.96416 0.000996804 0.000801205)
(2.82526 -0.00172059 0.00546674)
(2.47203 -0.00382805 0.00934775)
(1.76222 -0.00624535 0.0219414)
(0.81745 0.0240568 0.0125165)
(0.601811 0.0178607 0.00267023)
(0.659152 0.0230233 -0.000842263)
(0.701727 0.0285606 -0.000768968)
(0.695823 0.0316122 -0.000290114)
(0.665928 0.0334914 -0.00013132)
(0.623321 0.0348616 -0.000122101)
(0.584571 0.0372409 -0.000299248)
(0.553522 0.0405209 -0.000512563)
(0.524707 0.0440761 -0.000670628)
(0.494673 0.0476405 -0.000801761)
(0.463077 0.0511493 -0.000934091)
(0.430816 0.0543838 -0.00107169)
(0.398628 0.0568695 -0.00121017)
(0.366972 0.0580803 -0.00134672)
(0.336338 0.0578378 -0.00148084)
(0.307014 0.0563578 -0.00161299)
(0.278979 0.0542096 -0.00174352)
(0.251988 0.0520904 -0.00187315)
(0.225724 0.0505839 -0.00200257)
(0.199973 0.0500328 -0.00213251)
(0.174514 0.0506167 -0.00226525)
(0.149039 0.0523811 -0.00240159)
(0.123552 0.0552171 -0.00253774)
(0.0986461 0.0585061 -0.00267138)
(0.0748961 0.0601975 -0.00280358)
(0.0530035 0.0554247 -0.00293508)
(0.0335805 0.040755 -0.00306847)
(0.0137039 0.0190482 -0.00320577)
(0.0021044 -0.00703776 -0.00333858)
(3 -3.97868e-08 0.000718202)
(3 7.03937e-08 0.00068175)
(3 4.94256e-08 0.000645518)
(3 1.62601e-07 0.00060951)
(3 1.59087e-07 0.000573727)
(3 2.14903e-07 0.000538176)
(3 2.09623e-07 0.00050287)
(3 -2.43195e-07 0.000467791)
(2.99999 -1.81529e-06 0.000433198)
(2.99995 3.90282e-06 0.00039926)
(2.99985 2.83455e-06 0.000366942)
(2.99964 5.81609e-05 0.00033603)
(2.99905 4.60297e-05 0.00031432)
(2.99847 0.000253827 0.000281544)
(2.99829 -0.000558765 0.000241248)
(2.98092 -0.00292625 0.00076498)
(2.96595 -0.000800847 0.000725983)
(2.82964 -0.00625489 0.00514459)
(2.48824 -0.000947035 0.00873216)
(1.79401 0.00278831 0.0208132)
(0.833859 0.0461382 0.0122832)
(0.594987 0.0420138 0.00279512)
(0.65113 0.0485064 -0.000799506)
(0.693277 0.0543958 -0.000729652)
(0.686756 0.0574668 -0.000269895)
(0.656564 0.0590765 -0.000120685)
(0.614149 0.0597672 -0.000116193)
(0.576057 0.0615699 -0.000289055)
(0.545483 0.0645385 -0.000490671)
(0.516896 0.0679963 -0.000640038)
(0.487094 0.0715956 -0.000765457)
(0.455971 0.0751757 -0.000892263)
(0.424522 0.0784039 -0.00102377)
(0.393457 0.0806948 -0.00115531)
(0.363173 0.0815246 -0.00128437)
(0.334032 0.0807772 -0.00141135)
(0.306125 0.0787896 -0.00153664)
(0.279278 0.0762365 -0.00166069)
(0.253188 0.0738679 -0.00178413)
(0.227563 0.0722803 -0.00190741)
(0.202274 0.0718016 -0.0020311)
(0.177232 0.0725189 -0.00215793)
(0.152306 0.0743727 -0.00228782)
(0.127668 0.077061 -0.00241665)
(0.103929 0.0796745 -0.00254277)
(0.0816609 0.080002 -0.00266755)
(0.0612181 0.0739222 -0.00279241)
(0.042606 0.058664 -0.00291956)
(0.0238662 0.0358085 -0.00305138)
(0.00818238 0.00592945 -0.00318744)
(3 -3.88896e-09 0.000686908)
(3 2.17459e-07 0.000651994)
(3 3.9205e-07 0.000617296)
(3 7.26315e-07 0.000582818)
(3 8.18485e-07 0.000548562)
(3 8.40561e-07 0.000514532)
(3 7.34498e-07 0.000480742)
(3 8.65489e-07 0.000447183)
(2.99999 -1.17706e-06 0.000413992)
(2.99996 3.74012e-06 0.000381587)
(2.99988 -1.09724e-06 0.000349951)
(2.99967 5.63074e-05 0.000320826)
(2.99918 3.40694e-05 0.000299183)
(2.99816 0.000360883 0.000278749)
(2.99701 -0.000623731 0.000265066)
(2.9809 -0.00283289 0.000693647)
(2.96587 -0.00110367 0.000690961)
(2.83237 -0.00737564 0.0047013)
(2.50548 0.000784498 0.00808034)
(1.82484 0.00820093 0.0196789)
(0.848347 0.0630523 0.012112)
(0.584477 0.0553477 0.00293709)
(0.642829 0.0606624 -0.000762624)
(0.686804 0.0670439 -0.000697177)
(0.680959 0.071317 -0.000255448)
(0.650886 0.0740442 -0.000112761)
(0.608729 0.0756956 -0.000113129)
(0.571157 0.0785422 -0.000281737)
(0.540742 0.0827197 -0.000471463)
(0.511966 0.087435 -0.0006114)
(0.481992 0.0921997 -0.000730349)
(0.451008 0.0967102 -0.000851074)
(0.420087 0.100518 -0.000975698)
(0.389889 0.102979 -0.00109977)
(0.36072 0.103679 -0.0012212)
(0.332787 0.102644 -0.00134086)
(0.306018 0.100371 -0.00145905)
(0.280136 0.0976486 -0.00157625)
(0.254822 0.0952727 -0.00169307)
(0.229823 0.093818 -0.00181018)
(0.205047 0.0935525 -0.00192786)
(0.180477 0.0944461 -0.00204783)
(0.156083 0.0963252 -0.0021707)
(0.132079 0.0987139 -0.00229312)
(0.109022 0.100539 -0.00241268)
(0.0873853 0.0996636 -0.00253078)
(0.0672606 0.0926529 -0.00264908)
(0.048407 0.0770807 -0.00276967)
(0.0288353 0.0537911 -0.00289489)
(0.0121349 0.0239292 -0.0030263)
(3 9.55948e-09 0.00065435)
(3 2.19549e-07 0.000621041)
(3 4.84471e-07 0.000587944)
(3 8.19278e-07 0.000555062)
(3 1.09094e-06 0.000522397)
(3 1.32516e-06 0.000489952)
(3 1.52538e-06 0.000457733)
(3 2.23092e-06 0.000425755)
(2.99999 1.37845e-06 0.000394128)
(2.99996 3.55574e-07 0.000363249)
(2.99988 -6.03782e-07 0.000332947)
(2.99968 1.21705e-05 0.000305547)
(2.99926 -8.36672e-06 0.000281602)
(2.99813 0.000151477 0.000269152)
(2.99683 -0.000259177 0.000258791)
(2.98141 -0.000905971 0.000640886)
(2.96694 0.000124049 0.000635036)
(2.83752 -0.00201403 0.0043287)
(2.52752 0.00339974 0.00737933)
(1.86872 0.0146954 0.018355)
(0.87362 0.084196 0.0119317)
(0.580158 0.0726761 0.00310305)
(0.639381 0.0770579 -0.000733673)
(0.684173 0.0844725 -0.00067146)
(0.677868 0.0896672 -0.000241152)
(0.646868 0.0931028 -0.0001023)
(0.604195 0.0952725 -0.000107388)
(0.566715 0.0987563 -0.000272449)
(0.536263 0.103656 -0.000450589)
(0.507283 0.10908 -0.000581223)
(0.477293 0.114444 -0.000693737)
(0.446719 0.119344 -0.000808134)
(0.416609 0.123247 -0.000925546)
(0.387492 0.125523 -0.00104209)
(0.359539 0.125877 -0.00115606)
(0.33279 0.124484 -0.00126829)
(0.307052 0.12196 -0.00137936)
(0.282 0.119168 -0.00148978)
(0.257333 0.116894 -0.00160017)
(0.232855 0.115671 -0.00171073)
(0.208505 0.115655 -0.00182231)
(0.184331 0.116729 -0.00193568)
(0.160355 0.118602 -0.00205076)
(0.136737 0.120683 -0.00216573)
(0.11394 0.121831 -0.00227855)
(0.0923389 0.120053 -0.00239011)
(0.0718663 0.112454 -0.00250219)
(0.0522443 0.0968896 -0.00261687)
(0.0313548 0.0738932 -0.00273554)
(0.0133569 0.0454895 -0.00285849)
(3 1.48442e-08 0.000620474)
(3 2.19757e-07 0.000588841)
(3 5.40733e-07 0.000557413)
(3 9.44171e-07 0.000526196)
(3 1.35282e-06 0.00049519)
(3 1.73837e-06 0.000464397)
(3 2.11262e-06 0.000433824)
(3 2.51622e-06 0.000403488)
(2.99999 1.65238e-06 0.000373485)
(2.99996 -6.71755e-08 0.00034419)
(2.99989 -1.95046e-06 0.000315437)
(2.99968 -1.6884e-06 0.000289686)
(2.9993 -1.40685e-05 0.000264658)
(2.99806 -3.03446e-07 0.000261818)
(2.99677 -8.70176e-05 0.000220673)
(2.98184 -0.00101219 0.000602359)
(2.96891 0.00127196 0.000566751)
(2.84403 -0.000718326 0.0039982)
(2.55219 0.00836824 0.00667771)
(1.91954 0.0238855 0.0168914)
(0.902026 0.105414 0.0117674)
(0.573911 0.0907541 0.00329399)
(0.635046 0.09482 -0.00071255)
(0.681087 0.103324 -0.000650217)
(0.673962 0.108957 -0.000225306)
(0.64175 0.112756 -9.10715e-05)
(0.59847 0.115398 -0.000101529)
(0.561226 0.119631 -0.000263221)
(0.530991 0.125296 -0.000429487)
(0.502197 0.131351 -0.000550652)
(0.472707 0.137145 -0.000656249)
(0.44309 0.142211 -0.000763869)
(0.414262 0.145998 -0.000873781)
(0.386555 0.147966 -0.000982578)
(0.359982 0.147957 -0.00108898)
(0.33443 0.146289 -0.00119383)
(0.309634 0.143669 -0.00129779)
(0.285266 0.140959 -0.0014015)
(0.261087 0.138916 -0.00150506)
(0.236959 0.137982 -0.00160929)
(0.212867 0.138249 -0.0017134)
(0.188911 0.139537 -0.00181928)
(0.165123 0.141451 -0.00192788)
(0.141628 0.14331 -0.00203644)
(0.118786 0.143968 -0.00214279)
(0.0968645 0.141594 -0.00224782)
(0.0757037 0.133735 -0.00235304)
(0.0550995 0.11851 -0.00246085)
(0.0328737 0.096271 -0.00257302)
(0.0136627 0.069158 -0.00268885)
(3 1.62985e-08 0.000585223)
(3 2.11456e-07 0.000555339)
(3 5.24277e-07 0.000525654)
(3 9.49251e-07 0.000496173)
(3 1.38074e-06 0.000466896)
(3 1.90755e-06 0.000437826)
(3 2.44333e-06 0.000408967)
(3 3.01111e-06 0.000380345)
(2.99999 2.27889e-06 0.000352036)
(2.99996 4.82892e-07 0.000324388)
(2.99989 4.6424e-07 0.000297219)
(2.99968 1.52173e-06 0.000272945)
(2.99929 1.75524e-05 0.000249953)
(2.99814 5.20152e-05 0.000243784)
(2.99659 0.000227399 0.000229427)
(2.98299 -0.000516966 0.00053051)
(2.97084 0.00244224 0.000506064)
(2.85079 0.000353696 0.00357133)
(2.57843 0.0115249 0.00594097)
(1.97697 0.0334546 0.0154196)
(0.935942 0.127955 0.0116773)
(0.565996 0.111044 0.00347019)
(0.629796 0.115028 -0.00070011)
(0.677608 0.12407 -0.000629987)
(0.669495 0.12952 -0.000206872)
(0.636115 0.133342 -8.03956e-05)
(0.592419 0.136461 -9.6447e-05)
(0.555686 0.141403 -0.000253929)
(0.525978 0.147597 -0.000407612)
(0.497809 0.153948 -0.000518898)
(0.469341 0.159841 -0.000617357)
(0.44116 0.164818 -0.000718008)
(0.413967 0.168356 -0.000820321)
(0.387862 0.170016 -0.000921298)
(0.362702 0.16977 -0.00102007)
(0.338266 0.168031 -0.00111756)
(0.314241 0.16554 -0.00121424)
(0.29035 0.163111 -0.00131067)
(0.266421 0.161453 -0.00140734)
(0.242401 0.160922 -0.00150461)
(0.218357 0.161536 -0.00160326)
(0.194421 0.163096 -0.00170136)
(0.170605 0.165145 -0.00180235)
(0.146971 0.166947 -0.00190415)
(0.123802 0.167363 -0.00200395)
(0.101299 0.164711 -0.00210248)
(0.0792685 0.156864 -0.00220161)
(0.0576386 0.14215 -0.0023023)
(0.0342607 0.120787 -0.00240561)
(0.0140643 0.0947364 -0.00251212)
(3 1.70795e-08 0.000548536)
(3 1.96119e-07 0.000520478)
(3 5.07491e-07 0.000492613)
(3 9.12473e-07 0.000464944)
(3 1.42518e-06 0.000437471)
(3 2.02491e-06 0.000410197)
(3 2.65451e-06 0.000383126)
(3 3.33679e-06 0.000356286)
(2.99999 2.71092e-06 0.000329739)
(2.99996 9.51096e-07 0.00030377)
(2.99989 1.26941e-06 0.000278228)
(2.9997 2.04529e-06 0.000255202)
(2.99937 2.05653e-05 0.000232813)
(2.99826 7.40714e-05 0.00022641)
(2.99679 0.000175069 0.000213643)
(2.984 -0.00018047 0.000469416)
(2.97318 0.00241561 0.000414023)
(2.85809 0.00155054 0.00324824)
(2.60967 0.0135832 0.00519011)
(2.0432 0.0427084 0.0138902)
(0.969612 0.1526 0.0115966)
(0.555453 0.133666 0.00365462)
(0.623726 0.137721 -0.000685737)
(0.673837 0.146272 -0.000605201)
(0.664883 0.151059 -0.000186341)
(0.63099 0.154692 -7.21237e-05)
(0.587651 0.158394 -9.32766e-05)
(0.551997 0.163873 -0.000243452)
(0.523256 0.170207 -0.000383356)
(0.496153 0.176473 -0.000485394)
(0.46909 0.182191 -0.000577188)
(0.442583 0.18693 -0.000670814)
(0.417077 0.190201 -0.00076528)
(0.392471 0.191658 -0.000858215)
(0.368506 0.191398 -0.000949041)
(0.3449 0.189866 -0.00103879)
(0.321341 0.187778 -0.00112821)
(0.297632 0.185883 -0.00121772)
(0.273697 0.184761 -0.00130813)
(0.249526 0.184745 -0.00139836)
(0.225279 0.185802 -0.00148853)
(0.201113 0.187692 -0.00158102)
(0.177022 0.189946 -0.00167415)
(0.153027 0.191825 -0.00176824)
(0.129316 0.192211 -0.00186081)
(0.106026 0.189547 -0.00195215)
(0.0829547 0.181974 -0.00204411)
(0.0601578 0.167945 -0.00213876)
(0.0355564 0.147534 -0.00223626)
(0.0144364 0.122423 -0.0023357)
(3 2.05827e-08 0.000510349)
(3 1.74858e-07 0.000484199)
(3 4.83143e-07 0.000458233)
(3 8.3988e-07 0.000432455)
(3 1.38389e-06 0.000406864)
(3 1.95446e-06 0.000381464)
(3 2.55046e-06 0.000356257)
(3 3.16393e-06 0.000331276)
(2.99999 2.83025e-06 0.00030657)
(2.99996 2.06166e-06 0.00028239)
(2.99989 4.08325e-06 0.000258608)
(2.99971 7.55251e-06 0.000237098)
(2.99938 3.2968e-05 0.00021626)
(2.99831 5.71074e-05 0.000209865)
(2.99679 0.000243213 0.000198394)
(2.98518 4.9027e-05 0.000409078)
(2.97569 0.00270685 0.000354629)
(2.86696 0.00124838 0.00285262)
(2.64485 0.0201047 0.00440785)
(2.11944 0.0530774 0.0122932)
(1.00827 0.179747 0.0115685)
(0.544078 0.160344 0.00381305)
(0.616845 0.163927 -0.000663095)
(0.66981 0.168665 -0.000574407)
(0.661233 0.172367 -0.000168721)
(0.628411 0.175834 -6.81559e-05)
(0.586781 0.180595 -9.14783e-05)
(0.552843 0.18649 -0.000230312)
(0.525451 0.192662 -0.000356991)
(0.499703 0.198622 -0.000450912)
(0.47413 0.204053 -0.000535674)
(0.44912 0.208525 -0.000621483)
(0.424917 0.211607 -0.000707449)
(0.40133 0.213095 -0.000791991)
(0.378058 0.213127 -0.000875263)
(0.3548 0.21214 -0.000957831)
(0.331306 0.210743 -0.00104046)
(0.307416 0.209615 -0.00112301)
(0.283163 0.209206 -0.00120583)
(0.258603 0.209787 -0.00128999)
(0.2339 0.211374 -0.00137284)
(0.209258 0.213684 -0.00145709)
(0.184649 0.216254 -0.00154426)
(0.160061 0.21836 -0.00163034)
(0.135601 0.218927 -0.0017158)
(0.111372 0.216491 -0.00180072)
(0.0871813 0.20935 -0.00188577)
(0.0631912 0.196072 -0.00197143)
(0.0373134 0.176589 -0.00205942)
(0.0150775 0.152257 -0.00214965)
(3 1.97884e-08 0.000470595)
(3 1.60892e-07 0.000446438)
(3 4.42767e-07 0.000422457)
(3 7.74514e-07 0.000398652)
(3 1.26622e-06 0.000375026)
(3 1.77449e-06 0.000351581)
(3 2.29488e-06 0.000328317)
(3 2.79292e-06 0.000305268)
(2.99999 2.77512e-06 0.00028247)
(2.99996 2.9396e-06 0.000260129)
(2.9999 7.70433e-06 0.000238138)
(2.99973 1.64709e-05 0.000218053)
(2.99944 5.72053e-05 0.000198485)
(2.99848 0.000115531 0.000191007)
(2.99715 0.000352218 0.000178763)
(2.98635 0.000383978 0.000358865)
(2.97757 0.00233134 0.000309222)
(2.87816 -0.001084 0.0024155)
(2.68371 0.028199 0.0036363)
(2.2058 0.0589224 0.010547)
(1.0634 0.207154 0.0115528)
(0.547716 0.195796 0.00394708)
(0.618666 0.198253 -0.00060343)
(0.672743 0.19263 -0.000536465)
(0.66646 0.193349 -0.000171248)
(0.635602 0.196051 -7.43781e-05)
(0.595793 0.202351 -9.25979e-05)
(0.562572 0.208752 -0.000212346)
(0.535726 0.214742 -0.000327656)
(0.510724 0.220401 -0.000414093)
(0.485981 0.225583 -0.000491205)
(0.461687 0.229918 -0.000568865)
(0.43801 0.23304 -0.000647099)
(0.414723 0.234856 -0.000724077)
(0.391503 0.23548 -0.000799918)
(0.368055 0.235313 -0.000875169)
(0.344211 0.23485 -0.000950313)
(0.319865 0.234628 -0.00102615)
(0.295039 0.235074 -0.00110175)
(0.269903 0.23636 -0.00117762)
(0.244573 0.238529 -0.00125444)
(0.219225 0.241335 -0.00132999)
(0.193897 0.244344 -0.00140809)
(0.168503 0.246847 -0.00148801)
(0.143089 0.247808 -0.00156566)
(0.117696 0.245849 -0.00164279)
(0.0921272 0.23938 -0.00172083)
(0.0666608 0.22699 -0.00180102)
(0.0392569 0.208486 -0.00188261)
(0.0157719 0.184927 -0.00196566)
(3 1.60503e-08 0.000429205)
(3 1.48912e-07 0.000407131)
(3 3.9791e-07 0.000385222)
(3 7.00992e-07 0.000363479)
(3 1.13208e-06 0.000341904)
(3 1.57255e-06 0.000320498)
(3 2.01382e-06 0.000299262)
(3 2.41829e-06 0.000278227)
(2.99999 2.27222e-06 0.000257422)
(2.99996 2.20685e-06 0.000237015)
(2.99991 5.94218e-06 0.000216929)
(2.99975 1.2819e-05 0.000198404)
(2.99948 4.55714e-05 0.000180633)
(2.99858 8.90616e-05 0.000171901)
(2.99733 0.000268326 0.000164456)
(2.98721 0.000229131 0.000311994)
(2.97791 0.00202769 0.000326828)
(2.8919 -0.00125803 0.00189041)
(2.72335 0.0295209 0.00290508)
(2.29951 0.0592095 0.00869405)
(1.15383 0.195463 0.0114516)
(0.590474 0.226852 0.00405085)
(0.638379 0.233533 -0.000442003)
(0.68508 0.217736 -0.000469199)
(0.682837 0.21561 -0.000200625)
(0.654326 0.217292 -9.462e-05)
(0.615579 0.224884 -9.84515e-05)
(0.581052 0.231693 -0.000189475)
(0.55337 0.237438 -0.000295045)
(0.528205 0.242773 -0.000375714)
(0.50354 0.247763 -0.000445967)
(0.47926 0.252091 -0.000515701)
(0.45546 0.255434 -0.000585716)
(0.431899 0.257723 -0.000654948)
(0.408267 0.2591 -0.000723148)
(0.384314 0.25987 -0.000791162)
(0.359867 0.260457 -0.000858875)
(0.334908 0.261246 -0.000926864)
(0.309437 0.262611 -0.000995569)
(0.283591 0.264706 -0.00106367)
(0.257539 0.267535 -0.00113231)
(0.231369 0.270928 -0.00120174)
(0.205144 0.27449 -0.00127047)
(0.178772 0.27759 -0.00134148)
(0.152201 0.2792 -0.00141333)
(0.125479 0.277963 -0.00148322)
(0.098396 0.272365 -0.00155307)
(0.0712705 0.261027 -0.00162359)
(0.0420126 0.24358 -0.00169605)
(0.0168323 0.220767 -0.00176992)
(3 1.05729e-08 0.000386103)
(3 1.40061e-07 0.000366207)
(3 3.49201e-07 0.000346464)
(3 6.62056e-07 0.000326875)
(3 9.14368e-07 0.000307441)
(3 1.1189e-06 0.000288163)
(3 1.24718e-06 0.000269042)
(3 1.22028e-06 0.000250108)
(2.99999 6.41284e-07 0.000231378)
(2.99996 3.95875e-07 0.00021299)
(2.99992 3.10589e-06 0.000194879)
(2.99977 8.62423e-06 0.000178066)
(2.99953 3.54303e-05 0.000161842)
(2.99871 7.38938e-05 0.000153212)
(2.9976 0.00022334 0.000145129)
(2.9883 0.00033204 0.000265994)
(2.97947 0.00236817 0.000281656)
(2.90442 0.00219244 0.00148828)
(2.76134 0.025255 0.00227562)
(2.37676 0.055526 0.00719755)
(1.25245 0.160884 0.0107194)
(0.641674 0.261963 0.00402224)
(0.642919 0.263711 -8.66706e-05)
(0.684644 0.244665 -0.000370926)
(0.694333 0.240685 -0.000245904)
(0.672622 0.241068 -0.000121237)
(0.637491 0.24857 -0.000106925)
(0.60218 0.255762 -0.000163808)
(0.573805 0.261265 -0.000259662)
(0.548627 0.266209 -0.000335375)
(0.524074 0.270999 -0.000398216)
(0.4997 0.275391 -0.000459637)
(0.475595 0.279086 -0.000521375)
(0.451629 0.282 -0.000583271)
(0.42751 0.284265 -0.000644484)
(0.403033 0.286095 -0.000705024)
(0.378042 0.287811 -0.000766013)
(0.352516 0.289722 -0.000826501)
(0.326488 0.292095 -0.000887384)
(0.3 0.295106 -0.000948259)
(0.273207 0.298754 -0.00100867)
(0.246203 0.302903 -0.00106976)
(0.218995 0.307199 -0.00113188)
(0.191509 0.311071 -0.00119336)
(0.163593 0.313602 -0.00125557)
(0.135208 0.31346 -0.00131862)
(0.1062 0.309101 -0.00138149)
(0.0769607 0.299088 -0.00144568)
(0.0453703 0.282911 -0.00151091)
(0.0180895 0.260963 -0.00157798)
(3 1.25799e-08 0.000341213)
(3 1.17483e-07 0.000323595)
(3 3.13426e-07 0.000306115)
(3 5.70907e-07 0.000288777)
(3 8.4547e-07 0.000271579)
(3 1.11143e-06 0.000254523)
(3 8.13883e-07 0.00023761)
(3 1.54783e-07 0.000220866)
(2.99999 -8.41776e-07 0.000204302)
(2.99997 -1.3437e-06 0.000188033)
(2.99992 8.33357e-07 0.000172)
(2.99979 5.02862e-06 0.000157077)
(2.99956 2.94207e-05 0.000142514)
(2.99879 5.32957e-05 0.000135119)
(2.99786 0.000220827 0.00012138)
(2.9895 0.000240981 0.00022271)
(2.98217 0.0030113 0.000201351)
(2.91645 0.0037459 0.00116686)
(2.79537 0.0252814 0.00178181)
(2.45019 0.0527481 0.00570389)
(1.39146 0.151861 0.00936272)
(0.727722 0.30476 0.00404341)
(0.64302 0.291598 0.000406337)
(0.68427 0.271904 -0.000324484)
(0.703635 0.265723 -0.000267005)
(0.689391 0.266394 -0.000141764)
(0.659493 0.272391 -0.000116982)
(0.624326 0.280106 -0.000141937)
(0.595103 0.285758 -0.000222187)
(0.570008 0.29058 -0.000293859)
(0.545822 0.29533 -0.000350877)
(0.521619 0.299899 -0.000403983)
(0.497441 0.304045 -0.00045759)
(0.473281 0.307677 -0.000511123)
(0.448924 0.310887 -0.000564548)
(0.424162 0.313841 -0.000617421)
(0.398882 0.316762 -0.000670075)
(0.373029 0.319894 -0.000723224)
(0.346624 0.323429 -0.000776079)
(0.319686 0.327522 -0.00082924)
(0.292263 0.33221 -0.000881804)
(0.264431 0.337381 -0.00093429)
(0.236193 0.342768 -0.000987725)
(0.207453 0.3478 -0.00104299)
(0.17806 0.351596 -0.00109724)
(0.147868 0.35292 -0.00115063)
(0.116623 0.350229 -0.00120468)
(0.0847824 0.341981 -0.00125945)
(0.0501902 0.32738 -0.00131563)
(0.020009 0.306398 -0.00137244)
(3 2.35274e-08 0.000294452)
(3 8.22178e-08 0.000279216)
(3 2.95849e-07 0.000264104)
(3 4.38646e-07 0.000249116)
(3 7.94304e-07 0.000234254)
(3 9.93828e-07 0.000219521)
(3 1.27079e-06 0.000204913)
(3 -4.13837e-07 0.00019045)
(2.99999 -2.90596e-06 0.000176143)
(2.99997 -1.35743e-05 0.000162082)
(2.99993 -2.20615e-05 0.000148223)
(2.99981 -8.17832e-05 0.000135224)
(2.99959 -0.000124429 0.000122661)
(2.99891 -0.000488985 0.00011512)
(2.99805 -0.000660613 0.000104631)
(2.99114 -0.00341555 0.000173126)
(2.98493 0.00113788 0.000164602)
(2.92855 0.00287709 0.000860315)
(2.82796 0.0247666 0.00131204)
(2.52185 0.0519645 0.00438364)
(1.55649 0.15098 0.00772173)
(0.840373 0.332714 0.00405473)
(0.646812 0.311438 0.000874617)
(0.688082 0.293279 -0.00028837)
(0.717596 0.286456 -0.000287009)
(0.709918 0.289984 -0.000155262)
(0.683963 0.295538 -0.000117316)
(0.649846 0.303735 -0.000126443)
(0.619298 0.30999 -0.000184537)
(0.593876 0.31523 -0.000249857)
(0.569904 0.320335 -0.000300856)
(0.54586 0.32535 -0.000346201)
(0.521712 0.330124 -0.000391767)
(0.497524 0.33459 -0.00043789)
(0.473159 0.338815 -0.000483617)
(0.448404 0.342941 -0.000529019)
(0.42312 0.347136 -0.000573921)
(0.397234 0.351598 -0.000618641)
(0.370701 0.356486 -0.0006636)
(0.343522 0.361918 -0.000708455)
(0.315672 0.367943 -0.000753403)
(0.287161 0.374491 -0.000797594)
(0.25795 0.381364 -0.000841853)
(0.22787 0.388114 -0.000886754)
(0.196707 0.393875 -0.000933769)
(0.16429 0.39739 -0.000980302)
(0.130302 0.397095 -0.00102613)
(0.095124 0.391299 -0.00107336)
(0.0565008 0.378913 -0.0011211)
(0.0224248 0.359272 -0.00117185)
(3 1.54361e-08 0.000245734)
(3 7.37477e-08 0.000232991)
(3 2.35458e-07 0.000220355)
(3 3.95515e-07 0.000207826)
(3 6.03277e-07 0.000195405)
(3 7.76771e-07 0.000183091)
(3 1.43801e-06 0.000170896)
(2.99999 1.20746e-06 0.000158824)
(2.99998 1.58785e-06 0.000146922)
(2.99995 2.41407e-07 0.000135181)
(2.99987 7.90426e-06 0.000123947)
(2.99971 3.38008e-06 0.000113104)
(2.99924 5.68005e-05 0.000104873)
(2.99838 2.26262e-05 9.80091e-05)
(2.99555 0.000359775 0.000108773)
(2.9915 -0.000282449 0.000113766)
(2.98993 0.00611293 8.26242e-05)
(2.94104 -0.00238151 0.000622853)
(2.85991 0.0533948 0.000918736)
(2.59128 0.0168598 0.00324328)
(1.7366 0.182167 0.00598468)
(0.970846 0.347867 0.00397157)
(0.665146 0.327321 0.00120543)
(0.705441 0.315951 -0.000254503)
(0.743293 0.310724 -0.000288341)
(0.741864 0.315839 -0.000164085)
(0.717694 0.321573 -0.000109041)
(0.683973 0.329469 -0.000109391)
(0.65159 0.335894 -0.000149591)
(0.624976 0.341368 -0.000206083)
(0.600492 0.34668 -0.000250002)
(0.576099 0.352045 -0.00028729)
(0.551618 0.357409 -0.000324453)
(0.527161 0.362724 -0.000362351)
(0.502632 0.368016 -0.000400424)
(0.477828 0.373383 -0.000438061)
(0.452565 0.378956 -0.000475423)
(0.426719 0.384885 -0.000512324)
(0.400189 0.391331 -0.000548991)
(0.372887 0.398409 -0.000585579)
(0.344741 0.406176 -0.00062212)
(0.31567 0.414591 -0.000658627)
(0.285597 0.423502 -0.000694798)
(0.254284 0.432552 -0.000731253)
(0.22139 0.441012 -0.000767216)
(0.186542 0.447732 -0.000804576)
(0.149268 0.451011 -0.000842045)
(0.109925 0.448977 -0.000879623)
(0.0660187 0.439919 -0.000919167)
(0.0263625 0.422318 -0.000958276)
(3 3.24657e-09 0.000194969)
(3 6.96462e-08 0.000184835)
(3 1.68706e-07 0.000174789)
(3 3.49368e-07 0.00016483)
(3 5.31838e-07 0.00015496)
(3 6.9809e-07 0.000145178)
(3 6.629e-07 0.000135488)
(3 1.37418e-06 0.000125894)
(2.99999 3.79446e-06 0.000116411)
(2.99998 1.34098e-05 0.000107037)
(2.99994 3.33294e-05 9.78944e-05)
(2.99987 9.63717e-05 8.88963e-05)
(2.99967 0.000224558 8.08945e-05)
(2.99933 0.000580095 7.31125e-05)
(2.9981 0.00121116 7.20826e-05)
(2.99664 0.00348045 6.65197e-05)
(2.98462 0.00672306 0.000153292)
(2.97451 -0.00111405 0.000134263)
(2.86149 0.0394325 0.00112761)
(2.62574 0.00233428 0.00180914)
(2.06858 0.137838 0.004606)
(1.05114 0.34171 0.00399319)
(0.661998 0.337263 0.00128693)
(0.706912 0.338077 -0.000209005)
(0.756097 0.336125 -0.00025266)
(0.764797 0.342049 -0.000151554)
(0.746188 0.348212 -9.35345e-05)
(0.716227 0.356255 -8.92625e-05)
(0.684942 0.363291 -0.000115532)
(0.659013 0.369303 -0.000161596)
(0.635246 0.374932 -0.000197764)
(0.611399 0.380606 -0.000227453)
(0.587193 0.386451 -0.000256311)
(0.562831 0.392487 -0.000285772)
(0.53834 0.398755 -0.000315379)
(0.513588 0.405329 -0.000344928)
(0.48842 0.412318 -0.000374156)
(0.462694 0.41984 -0.000403232)
(0.436281 0.428029 -0.000431988)
(0.409039 0.43704 -0.000460365)
(0.38081 0.44697 -0.000488532)
(0.351449 0.457786 -0.000516532)
(0.320754 0.469508 -0.00054437)
(0.288359 0.48184 -0.000572308)
(0.253839 0.494158 -0.000600921)
(0.216608 0.505463 -0.000628723)
(0.175807 0.514094 -0.000656737)
(0.131294 0.517846 -0.000685892)
(0.0800614 0.514427 -0.000714902)
(0.0321821 0.500553 -0.000747933)
(3 7.40977e-10 0.000142059)
(3 5.2184e-08 0.000134658)
(3 1.29567e-07 0.000127322)
(3 2.57506e-07 0.000120053)
(3 3.9238e-07 0.00011285)
(3 4.58537e-07 0.000105713)
(3 2.84155e-07 9.86456e-05)
(3 1.15271e-07 9.16479e-05)
(2.99999 4.77895e-07 8.47324e-05)
(2.99998 2.58085e-06 7.78951e-05)
(2.99994 7.5438e-06 7.12209e-05)
(2.99988 2.11698e-05 6.46303e-05)
(2.99968 4.74236e-05 5.88556e-05)
(2.9993 9.06975e-05 5.34802e-05)
(2.99827 8.65186e-05 5.16054e-05)
(2.99706 0.000502913 4.5425e-05)
(2.98654 0.000664943 0.0001022)
(2.97764 0.00398289 9.50793e-05)
(2.88592 0.00320937 0.000665308)
(2.70873 0.0450022 0.00101496)
(2.26246 0.106129 0.00297932)
(1.15415 0.317994 0.00347707)
(0.662864 0.352539 0.00121504)
(0.701776 0.361866 -0.000129412)
(0.756115 0.360324 -0.00018627)
(0.774984 0.36511 -0.000124512)
(0.763311 0.371407 -7.41567e-05)
(0.739215 0.379819 -6.87e-05)
(0.711396 0.388649 -8.31822e-05)
(0.68815 0.396066 -0.000116346)
(0.667025 0.402799 -0.000143733)
(0.645617 0.409464 -0.000165841)
(0.623403 0.416274 -0.000186776)
(0.600578 0.423331 -0.000207874)
(0.57729 0.430736 -0.000229096)
(0.553532 0.438614 -0.000250187)
(0.52922 0.447109 -0.000271151)
(0.50425 0.456378 -0.000291821)
(0.478539 0.466519 -0.000312522)
(0.451951 0.477664 -0.000332988)
(0.424221 0.490115 -0.000353009)
(0.395279 0.503977 -0.000372902)
(0.364858 0.519261 -0.000392466)
(0.332303 0.535893 -0.000411405)
(0.297023 0.553601 -0.000430495)
(0.258071 0.571555 -0.000450057)
(0.214051 0.588432 -0.000468809)
(0.164128 0.601967 -0.000487773)
(0.103764 0.609027 -0.000508439)
(0.043285 0.603736 -0.00052909)
(3 -4.45118e-10 8.6904e-05)
(3 3.90649e-08 8.23652e-05)
(3 8.94887e-08 7.78681e-05)
(3 1.75719e-07 7.34125e-05)
(3 2.27436e-07 6.89987e-05)
(3 3.46482e-07 6.46269e-05)
(3 3.85769e-07 6.02982e-05)
(3 7.47971e-07 5.60125e-05)
(2.99999 1.89509e-06 5.17759e-05)
(2.99998 5.87043e-06 4.75855e-05)