/*--------------------------------*- C++ -*----------------------------------*\
| =========                 |                                                 |
| \\      /  F ield         | OpenFOAM: The Open Source CFD Toolbox           |
|  \\    /   O peration     | Version:  2112                                  |
|   \\  /    A nd           | Website:  www.openfoam.com                      |
|    \\/     M anipulation  |                                                 |
\*---------------------------------------------------------------------------*/
FoamFile
{
    version     2.0;
    format      ascii;
    arch        "LSB;label=32;scalar=64";
    class       volScalarField;
    location    "0.001";
    object      mag(U);
}
// * * * * * * * * * * * * * * * * * * * * * * * * * * * * * * * * * * * * * //

dimensions      [0 1 -1 0 0 0 0];

internalField   nonuniform List<scalar> 
1000
(
2.91746e-13
1.02111e-13
1.75048e-13
5.83492e-14
2.04222e-13
2.47984e-13
2.77159e-13
1.89635e-13
2.33397e-13
2.1881e-13
2.62571e-13
2.1881e-13
2.1881e-13
1.02111e-13
2.47984e-13
1.16698e-13
2.62571e-13
2.77159e-13
2.1881e-13
3.64683e-13
2.04222e-13
3.06333e-13
1.6046e-13
1.45873e-14
1.16698e-13
1.02111e-13
2.89808e-28
1.45873e-14
4.37619e-14
8.75238e-14
2.62571e-13
4.37619e-14
1.31286e-13
1.75048e-13
2.33397e-13
3.20921e-13
2.62571e-13
2.47984e-13
1.45873e-13
7.29365e-14
1.31286e-13
1.31286e-13
1.45873e-13
8.75238e-14
1.75048e-13
1.31286e-13
7.29365e-14
1.16698e-13
7.29365e-14
8.75238e-14
2.91746e-14
1.45873e-14
2.1881e-13
1.31286e-13
1.45873e-13
1.75048e-13
1.45873e-14
2.04222e-13
8.75238e-14
4.37619e-14
2.91746e-13
2.04222e-13
1.89635e-13
8.75238e-14
2.91746e-14
8.75238e-14
2.91746e-14
8.75238e-14
1.45873e-14
1.02111e-13
8.75238e-14
4.37619e-14
2.33397e-13
1.02111e-13
1.16698e-13
1.16698e-13
5.83492e-14
4.37619e-14
1.45873e-14
2.39814e-28
5.83492e-14
1.45873e-13
3.35508e-13
2.62571e-13
2.77159e-13
1.16698e-13
1.45873e-13
4.37619e-14
7.29365e-14
3.35508e-13
3.20921e-13
3.7927e-13
3.64683e-13
3.7927e-13
3.64683e-13
7.29365e-14
8.75238e-14
1.02111e-13
1.45873e-14
2.91746e-14
8.75238e-14
1.45873e-14
2.91746e-14
1.31286e-13
4.37619e-14
2.91746e-14
1.45873e-14
5.83492e-14
4.37619e-14
2.91746e-14
2.33397e-13
1.89635e-13
3.06333e-13
1.16698e-13
1.31286e-13
9.11193e-28
2.1881e-13
4.37619e-14
2.91746e-14
1.89635e-13
1.31286e-13
1.16698e-13
8.75238e-14
1.02111e-13
1.45873e-13
8.75238e-14
2.91746e-14
2.33397e-13
2.91746e-14
1.6046e-13
2.1881e-13
1.02111e-13
5.83492e-14
8.75238e-14
1.45873e-14
1.45873e-14
1.16698e-13
2.47984e-13
1.45873e-13
2.77159e-13
1.16698e-13
4.10208e-28
7.29365e-14
4.37619e-14
3.06333e-13
2.62571e-13
5.68905e-13
5.25143e-13
6.27254e-13
7.5854e-13
6.12667e-13
7.73127e-13
3.64683e-13
4.52206e-13
1.45873e-13
1.6046e-13
1.45873e-14
1.02111e-13
2.91746e-14
7.29365e-14
1.31286e-13
1.02111e-13
1.31286e-13
8.75238e-14
7.29365e-14
6.94198e-29
1.45873e-14
8.75238e-14
1.45873e-14
1.45873e-13
1.45873e-14
8.75238e-14
2.91746e-14
7.29365e-14
4.37619e-14
1.45873e-14
8.75238e-14
5.83492e-14
2.62571e-13
8.75238e-14
5.83492e-14
1.45873e-14
2.91746e-14
2.91746e-14
1.16698e-13
1.16698e-13
1.16698e-13
2.62571e-13
2.47984e-13
2.33397e-13
3.35508e-13
1.16698e-13
5.83492e-14
1.45873e-14
1.16698e-13
1.89635e-13
1.31286e-13
5.83492e-14
1.6046e-13
5.83492e-14
8.75238e-14
4.37619e-14
1.16698e-13
1.6046e-13
2.04222e-13
7.29365e-14
4.37619e-14
7.29365e-14
8.75238e-14
1.75048e-13
2.91746e-14
2.1881e-13
1.45873e-13
8.75238e-14
1.16698e-13
5.83492e-14
7.29365e-14
1.45873e-14
2.04222e-13
2.91746e-14
1.45873e-14
1.02111e-13
1.6046e-13
1.75048e-13
2.91746e-14
2.91746e-14
2.33397e-13
8.75238e-14
3.20921e-13
1.45873e-14
1.02111e-13
1.31286e-13
2.91746e-14
8.75238e-14
1.6046e-13
5.83492e-14
2.91746e-14
4.37619e-14
1.6046e-13
4.37619e-14
1.45873e-14
1.45873e-13
2.77159e-13
1.6046e-13
3.35508e-13
1.6046e-13
1.6046e-13
1.45873e-13
2.91746e-14
2.04222e-13
7.29365e-14
4.37619e-14
1.31286e-13
2.91746e-14
1.89635e-13
2.62571e-13
1.45873e-13
1.02111e-13
1.16698e-13
8.75238e-14
1.16698e-13
7.29365e-14
2.91746e-14
2.91746e-13
2.62571e-13
3.06333e-13
2.33397e-13
3.20921e-13
2.47984e-13
1.02111e-13
2.1881e-13
1.31286e-13
2.91746e-13
1.02111e-13
2.04222e-13
2.71585e-28
1.75048e-13
2.91746e-14
2.77679e-28
1.45873e-14
4.37619e-14
2.91746e-14
1.6046e-13
1.24009e-27
1.75048e-13
1.02111e-13
1.6046e-13
7.29365e-14
2.33397e-13
1.6046e-13
4.52206e-13
3.06333e-13
5.25143e-13
3.20921e-13
3.06333e-13
2.47984e-13
1.02111e-13
2.91746e-14
1.31286e-13
7.29365e-14
2.1881e-13
3.93857e-13
4.52206e-13
4.37619e-13
2.91746e-13
2.1881e-13
1.45873e-13
8.75238e-14
1.75048e-13
2.91746e-14
2.1881e-13
2.47984e-13
1.75048e-13
3.66031e-28
7.29365e-14
4.37619e-14
1.45873e-14
7.29365e-14
2.33397e-13
8.75238e-14
2.91746e-14
1.75048e-13
1.16698e-13
3.06333e-13
1.89635e-13
5.83492e-14
4.37619e-14
8.75238e-14
8.36193e-28
7.29365e-14
5.83492e-14
4.37619e-14
2.91746e-14
1.75048e-13
1.75048e-13
2.77159e-13
2.04222e-13
3.35508e-13
4.81381e-13
4.08444e-13
3.20921e-13
2.77159e-13
1.02111e-13
1.6046e-13
1.75048e-13
1.6046e-13
1.6046e-13
4.37619e-14
1.75048e-13
7.29365e-14
7.29365e-14
2.91746e-14
1.45873e-13
2.33397e-13
2.77159e-13
1.89635e-13
2.62571e-13
2.91746e-13
2.91746e-13
3.20921e-13
2.33397e-13
2.47984e-13
1.75048e-13
2.04222e-13
2.62571e-13
1.6046e-13
4.37619e-14
5.83492e-14
1.16698e-13
4.37619e-14
4.37619e-14
2.1881e-13
2.1881e-13
1.16698e-13
2.91746e-14
1.31286e-13
5.83492e-14
1.16698e-13
5.83492e-14
1.45873e-13
1.02111e-13
1.02111e-13
2.91746e-14
4.37619e-14
1.02111e-13
1.45873e-14
1.16698e-13
1.6046e-13
3.06333e-13
2.91746e-14
7.29365e-14
2.91746e-14
7.29365e-14
1.02111e-13
1.6046e-13
7.29365e-14
2.04222e-13
2.04222e-13
7.29365e-14
1.45873e-14
1.31286e-13
1.31286e-13
3.35508e-13
2.04222e-13
3.50095e-13
1.16698e-13
2.1881e-13
4.37619e-14
5.61669e-28
7.29365e-14
2.33397e-13
5.83492e-14
1.31286e-13
1.31286e-13
7.29365e-14
1.31286e-13
2.33397e-13
1.02111e-13
2.04222e-13
1.00652e-12
2.74241e-12
8.11054e-12
2.24936e-11
6.26962e-11
1.71999e-10
4.66444e-10
1.24942e-09
3.30455e-09
8.63026e-09
2.22485e-08
5.65981e-08
1.42029e-07
3.51457e-07
8.57283e-07
2.06044e-06
4.87748e-06
1.13669e-05
2.60673e-05
5.87951e-05
0.000130362
0.000283979
0.000607419
0.00127492
0.00262408
0.00529249
0.010452
0.0201946
0.0381409
0.0703503
0.126602
0.222065
0.379276
0.630151
1.01758
1.5959
2.42961
3.58973
5.14795
7.16925
9.70449
12.7845
16.4168
20.5863
25.2586
30.387
35.9187
41.8007
47.9826
54.4195
61.0724
67.9084
74.8996
82.023
89.2593
96.5916
104.006
111.488
119.028
126.614
134.234
141.881
149.539
157.212
164.863
172.524
180.135
187.725
195.271
202.737
210.138
217.448
224.632
231.675
238.558
245.238
251.671
257.818
263.631
269.051
274.013
278.459
282.335
285.602
288.238
290.249
291.68
292.605
293.139
293.379
293.435
293.413
293.324
293.187
293.071
292.998
292.963
292.952
292.952
292.966
292.983
293.002
293.047
293.124
293.255
293.256
293.068
292.919
292.854
292.848
292.884
292.933
292.98
293.017
293.041
293.052
293.053
293.049
293.042
293.03
293.012
292.997
292.983
292.962
292.939
292.888
292.82
292.686
292.552
292.19
291.811
290.675
288.255
282.684
269.465
240.379
185.441
112.335
50.1309
17.1131
4.93767
1.29853
0.328253
0.0819632
0.0204006
0.00507365
0.00126151
0.000313606
7.79463e-05
1.93687e-05
4.81141e-06
1.19475e-06
2.9654e-07
7.35615e-08
1.82363e-08
4.51743e-09
1.11818e-09
2.76649e-10
6.83854e-11
1.7038e-11
4.30326e-12
1.0357e-12
2.1881e-13
1.45873e-14
1.89635e-13
1.16699e-13
5.83493e-14
1.45873e-13
2.33397e-13
1.16699e-13
4.3762e-14
4.3762e-14
1.89635e-13
2.04222e-13
4.52207e-13
3.35508e-13
1.75048e-13
1.45873e-14
5.83493e-14
8.75239e-14
1.60461e-13
1.16699e-13
2.77159e-13
2.91746e-14
3.35508e-13
1.45873e-14
8.75239e-14
4.3762e-14
4.3762e-14
1.31286e-13
4.3762e-14
1.45873e-13
8.75239e-14
5.83493e-14
2.33397e-13
4.3762e-14
4.3762e-14
2.91746e-13
2.91746e-14
2.77159e-13
8.75239e-14
2.1881e-13
1.60461e-13
2.04222e-13
2.91746e-14
2.62572e-13
2.04222e-13
8.75239e-14
7.33751e-28
5.83493e-14
7.29366e-14
7.29366e-14
4.3762e-14
1.31286e-13
8.75239e-14
7.29366e-14
1.16699e-13
1.45873e-14
4.3762e-14
2.91746e-14
1.45873e-13
2.1881e-13
1.75048e-13
3.50096e-13
2.77159e-13
3.64683e-13
3.06334e-13
5.54318e-13
2.04222e-13
4.52207e-13
1.60461e-13
3.20921e-13
2.91746e-14
2.33397e-13
1.45873e-13
1.16699e-13
1.31286e-13
1.02111e-13
8.75239e-14
2.1881e-13
3.35508e-13
2.62572e-13
1.89635e-13
4.3762e-14
1.45873e-14
1.89635e-13
4.3762e-14
2.91746e-14
4.3762e-14
5.83493e-14
1.31286e-13
2.1881e-13
2.91746e-13
1.02111e-13
1.02111e-13
2.1881e-13
2.1881e-13
1.45873e-13
1.02111e-13
1.45873e-14
1.45873e-14
1.45873e-14
1.45873e-13
2.62572e-13
2.91746e-13
1.75048e-13
2.47984e-13
2.04222e-13
1.31286e-13
1.16699e-13
1.02111e-13
2.47984e-13
2.04222e-13
2.47984e-13
2.33397e-13
3.7927e-13
3.50096e-13
5.10556e-13
2.77159e-13
6.71017e-13
4.66794e-13
3.7927e-13
2.47984e-13
1.89635e-13
1.89635e-13
2.1881e-13
1.45873e-14
4.3762e-14
8.75239e-14
1.45873e-14
8.75239e-14
1.02111e-13
1.89635e-13
1.45873e-13
1.45873e-14
1.60461e-13
4.3762e-14
1.16699e-13
8.75239e-14
1.02111e-13
1.02111e-13
2.04222e-13
1.89635e-13
3.50096e-13
3.06334e-13
1.75048e-13
2.91746e-14
1.89635e-13
1.31286e-13
2.04222e-13
7.29366e-14
2.33397e-13
1.16699e-13
2.1881e-13
1.02111e-13
3.20921e-13
1.16699e-13
1.45873e-13
2.91746e-14
1.89635e-13
1.16699e-13
1.02111e-13
1.31286e-13
2.47984e-13
5.83493e-14
4.23032e-13
1.45873e-14
2.62572e-13
2.33397e-13
1.16699e-13
1.31286e-13
7.29366e-14
1.02111e-13
1.21899e-27
2.1881e-13
1.45873e-14
1.45873e-14
2.91746e-14
1.75048e-13
7.29366e-14
1.02111e-13
1.60461e-13
2.62572e-13
3.06334e-13
3.50096e-13
3.06334e-13
6.27255e-13
2.77159e-13
5.39731e-13
2.1881e-13
2.91746e-13
2.91746e-14
3.50096e-13
1.02111e-13
3.93858e-13
2.47984e-13
2.04222e-13
2.1881e-13
2.04222e-13
3.20921e-13
1.89635e-13
4.66794e-13
4.23032e-13
4.52207e-13
2.62572e-13
2.33397e-13
7.29366e-14
7.29366e-14
2.91746e-14
3.50096e-13
1.60461e-13
2.1881e-13
1.16699e-13
2.47984e-13
2.91746e-14
2.04222e-13
1.02111e-13
1.60461e-13
1.31286e-13
7.29366e-14
1.16699e-13
1.45873e-14
2.1881e-13
1.31286e-13
7.29366e-14
8.75239e-14
1.16699e-13
1.45873e-14
2.33397e-13
4.3762e-14
2.91746e-14
1.16699e-13
8.75239e-14
5.83493e-14
1.16699e-13
4.3762e-14
1.31286e-13
7.29366e-14
2.1881e-13
7.29366e-14
1.89635e-13
5.83493e-14
1.45873e-13
8.75239e-14
4.3762e-14
3.22666e-28
3.35508e-13
1.45873e-14
3.50096e-13
1.45873e-13
2.77159e-13
8.75239e-14
2.91746e-14
1.16699e-13
8.75239e-14
4.3762e-14
8.75239e-14
4.3762e-14
1.31286e-13
1.60461e-13
1.45873e-14
4.3762e-14
2.91746e-14
1.31286e-13
1.31286e-13
1.75048e-13
2.91746e-14
1.45873e-13
2.33397e-13
1.16699e-13
1.60461e-13
5.83493e-14
1.45873e-13
4.3762e-14
1.45873e-14
2.1881e-13
2.47984e-13
2.77159e-13
2.04222e-13
2.91746e-14
5.83493e-14
1.31286e-13
1.75048e-13
1.75048e-13
8.75239e-14
1.31286e-13
4.3762e-14
1.16699e-13
2.1881e-13
4.3762e-14
7.29366e-14
4.3762e-14
1.02111e-13
1.02111e-13
8.75239e-14
2.33397e-13
1.02111e-13
1.60461e-13
1.80509e-27
5.83493e-14
2.62572e-13
8.75239e-14
1.45873e-14
3.20921e-13
4.3762e-14
3.06334e-13
2.1881e-13
2.77159e-13
7.29366e-14
4.52207e-13
1.05076e-27
2.91746e-13
1.31286e-13
8.75239e-14
1.45873e-13
7.29366e-14
1.45873e-14
3.50096e-13
2.04222e-13
1.75048e-13
4.3762e-14
2.91746e-14
2.91746e-14
8.45659e-28
2.91746e-14
1.31286e-13
1.75048e-13
2.62572e-13
4.08445e-13
1.60461e-13
2.91746e-13
2.33397e-13
2.33397e-13
1.60461e-13
2.47984e-13
2.91746e-14
8.75239e-14
5.83493e-14
1.02111e-13
1.02111e-13
2.62572e-13
9.82269e-28
2.04222e-13
8.75239e-14
5.83493e-14
1.02111e-13
7.29366e-14
8.75239e-14
3.28166e-28
4.3762e-14
1.16699e-13
1.16699e-13
1.16699e-13
5.83493e-14
1.45873e-14
2.56636e-27
2.04222e-13
2.91746e-14
2.91746e-14
8.75239e-14
2.47984e-13
2.91746e-14
4.08445e-13
1.45873e-13
1.75048e-13
1.16699e-13
2.91746e-14
5.83493e-14
1.31286e-13
5.83493e-14
7.29366e-14
5.83493e-14
5.83493e-14
4.3762e-14
2.1881e-13
1.4515e-28
1.45873e-14
3.20921e-13
7.29366e-14
1.60461e-13
1.16699e-13
1.60461e-13
1.2689e-27
1.45873e-14
1.02111e-13
2.77159e-13
1.45873e-14
3.64683e-13
8.75239e-14
2.1881e-13
1.45873e-14
2.91746e-14
4.3762e-14
1.16699e-13
2.47984e-13
5.83493e-14
5.83493e-14
4.3762e-14
8.75239e-14
8.75239e-14
5.83493e-14
1.60461e-13
1.16699e-13
2.91746e-14
1.89635e-13
1.02111e-13
2.62572e-13
8.75239e-14
3.7927e-13
1.89635e-13
4.66794e-13
2.1881e-13
2.77159e-13
2.33397e-13
2.33397e-13
3.7927e-13
5.39731e-13
5.9808e-13
8.02303e-13
5.54318e-13
5.68906e-13
)
;

boundaryField
{
    sides
    {
        type            calculated;
        value           nonuniform List<scalar> 2(5.68906e-13 2.91746e-13);
    }
    empty
    {
        type            empty;
    }
}


// ************************************************************************* //
