/*--------------------------------*- C++ -*----------------------------------*\
| =========                 |                                                 |
| \\      /  F ield         | OpenFOAM: The Open Source CFD Toolbox           |
|  \\    /   O peration     | Version:  2112                                  |
|   \\  /    A nd           | Website:  www.openfoam.com                      |
|    \\/     M anipulation  |                                                 |
\*---------------------------------------------------------------------------*/
FoamFile
{
    version     2.0;
    format      ascii;
    arch        "LSB;label=32;scalar=64";
    class       volScalarField;
    location    "3";
    object      T;
}
// * * * * * * * * * * * * * * * * * * * * * * * * * * * * * * * * * * * * * //

dimensions      [0 0 0 1 0 0 0];

internalField   nonuniform List<scalar> 
1000
(
7.88276e-183
8.02141e-183
8.52852e-183
9.9636e-183
1.37245e-182
2.33077e-182
4.74557e-182
1.08021e-181
2.59604e-181
6.38577e-181
1.58541e-180
3.94984e-180
9.85167e-180
2.45772e-179
6.13041e-179
1.52868e-178
3.81058e-178
9.49513e-178
2.36506e-177
5.88863e-177
1.4656e-176
3.64623e-176
9.06776e-176
2.25415e-175
5.60136e-175
1.39133e-174
3.45455e-174
8.57391e-174
2.12711e-173
5.27505e-173
1.30764e-172
3.24019e-172
8.02557e-172
1.98703e-171
4.91761e-171
1.21654e-170
3.00828e-170
7.43585e-170
1.83723e-169
4.53748e-169
1.12017e-168
2.76423e-168
6.81838e-168
1.68115e-167
4.1433e-167
1.02071e-166
2.51349e-166
6.18679e-166
1.52219e-165
3.74357e-165
9.20274e-165
2.26132e-164
5.55416e-164
1.3636e-163
3.34633e-163
8.20843e-163
2.01262e-162
4.93259e-162
1.20836e-161
2.95888e-161
7.24213e-161
1.77179e-160
4.33279e-160
1.05908e-159
2.58759e-159
6.31928e-159
1.54257e-158
3.76381e-158
9.17939e-158
2.23771e-157
5.4525e-157
1.32797e-156
3.23285e-156
7.86653e-156
1.91329e-155
4.65134e-155
1.13025e-154
2.74518e-154
6.66444e-154
1.61717e-153
3.92232e-153
9.50884e-153
2.30413e-152
5.58063e-152
1.35099e-151
3.26901e-151
7.90631e-151
1.91128e-150
4.61812e-150
1.11532e-149
2.69229e-149
6.49586e-149
1.56654e-148
3.77602e-148
9.09735e-148
2.1907e-147
5.27278e-147
1.26848e-146
3.05007e-146
7.33033e-146
1.76084e-145
4.22768e-145
1.01453e-144
2.4334e-144
5.83368e-144
1.39783e-143
3.34768e-143
8.01335e-143
1.91718e-142
4.58449e-142
1.09571e-141
2.61746e-141
6.24941e-141
1.49133e-140
3.557e-140
8.47946e-140
2.02035e-139
4.81124e-139
1.14514e-138
2.72417e-138
6.47708e-138
1.5392e-137
3.65578e-137
8.67827e-137
2.05899e-136
4.8825e-136
1.15717e-135
2.74106e-135
6.48938e-135
1.53551e-134
3.63133e-134
8.58306e-134
2.02759e-133
4.78717e-133
1.12964e-132
2.66414e-132
6.27965e-132
1.47935e-131
3.48309e-131
8.19625e-131
1.92762e-130
4.53087e-130
1.06438e-129
2.49899e-129
5.8639e-129
1.37518e-128
3.22317e-128
7.55018e-128
1.76759e-127
4.13574e-127
9.67102e-127
2.26016e-126
5.279e-126
1.23228e-125
2.87483e-125
6.70283e-125
1.56188e-124
3.63729e-124
8.46543e-124
1.96907e-123
4.57733e-123
1.06341e-122
2.46904e-122
5.72917e-122
1.32859e-121
3.07911e-121
7.13172e-121
1.65081e-120
3.81882e-120
8.82866e-120
2.03981e-119
4.70994e-119
1.08685e-118
2.5064e-118
5.77642e-118
1.33043e-117
3.06233e-117
7.04424e-117
1.61935e-116
3.72022e-116
8.54117e-116
1.95969e-115
4.4934e-115
1.02963e-114
2.35779e-114
5.39567e-114
1.23396e-113
2.82014e-113
6.44101e-113
1.47011e-112
3.35318e-112
7.64318e-112
1.74101e-111
3.9631e-111
9.01524e-111
2.0494e-110
4.65564e-110
1.05691e-109
2.39772e-109
5.43578e-109
1.23148e-108
2.78798e-108
6.30744e-108
1.42598e-107
3.2216e-107
7.2732e-107
1.64087e-106
3.69926e-106
8.33392e-106
1.87618e-105
4.22076e-105
9.48846e-105
2.13152e-104
4.78486e-104
1.07333e-103
2.40594e-103
5.38913e-103
1.20624e-102
2.69794e-102
6.02989e-102
1.34668e-101
3.00538e-101
6.70209e-101
1.49347e-100
3.3255e-100
7.39928e-100
1.64511e-99
3.65485e-99
8.11362e-99
1.79981e-98
3.9894e-98
8.83595e-98
1.95552e-97
4.32451e-97
9.5559e-97
2.10993e-96
4.65504e-96
1.02621e-95
2.26051e-95
4.97546e-95
1.09424e-94
2.40462e-94
5.27998e-94
1.15843e-93
2.53953e-93
5.5627e-93
1.21749e-92
2.66249e-92
5.81777e-92
1.27019e-91
2.77089e-91
6.03962e-91
1.31534e-90
2.86224e-90
6.22312e-90
1.3519e-89
2.93436e-89
6.36377e-89
1.37894e-88
2.98541e-88
6.45788e-88
1.39573e-87
3.01397e-87
6.50276e-87
1.40177e-86
3.01911e-86
6.49676e-86
1.3968e-85
3.00043e-85
6.43946e-85
1.38079e-84
2.95812e-84
6.3316e-84
1.354e-83
2.89289e-83
6.17517e-83
1.31695e-82
2.80603e-82
5.9733e-82
1.27039e-81
2.69932e-81
5.73016e-81
1.21527e-80
2.57498e-80
5.45085e-80
1.15277e-79
2.43562e-79
5.14118e-79
1.08417e-78
2.28412e-78
4.80749e-78
1.01087e-77
2.1235e-77
4.45641e-77
9.34311e-77
1.95691e-76
4.09467e-76
8.55928e-76
1.7874e-75
3.72884e-75
7.7712e-75
1.61795e-74
3.36513e-74
6.99192e-74
1.45127e-73
3.00923e-73
6.23325e-73
1.28981e-72
2.66616e-72
5.50547e-72
1.13566e-71
2.34016e-71
4.8171e-71
9.90526e-71
2.03463e-70
4.17484e-70
8.55716e-70
1.75207e-69
3.58348e-69
7.32129e-69
1.49416e-68
3.04601e-68
6.20281e-68
1.26173e-67
2.56368e-67
5.20331e-67
1.0549e-66
2.13626e-66
4.32124e-66
8.73117e-66
1.76215e-65
3.55239e-65
7.15321e-65
1.43874e-64
2.89043e-64
5.80016e-64
1.16255e-63
2.32744e-63
4.65408e-63
9.29564e-63
1.85443e-62
3.69511e-62
7.35405e-62
1.46186e-61
2.90244e-61
5.75568e-61
1.14e-60
2.25519e-60
4.45586e-60
8.79321e-60
1.73312e-59
3.41172e-59
6.70777e-59
1.31717e-58
2.58322e-58
5.05983e-58
9.89833e-58
1.93391e-57
3.77364e-57
7.35408e-57
1.43133e-56
2.78221e-56
5.40108e-56
1.04714e-55
2.02752e-55
3.92063e-55
7.57139e-55
1.46023e-54
2.8125e-54
5.40985e-54
1.0392e-53
1.99355e-53
3.81919e-53
7.30682e-53
1.39603e-52
2.66361e-52
5.07517e-52
9.65681e-52
1.83492e-51
3.48176e-51
6.59746e-51
1.24838e-50
2.3589e-50
4.45102e-50
8.38678e-50
1.57803e-49
2.96493e-49
5.56281e-49
1.04219e-48
1.94974e-48
3.64231e-48
6.79431e-48
1.26555e-47
2.35384e-47
4.37156e-47
8.10688e-47
1.50116e-46
2.77558e-46
5.12427e-46
9.44624e-46
1.73873e-45
3.19556e-45
5.86414e-45
1.07448e-44
1.96576e-44
3.59083e-44
6.54922e-44
1.19265e-43
2.16851e-43
3.9367e-43
7.1355e-43
1.29132e-42
2.33324e-42
4.20918e-42
7.58134e-42
1.36333e-41
2.44773e-41
4.3876e-41
7.85218e-41
1.40298e-40
2.50269e-40
4.45713e-40
7.92488e-40
1.40675e-39
2.49303e-39
4.41082e-39
7.79095e-39
1.37385e-38
2.41858e-38
4.25065e-38
7.45795e-38
1.30632e-37
2.28426e-37
3.98751e-37
6.94893e-37
1.2089e-36
2.09951e-36
3.63996e-36
6.29977e-36
1.08843e-35
1.87723e-35
3.23206e-35
5.55495e-35
9.53054e-35
1.63226e-34
2.79057e-34
4.76241e-34
8.11312e-34
1.37967e-33
2.34197e-33
3.96836e-33
6.71207e-33
1.13323e-32
1.90982e-32
3.21276e-32
5.39476e-32
9.04215e-32
1.51278e-31
2.52627e-31
4.211e-31
7.00627e-31
1.16355e-30
1.92874e-30
3.19119e-30
5.27012e-30
8.6871e-30
1.42927e-29
2.34711e-29
3.8471e-29
6.29377e-29
1.0277e-28
1.67491e-28
2.72453e-28
4.42344e-28
7.16798e-28
1.15931e-27
1.8714e-27
3.01505e-27
4.84822e-27
7.78089e-27
1.24633e-26
1.99246e-26
3.17908e-26
5.06249e-26
8.04592e-26
1.27625e-25
2.02042e-25
3.19221e-25
5.03367e-25
7.92171e-25
1.24421e-24
1.95032e-24
3.05109e-24
4.76366e-24
7.42266e-24
1.15428e-23
1.7914e-23
2.77464e-23
4.28891e-23
6.61631e-23
1.01862e-22
1.56506e-22
2.39979e-22
3.67232e-22
5.60825e-22
8.54744e-22
1.30006e-21
1.97338e-21
2.98933e-21
4.51912e-21
6.8179e-21
1.02651e-20
1.54236e-20
2.31274e-20
3.46081e-20
5.16822e-20
7.70222e-20
1.14552e-19
1.70019e-19
2.51827e-19
3.72235e-19
5.49085e-19
8.08297e-19
1.18744e-18
1.74083e-18
2.5469e-18
3.71854e-18
5.41801e-18
7.87796e-18
1.14313e-17
1.65532e-17
2.39207e-17
3.44964e-17
4.96454e-17
7.13002e-17
1.0219e-16
1.46162e-16
2.08624e-16
2.97169e-16
4.22424e-16
5.99241e-16
8.48325e-16
1.19848e-15
1.68969e-15
2.37736e-15
3.33803e-15
4.6773e-15
6.54051e-15
9.12723e-15
1.27109e-14
1.76656e-14
2.45016e-14
3.39135e-14
4.68454e-14
6.45767e-14
8.88385e-14
1.21967e-13
1.67111e-13
2.285e-13
3.11807e-13
4.24628e-13
5.77102e-13
7.82745e-13
1.05953e-12
1.4313e-12
1.92964e-12
2.59628e-12
3.48622e-12
4.67185e-12
6.24822e-12
8.33982e-12
1.11094e-11
1.47695e-11
1.95964e-11
2.59493e-11
3.42939e-11
4.52325e-11
5.95428e-11
7.82265e-11
1.02571e-10
1.34229e-10
1.75315e-10
2.28531e-10
2.97321e-10
3.86067e-10
5.00331e-10
6.47162e-10
8.35469e-10
1.07649e-09
1.38439e-09
1.77695e-09
2.27646e-09
2.91083e-09
3.71492e-09
4.73213e-09
6.01648e-09
7.63499e-09
9.67068e-09
1.22262e-08
1.5428e-08
1.94321e-08
2.44298e-08
3.06559e-08
3.83975e-08
4.80055e-08
5.99072e-08
7.46226e-08
9.27825e-08
1.15152e-07
1.42654e-07
1.76404e-07
2.17745e-07
2.68291e-07
3.29977e-07
4.05119e-07
4.96485e-07
6.07375e-07
7.41715e-07
9.04169e-07
1.10026e-06
1.33654e-06
1.62071e-06
1.96188e-06
2.37073e-06
2.85984e-06
3.44391e-06
4.14013e-06
4.96858e-06
5.95262e-06
7.11943e-06
8.50054e-06
1.01324e-05
1.20573e-05
1.43238e-05
1.69879e-05
2.01141e-05
2.37761e-05
2.80585e-05
3.30577e-05
3.88839e-05
4.56623e-05
5.35353e-05
6.26642e-05
7.32316e-05
8.54437e-05
9.95329e-05
0.000115761
0.000134421
0.000155844
0.000180396
0.000208489
0.000240582
0.000277184
0.000318862
0.000366242
0.000420018
0.000480956
0.000549899
0.000627775
0.000715601
0.000814493
0.00092567
0.00105046
0.00119032
0.00134681
0.00152164
0.00171667
0.00193389
0.00217546
0.00244369
0.00274107
0.00307027
0.00343415
0.00383575
0.00427831
0.0047653
0.00530037
0.00588739
0.00653046
0.0072339
0.00800223
0.00884024
0.0097529
0.0107454
0.0118232
0.012992
0.0142575
0.015626
0.0171035
0.0186966
0.0204119
0.0222561
0.0242362
0.0263592
0.0286323
0.0310628
0.0336578
0.0364248
0.0393712
0.0425042
0.0458313
0.0493596
0.0530963
0.0570483
0.0612225
0.0656256
0.070264
0.0751436
0.0802705
0.08565
0.0912871
0.0971867
0.103353
0.109789
0.1165
0.123486
0.130751
0.138295
0.146121
0.154227
0.162614
0.17128
0.180224
0.189443
0.198933
0.208692
0.218713
0.228992
0.239522
0.250296
0.261307
0.272547
0.284006
0.295674
0.307542
0.319599
0.331832
0.344231
0.356782
0.369472
0.382288
0.395217
0.408243
0.421353
0.434532
0.447765
0.461036
0.474332
0.487635
0.500932
0.514207
0.527444
0.540629
0.553747
0.566783
0.579723
0.592552
0.605256
0.617822
0.630238
0.642489
0.654564
0.666451
0.678138
0.689614
0.700869
0.711893
0.722676
0.733208
0.743483
0.75349
0.763223
0.772674
0.781837
0.790706
0.799274
0.807536
0.815486
0.823122
0.830436
0.837427
0.844089
0.85042
0.856416
0.862074
0.867391
0.872365
0.876993
0.881273
0.885202
0.888779
0.892001
0.894867
0.897375
0.899523
0.901309
0.902732
0.90379
0.904482
0.904806
0.904761
0.904346
0.903559
0.9024
0.900868
0.898962
0.896681
0.894026
0.890995
0.88759
0.88381
0.879656
0.87513
0.870232
0.864965
0.85933
0.85333
0.846968
0.840247
0.833173
0.825748
0.817978
0.809869
0.801427
0.792658
0.78357
0.77417
0.764468
0.754472
0.744191
0.733637
0.722819
0.711749
0.700438
0.6889
0.677147
0.665192
0.653048
0.640731
0.628253
0.615631
0.602879
0.590012
0.577046
0.563996
0.550878
0.537708
0.524501
0.511274
0.498042
0.484821
0.471625
0.458471
0.445372
0.432344
0.419401
0.406557
0.393825
0.381218
0.368749
0.356429
0.34427
0.332284
0.320479
0.308866
0.297455
0.286252
0.275267
0.264506
0.253976
0.243682
0.233629
0.223822
0.214265
0.204961
0.195912
0.187121
0.178588
0.170314
0.1623
0.154544
0.147047
0.139806
0.13282
0.126087
0.119603
0.113365
0.10737
0.101614
0.0960928
0.0908017
0.085736
0.0808907
0.0762606
0.0718404
0.0676243
0.0636069
0.0597822
0.0561444
0.0526876
0.0494058
0.0462929
0.043343
0.0405501
0.0379082
0.0354114
0.0330539
0.0308299
0.0287336
0.0267596
0.0249023
0.0231564
0.0215166
0.0199779
0.0185352
0.0171837
0.0159189
0.014736
0.0136309
0.0125992
0.0116369
0.0107401
0.00990504
0.00912813
0.00840592
0.00773513
0.00711262
0.00653539
0.0060006
0.00550552
0.00504759
0.00462438
0.00423355
0.00387294
0.00354048
0.00323421
0.0029523
0.00269302
0.00245474
0.00223594
0.00203518
0.00185113
0.00168252
0.00152818
0.00138701
0.001258
0.00114018
0.00103266
0.000934628
0.000845309
0.000763991
0.000690014
0.000622767
0.000561683
0.000506241
0.000455956
0.000410383
0.000369111
0.000331762
0.000297989
0.000267472
0.000239916
0.000215054
0.000192638
0.000172441
0.000154259
0.000137901
0.000123195
0.000109984
9.81245e-05
8.74855e-05
7.79485e-05
6.94052e-05
6.17577e-05
5.49167e-05
4.88015e-05
4.3339e-05
3.84628e-05
3.41131e-05
3.02357e-05
2.67817e-05
2.3707e-05
2.09718e-05
1.85403e-05
1.63803e-05
1.44626e-05
1.27614e-05
1.12532e-05
9.9169e-06
8.73381e-06
7.68704e-06
6.76151e-06
5.94375e-06
5.22178e-06
4.58505e-06
4.02454e-06
3.53332e-06
3.10821e-06
2.75467e-06
2.50014e-06
)
;

boundaryField
{
    sides
    {
        type            zeroGradient;
    }
    empty
    {
        type            empty;
    }
}


// ************************************************************************* //
