# Field minima and maxima
# Time          	field           	min             	location(min)   	max             	location(max)   
0.01            	U               	(-2.44304841e-02 -2.52881637e-02 -3.80406738e-20)	(9.35204263e-01 9.31194521e-01 5.00000000e-01)	(7.61710261e-03 1.06609467e-02 9.21006116e-21)	(2.11444709e-01 9.68365300e-01 5.00000000e-01)
0.01            	p               	-1.57625575e+00	(1.23656188e-02 9.87863062e-01 5.00000000e-01)	1.58467307e+00	(9.87329092e-01 9.87218213e-01 5.00000000e-01)
0.02            	U               	(-4.67654891e-02 -4.97373613e-02 -2.40356582e-20)	(9.35204263e-01 9.31194521e-01 5.00000000e-01)	(-1.76405203e-03 2.47816869e-02 5.75633102e-22)	(1.61681668e-01 9.61101976e-01 5.00000000e-01)
0.02            	p               	-1.42167931e+00	(1.23656188e-02 9.87863062e-01 5.00000000e-01)	1.50647774e+00	(9.87329092e-01 9.87218213e-01 5.00000000e-01)
0.03            	U               	(-6.48717284e-02 -7.25064636e-02 -2.12628432e-20)	(9.35204263e-01 9.31194521e-01 5.00000000e-01)	(1.19457385e-04 1.41979293e-02 1.09943536e-20)	(2.11118406e-01 9.55709992e-01 5.00000000e-01)
0.03            	p               	-1.24470132e+00	(1.23656188e-02 9.87863062e-01 5.00000000e-01)	1.43713782e+00	(9.87329092e-01 9.87218213e-01 5.00000000e-01)
0.04            	U               	(-7.85525629e-02 -9.34891766e-02 -1.91526197e-20)	(9.35204263e-01 9.31194521e-01 5.00000000e-01)	(2.91208943e-02 1.45148171e-02 9.87007842e-21)	(2.11118406e-01 9.55709992e-01 5.00000000e-01)
0.04            	p               	-1.14931579e+00	(1.23656188e-02 9.87863062e-01 5.00000000e-01)	1.38209058e+00	(9.87329092e-01 9.87218213e-01 5.00000000e-01)
0.05            	U               	(-8.81802520e-02 -1.12827169e-01 -1.74411973e-20)	(9.35204263e-01 9.31194521e-01 5.00000000e-01)	(1.77396980e-02 2.49853482e-02 1.64016126e-20)	(1.86277687e-01 9.50626174e-01 5.00000000e-01)
0.05            	p               	-1.09373745e+00	(1.23656188e-02 9.87863062e-01 5.00000000e-01)	1.33983420e+00	(9.87329092e-01 9.87218213e-01 5.00000000e-01)
0.06            	U               	(-3.25817052e-02 -1.25806707e-02 -2.55771246e-20)	(6.22871970e-01 6.59455673e-01 5.00000000e-01)	(4.21336355e-02 2.59933740e-02 1.55176980e-20)	(1.86277687e-01 9.50626174e-01 5.00000000e-01)
0.06            	p               	-1.06066192e+00	(1.23656188e-02 9.87863062e-01 5.00000000e-01)	1.31148509e+00	(9.87329092e-01 9.87218213e-01 5.00000000e-01)
0.07            	U               	(-3.59846504e-02 -1.35912331e-02 -2.33923144e-20)	(6.22871970e-01 6.59455673e-01 5.00000000e-01)	(6.55912668e-02 2.68206091e-02 1.47196904e-20)	(1.86277687e-01 9.50626174e-01 5.00000000e-01)
0.07            	p               	-1.03408545e+00	(1.23656188e-02 9.87863062e-01 5.00000000e-01)	1.29122561e+00	(9.87329092e-01 9.87218213e-01 5.00000000e-01)
0.08            	U               	(-3.91586361e-02 -1.45147486e-02 -2.16063236e-20)	(6.22871970e-01 6.59455673e-01 5.00000000e-01)	(3.06867658e-02 4.40782086e-02 1.10384855e-20)	(1.61432238e-01 9.45541389e-01 5.00000000e-01)
0.08            	p               	-1.01423606e+00	(1.23656188e-02 9.87863062e-01 5.00000000e-01)	1.27549512e+00	(9.87329092e-01 9.87218213e-01 5.00000000e-01)
0.09            	U               	(-4.21522434e-02 -1.53695776e-02 -2.01487105e-20)	(6.22871970e-01 6.59455673e-01 5.00000000e-01)	(4.64670280e-02 4.61027545e-02 1.06916079e-20)	(1.61432238e-01 9.45541389e-01 5.00000000e-01)
0.09            	p               	-9.98775242e-01	(1.23656188e-02 9.87863062e-01 5.00000000e-01)	1.26667303e+00	(9.87329092e-01 9.87218213e-01 5.00000000e-01)
0.1             	U               	(-4.49978808e-02 -1.61679804e-02 -1.88587013e-20)	(6.22871970e-01 6.59455673e-01 5.00000000e-01)	(6.08868243e-02 4.80437665e-02 1.03533936e-20)	(1.61432238e-01 9.45541389e-01 5.00000000e-01)
0.1             	p               	-9.85794633e-01	(1.23656188e-02 9.87863062e-01 5.00000000e-01)	1.25594307e+00	(9.87329092e-01 9.87218213e-01 5.00000000e-01)
0.11            	U               	(-4.77213209e-02 -1.69217210e-02 -1.78076761e-20)	(6.22871970e-01 6.59455673e-01 5.00000000e-01)	(7.39417786e-02 4.99041311e-02 1.00746390e-20)	(1.61432238e-01 9.45541389e-01 5.00000000e-01)
0.11            	p               	-9.75063905e-01	(1.23656188e-02 9.87863062e-01 5.00000000e-01)	1.24910321e+00	(9.87329092e-01 9.87218213e-01 5.00000000e-01)
0.12            	U               	(-5.03401356e-02 -1.76346605e-02 -1.68644985e-20)	(6.22871970e-01 6.59455673e-01 5.00000000e-01)	(8.57113368e-02 5.16988455e-02 9.82311058e-21)	(1.61432238e-01 9.45541389e-01 5.00000000e-01)
0.12            	p               	-9.65936023e-01	(1.23656188e-02 9.87863062e-01 5.00000000e-01)	1.24380945e+00	(9.87329092e-01 9.87218213e-01 5.00000000e-01)
0.13            	U               	(-5.28683608e-02 -1.83120942e-02 -1.60327373e-20)	(6.22871970e-01 6.59455673e-01 5.00000000e-01)	(1.05062090e-01 9.56239310e-02 6.00554464e-21)	(1.11904300e-01 9.53836560e-01 5.00000000e-01)
0.13            	p               	-9.58124595e-01	(1.23656188e-02 9.87863062e-01 5.00000000e-01)	1.23969078e+00	(9.87329092e-01 9.87218213e-01 5.00000000e-01)
0.14            	U               	(-5.53211031e-02 -1.89573739e-02 -1.53056324e-20)	(6.22871970e-01 6.59455673e-01 5.00000000e-01)	(1.12104825e-01 9.82651753e-02 5.86530814e-21)	(1.11904300e-01 9.53836560e-01 5.00000000e-01)
0.14            	p               	-9.51265431e-01	(1.23656188e-02 9.87863062e-01 5.00000000e-01)	1.23674308e+00	(9.87329092e-01 9.87218213e-01 5.00000000e-01)
0.15            	U               	(-5.77091537e-02 -1.95729608e-02 -1.46721002e-20)	(6.22871970e-01 6.59455673e-01 5.00000000e-01)	(1.18217738e-01 1.00649074e-01 5.74933868e-21)	(1.11904300e-01 9.53836560e-01 5.00000000e-01)
0.15            	p               	-9.45501076e-01	(1.23656188e-02 9.87863062e-01 5.00000000e-01)	1.23474828e+00	(9.87329092e-01 9.87218213e-01 5.00000000e-01)
0.16            	U               	(-6.00362351e-02 -2.01617763e-02 -1.40620011e-20)	(6.22871970e-01 6.59455673e-01 5.00000000e-01)	(1.23537052e-01 1.02817131e-01 5.63438418e-21)	(1.11904300e-01 9.53836560e-01 5.00000000e-01)
0.16            	p               	-9.40200785e-01	(1.23656188e-02 9.87863062e-01 5.00000000e-01)	1.23270590e+00	(9.87329092e-01 9.87218213e-01 5.00000000e-01)
0.17            	U               	(-6.23069020e-02 -2.07248078e-02 -1.35008698e-20)	(6.22871970e-01 6.59455673e-01 5.00000000e-01)	(1.28179121e-01 1.04792196e-01 5.52670295e-21)	(1.11904300e-01 9.53836560e-01 5.00000000e-01)
0.17            	p               	-9.35477359e-01	(1.23656188e-02 9.87863062e-01 5.00000000e-01)	1.23121691e+00	(9.87329092e-01 9.87218213e-01 5.00000000e-01)
0.18            	U               	(-7.68984329e-02 -2.48075332e-01 -1.30107443e-20)	(9.60024232e-01 8.80687678e-01 5.00000000e-01)	(1.32289129e-01 1.06586292e-01 5.42313172e-21)	(1.11904300e-01 9.53836560e-01 5.00000000e-01)
0.18            	p               	-9.31604141e-01	(1.23656188e-02 9.87863062e-01 5.00000000e-01)	1.23040188e+00	(9.87329092e-01 9.87218213e-01 5.00000000e-01)
0.19            	U               	(-7.81744979e-02 -2.55296327e-01 -1.27878912e-20)	(9.60024232e-01 8.80687678e-01 5.00000000e-01)	(1.41476177e-01 6.24671467e-02 8.57012741e-21)	(1.61432238e-01 9.45541389e-01 5.00000000e-01)
0.19            	p               	-9.27824807e-01	(1.23656188e-02 9.87863062e-01 5.00000000e-01)	1.22986866e+00	(9.87329092e-01 9.87218213e-01 5.00000000e-01)
0.2             	U               	(-7.92838934e-02 -2.62205974e-01 -1.25831552e-20)	(9.60024232e-01 8.80687678e-01 5.00000000e-01)	(1.46740817e-01 6.37467203e-02 8.44002800e-21)	(1.61432238e-01 9.45541389e-01 5.00000000e-01)
0.2             	p               	-9.24483726e-01	(1.23656188e-02 9.87863062e-01 5.00000000e-01)	1.22952209e+00	(9.87329092e-01 9.87218213e-01 5.00000000e-01)
0.21            	U               	(-8.02440621e-02 -2.68834717e-01 -1.24072961e-20)	(9.60024232e-01 8.80687678e-01 5.00000000e-01)	(1.51523939e-01 6.49782122e-02 8.31014986e-21)	(1.61432238e-01 9.45541389e-01 5.00000000e-01)
0.21            	p               	-9.21477925e-01	(1.23656188e-02 9.87863062e-01 5.00000000e-01)	1.22967660e+00	(9.87329092e-01 9.87218213e-01 5.00000000e-01)
0.22            	U               	(-8.10704835e-02 -2.75173299e-01 -1.22293337e-20)	(9.60024232e-01 8.80687678e-01 5.00000000e-01)	(1.55881082e-01 6.61500484e-02 8.19419447e-21)	(1.61432238e-01 9.45541389e-01 5.00000000e-01)
0.22            	p               	-9.18791584e-01	(1.23656188e-02 9.87863062e-01 5.00000000e-01)	1.22941690e+00	(9.87329092e-01 9.87218213e-01 5.00000000e-01)
0.23            	U               	(-8.17704214e-02 -2.81247307e-01 -1.20768512e-20)	(9.60024232e-01 8.80687678e-01 5.00000000e-01)	(1.59855399e-01 6.72587139e-02 8.07831815e-21)	(1.61432238e-01 9.45541389e-01 5.00000000e-01)
0.23            	p               	-9.16280257e-01	(1.23656188e-02 9.87863062e-01 5.00000000e-01)	1.22930613e+00	(9.87329092e-01 9.87218213e-01 5.00000000e-01)
0.24            	U               	(-8.23587608e-02 -2.87076202e-01 -1.19339114e-20)	(9.60024232e-01 8.80687678e-01 5.00000000e-01)	(1.63483621e-01 6.83145941e-02 7.95710898e-21)	(1.61432238e-01 9.45541389e-01 5.00000000e-01)
0.24            	p               	-9.13854173e-01	(1.23656188e-02 9.87863062e-01 5.00000000e-01)	1.22940280e+00	(9.87329092e-01 9.87218213e-01 5.00000000e-01)
0.25            	U               	(-8.82329179e-02 -9.74662045e-02 -9.22736280e-21)	(8.17817762e-01 7.32030522e-01 5.00000000e-01)	(1.66804415e-01 6.93245427e-02 7.85113132e-21)	(1.61432238e-01 9.45541389e-01 5.00000000e-01)
0.25            	p               	-9.11729740e-01	(1.23656188e-02 9.87863062e-01 5.00000000e-01)	1.22999106e+00	(9.87329092e-01 9.87218213e-01 5.00000000e-01)
0.26            	U               	(-9.10826845e-02 -1.00300687e-01 -9.03733173e-21)	(8.17817762e-01 7.32030522e-01 5.00000000e-01)	(1.69845101e-01 7.02757285e-02 7.75551898e-21)	(1.61432238e-01 9.45541389e-01 5.00000000e-01)
0.26            	p               	-9.09834427e-01	(1.23656188e-02 9.87863062e-01 5.00000000e-01)	1.23050252e+00	(9.87329092e-01 9.87218213e-01 5.00000000e-01)
0.27            	U               	(-9.39221429e-02 -1.03111517e-01 -8.85495692e-21)	(8.17817762e-01 7.32030522e-01 5.00000000e-01)	(1.72631372e-01 7.11754769e-02 7.65821369e-21)	(1.61432238e-01 9.45541389e-01 5.00000000e-01)
0.27            	p               	-9.08030664e-01	(1.23656188e-02 9.87863062e-01 5.00000000e-01)	1.23131584e+00	(9.87329092e-01 9.87218213e-01 5.00000000e-01)
0.28            	U               	(-9.67485595e-02 -1.05899471e-01 -8.67801500e-21)	(8.17817762e-01 7.32030522e-01 5.00000000e-01)	(1.75188060e-01 7.20286200e-02 7.56522077e-21)	(1.61432238e-01 9.45541389e-01 5.00000000e-01)
0.28            	p               	-9.06358762e-01	(1.23656188e-02 9.87863062e-01 5.00000000e-01)	1.23187539e+00	(9.87329092e-01 9.87218213e-01 5.00000000e-01)
0.29            	U               	(-9.95564497e-02 -1.08667791e-01 -8.50951407e-21)	(8.17817762e-01 7.32030522e-01 5.00000000e-01)	(1.77536063e-01 7.28372293e-02 7.47468572e-21)	(1.61432238e-01 9.45541389e-01 5.00000000e-01)
0.29            	p               	-9.04788232e-01	(1.23656188e-02 9.87863062e-01 5.00000000e-01)	1.23184127e+00	(9.87329092e-01 9.87218213e-01 5.00000000e-01)
0.3             	U               	(-1.02347622e-01 -1.11414483e-01 -8.34855325e-21)	(8.17817762e-01 7.32030522e-01 5.00000000e-01)	(1.79693271e-01 7.36027969e-02 7.38567069e-21)	(1.61432238e-01 9.45541389e-01 5.00000000e-01)
0.3             	p               	-9.03303356e-01	(1.23656188e-02 9.87863062e-01 5.00000000e-01)	1.23262849e+00	(9.87329092e-01 9.87218213e-01 5.00000000e-01)
0.31            	U               	(-1.05121498e-01 -1.14139768e-01 -8.19662923e-21)	(8.17817762e-01 7.32030522e-01 5.00000000e-01)	(1.81676732e-01 7.43277097e-02 7.30108961e-21)	(1.61432238e-01 9.45541389e-01 5.00000000e-01)
0.31            	p               	-9.01924471e-01	(1.23656188e-02 9.87863062e-01 5.00000000e-01)	1.23347617e+00	(9.87329092e-01 9.87218213e-01 5.00000000e-01)
0.32            	U               	(-1.07876081e-01 -1.16844399e-01 -8.05359637e-21)	(8.17817762e-01 7.32030522e-01 5.00000000e-01)	(1.83502027e-01 7.50126244e-02 7.22337347e-21)	(1.61432238e-01 9.45541389e-01 5.00000000e-01)
0.32            	p               	-9.00677360e-01	(1.23656188e-02 9.87863062e-01 5.00000000e-01)	1.23434728e+00	(9.87329092e-01 9.87218213e-01 5.00000000e-01)
0.33            	U               	(-1.10609075e-01 -1.19526672e-01 -7.90426919e-21)	(8.17817762e-01 7.32030522e-01 5.00000000e-01)	(1.85184137e-01 7.56609998e-02 7.14762387e-21)	(1.61432238e-01 9.45541389e-01 5.00000000e-01)
0.33            	p               	-8.99494730e-01	(1.23656188e-02 9.87863062e-01 5.00000000e-01)	1.23504039e+00	(9.87329092e-01 9.87218213e-01 5.00000000e-01)
0.34            	U               	(-1.13317913e-01 -1.22190444e-01 -7.77865157e-21)	(8.17817762e-01 7.32030522e-01 5.00000000e-01)	(1.86735990e-01 7.62743741e-02 7.07672586e-21)	(1.61432238e-01 9.45541389e-01 5.00000000e-01)
0.34            	p               	-8.98409789e-01	(1.23656188e-02 9.87863062e-01 5.00000000e-01)	1.23601976e+00	(9.87329092e-01 9.87218213e-01 5.00000000e-01)
0.35            	U               	(-1.16000434e-01 -1.24834695e-01 -7.64537218e-21)	(8.17817762e-01 7.32030522e-01 5.00000000e-01)	(1.88167747e-01 7.68549609e-02 7.00352657e-21)	(1.61432238e-01 9.45541389e-01 5.00000000e-01)
0.35            	p               	-8.97330546e-01	(1.23656188e-02 9.87863062e-01 5.00000000e-01)	1.23683395e+00	(9.87329092e-01 9.87218213e-01 5.00000000e-01)
0.36            	U               	(-1.18654685e-01 -1.27458444e-01 -7.51490149e-21)	(8.17817762e-01 7.32030522e-01 5.00000000e-01)	(1.89489326e-01 7.74050541e-02 6.93312221e-21)	(1.61432238e-01 9.45541389e-01 5.00000000e-01)
0.36            	p               	-8.96314532e-01	(1.23656188e-02 9.87863062e-01 5.00000000e-01)	1.23763325e+00	(9.87329092e-01 9.87218213e-01 5.00000000e-01)
0.37            	U               	(-1.21278156e-01 -1.30063574e-01 -7.39665350e-21)	(8.17817762e-01 7.32030522e-01 5.00000000e-01)	(1.90708841e-01 7.79247479e-02 6.86514370e-21)	(1.61432238e-01 9.45541389e-01 5.00000000e-01)
0.37            	p               	-8.95357989e-01	(1.23656188e-02 9.87863062e-01 5.00000000e-01)	1.23855957e+00	(9.87329092e-01 9.87218213e-01 5.00000000e-01)
0.38            	U               	(-1.23868711e-01 -1.32650335e-01 -7.28428390e-21)	(8.17817762e-01 7.32030522e-01 5.00000000e-01)	(-1.70587908e-04 7.21282557e-02 1.00480061e-20)	(2.33763615e-01 8.93570838e-01 5.00000000e-01)
0.38            	p               	-8.94454127e-01	(1.23656188e-02 9.87863062e-01 5.00000000e-01)	1.23950680e+00	(9.87329092e-01 9.87218213e-01 5.00000000e-01)
0.39            	U               	(-1.26426050e-01 -1.35215813e-01 -7.15758373e-21)	(8.17817762e-01 7.32030522e-01 5.00000000e-01)	(1.60286462e-03 7.32173401e-02 9.97398918e-21)	(2.33763615e-01 8.93570838e-01 5.00000000e-01)
0.39            	p               	-8.93591117e-01	(1.23656188e-02 9.87863062e-01 5.00000000e-01)	1.24025426e+00	(9.87329092e-01 9.87218213e-01 5.00000000e-01)
0.4             	U               	(-1.28947556e-01 -1.37764030e-01 -7.05599827e-21)	(8.17817762e-01 7.32030522e-01 5.00000000e-01)	(8.48608286e-03 1.21315838e-01 6.58450498e-21)	(1.60933374e-01 9.14420042e-01 5.00000000e-01)
0.4             	p               	-8.92825800e-01	(1.23656188e-02 9.87863062e-01 5.00000000e-01)	1.24128766e+00	(9.87329092e-01 9.87218213e-01 5.00000000e-01)
0.41            	U               	(-1.31431309e-01 -1.40289785e-01 -6.93186343e-21)	(8.17817762e-01 7.32030522e-01 5.00000000e-01)	(9.62248827e-03 1.22096480e-01 6.53313444e-21)	(1.60933374e-01 9.14420042e-01 5.00000000e-01)
0.41            	p               	-8.92051571e-01	(1.23656188e-02 9.87863062e-01 5.00000000e-01)	1.24194774e+00	(9.87329092e-01 9.87218213e-01 5.00000000e-01)
0.42            	U               	(-1.33875926e-01 -1.42795103e-01 -6.82512860e-21)	(8.17817762e-01 7.32030522e-01 5.00000000e-01)	(1.06952527e-02 1.22842113e-01 6.48299359e-21)	(1.60933374e-01 9.14420042e-01 5.00000000e-01)
0.42            	p               	-8.91311096e-01	(1.23656188e-02 9.87863062e-01 5.00000000e-01)	1.24284680e+00	(9.87329092e-01 9.87218213e-01 5.00000000e-01)
0.43            	U               	(-1.36279035e-01 -1.45281359e-01 -6.72401334e-21)	(8.17817762e-01 7.32030522e-01 5.00000000e-01)	(1.17096489e-02 1.23553131e-01 6.43671233e-21)	(1.60933374e-01 9.14420042e-01 5.00000000e-01)
0.43            	p               	-8.90632938e-01	(1.23656188e-02 9.87863062e-01 5.00000000e-01)	1.24374638e+00	(9.87329092e-01 9.87218213e-01 5.00000000e-01)
0.44            	U               	(-1.38639808e-01 -1.47748612e-01 -6.62210781e-21)	(8.17817762e-01 7.32030522e-01 5.00000000e-01)	(1.26686696e-02 1.24230413e-01 6.38986948e-21)	(1.60933374e-01 9.14420042e-01 5.00000000e-01)
0.44            	p               	-8.89962394e-01	(1.23656188e-02 9.87863062e-01 5.00000000e-01)	1.24463554e+00	(9.87329092e-01 9.87218213e-01 5.00000000e-01)
0.45            	U               	(-1.40957226e-01 -1.50196665e-01 -6.52435311e-21)	(8.17817762e-01 7.32030522e-01 5.00000000e-01)	(1.35749683e-02 1.24875662e-01 6.34414336e-21)	(1.60933374e-01 9.14420042e-01 5.00000000e-01)
0.45            	p               	-8.89319324e-01	(1.23656188e-02 9.87863062e-01 5.00000000e-01)	1.24554477e+00	(9.87329092e-01 9.87218213e-01 5.00000000e-01)
0.46            	U               	(-1.43230917e-01 -1.52625571e-01 -6.42869524e-21)	(8.17817762e-01 7.32030522e-01 5.00000000e-01)	(1.44312915e-02 1.25490417e-01 6.29932844e-21)	(1.60933374e-01 9.14420042e-01 5.00000000e-01)
0.46            	p               	-8.88699221e-01	(1.23656188e-02 9.87863062e-01 5.00000000e-01)	1.24648491e+00	(9.87329092e-01 9.87218213e-01 5.00000000e-01)
0.47            	U               	(-1.45462084e-01 -1.55034024e-01 -6.33656283e-21)	(8.17817762e-01 7.32030522e-01 5.00000000e-01)	(1.52405255e-02 1.26076532e-01 6.25641078e-21)	(1.60933374e-01 9.14420042e-01 5.00000000e-01)
0.47            	p               	-8.88113012e-01	(1.23656188e-02 9.87863062e-01 5.00000000e-01)	1.24754360e+00	(9.87329092e-01 9.87218213e-01 5.00000000e-01)
0.48            	U               	(-1.47642438e-01 -1.57424146e-01 -6.23969330e-21)	(8.17817762e-01 7.32030522e-01 5.00000000e-01)	(1.60058269e-02 1.26636054e-01 6.21619163e-21)	(1.60933374e-01 9.14420042e-01 5.00000000e-01)
0.48            	p               	-8.87569221e-01	(1.23656188e-02 9.87863062e-01 5.00000000e-01)	1.24809302e+00	(9.87329092e-01 9.87218213e-01 5.00000000e-01)
0.49            	U               	(-1.49774668e-01 -1.59794426e-01 -6.14918587e-21)	(8.17817762e-01 7.32030522e-01 5.00000000e-01)	(1.67299491e-02 1.27170766e-01 6.17760037e-21)	(1.60933374e-01 9.14420042e-01 5.00000000e-01)
0.49            	p               	-8.87053030e-01	(1.23656188e-02 9.87863062e-01 5.00000000e-01)	1.24898159e+00	(9.87329092e-01 9.87218213e-01 5.00000000e-01)
0.5             	U               	(-1.51859594e-01 -1.62145417e-01 -6.06099658e-21)	(8.17817762e-01 7.32030522e-01 5.00000000e-01)	(1.74143147e-02 1.27682252e-01 6.13790888e-21)	(1.60933374e-01 9.14420042e-01 5.00000000e-01)
0.5             	p               	-8.86550328e-01	(1.23656188e-02 9.87863062e-01 5.00000000e-01)	1.24991367e+00	(9.87329092e-01 9.87218213e-01 5.00000000e-01)
0.51            	U               	(-1.53896773e-01 -1.64476569e-01 -5.97617992e-21)	(8.17817762e-01 7.32030522e-01 5.00000000e-01)	(1.80633052e-02 1.28168274e-01 6.10279278e-21)	(1.60933374e-01 9.14420042e-01 5.00000000e-01)
0.51            	p               	-8.86092341e-01	(1.23656188e-02 9.87863062e-01 5.00000000e-01)	1.25084433e+00	(9.87329092e-01 9.87218213e-01 5.00000000e-01)
0.52            	U               	(-1.55885663e-01 -1.66787990e-01 -5.89046997e-21)	(8.17817762e-01 7.32030522e-01 5.00000000e-01)	(1.86790490e-02 1.28629503e-01 6.06623754e-21)	(1.60933374e-01 9.14420042e-01 5.00000000e-01)
0.52            	p               	-8.85623163e-01	(1.23656188e-02 9.87863062e-01 5.00000000e-01)	1.25177475e+00	(9.87329092e-01 9.87218213e-01 5.00000000e-01)
0.53            	U               	(-1.57825068e-01 -1.69078997e-01 -5.80346125e-21)	(8.17817762e-01 7.32030522e-01 5.00000000e-01)	(1.92630795e-02 1.29068844e-01 6.03141985e-21)	(1.60933374e-01 9.14420042e-01 5.00000000e-01)
0.53            	p               	-8.85185218e-01	(1.23656188e-02 9.87863062e-01 5.00000000e-01)	1.25240696e+00	(9.87329092e-01 9.87218213e-01 5.00000000e-01)
0.54            	U               	(-1.59714936e-01 -1.71349960e-01 -5.72099498e-21)	(8.17817762e-01 7.32030522e-01 5.00000000e-01)	(1.98166537e-02 1.29489524e-01 5.99648147e-21)	(1.60933374e-01 9.14420042e-01 5.00000000e-01)
0.54            	p               	-8.84759608e-01	(1.23656188e-02 9.87863062e-01 5.00000000e-01)	1.25318607e+00	(9.87329092e-01 9.87218213e-01 5.00000000e-01)
0.55            	U               	(-1.61556132e-01 -1.73600512e-01 -5.63499245e-21)	(8.17817762e-01 7.32030522e-01 5.00000000e-01)	(2.09179056e-02 9.24581863e-02 5.20167402e-21)	(2.57691531e-01 8.86825272e-01 5.00000000e-01)
0.55            	p               	-8.84320101e-01	(1.23656188e-02 9.87863062e-01 5.00000000e-01)	1.25401108e+00	(9.87329092e-01 9.87218213e-01 5.00000000e-01)
0.56            	U               	(-1.15771014e-01 -2.54827496e-01 -6.78808883e-21)	(9.01864000e-01 7.57608112e-01 5.00000000e-01)	(2.20312853e-02 9.31427609e-02 5.17239630e-21)	(2.57691531e-01 8.86825272e-01 5.00000000e-01)
0.56            	p               	-8.83892848e-01	(1.23656188e-02 9.87863062e-01 5.00000000e-01)	1.25484902e+00	(9.87329092e-01 9.87218213e-01 5.00000000e-01)
0.57            	U               	(-1.16885077e-01 -2.57776987e-01 -6.73247779e-21)	(9.01864000e-01 7.57608112e-01 5.00000000e-01)	(2.31082262e-02 9.38111816e-02 5.15641583e-21)	(2.57691531e-01 8.86825272e-01 5.00000000e-01)
0.57            	p               	-8.83503641e-01	(1.23656188e-02 9.87863062e-01 5.00000000e-01)	1.25571282e+00	(9.87329092e-01 9.87218213e-01 5.00000000e-01)
0.58            	U               	(-1.17966770e-01 -2.60696721e-01 -6.67870334e-21)	(9.01864000e-01 7.57608112e-01 5.00000000e-01)	(2.41522229e-02 9.44644936e-02 5.13799084e-21)	(2.57691531e-01 8.86825272e-01 5.00000000e-01)
0.58            	p               	-8.83120351e-01	(1.23656188e-02 9.87863062e-01 5.00000000e-01)	1.25643621e+00	(9.87329092e-01 9.87218213e-01 5.00000000e-01)
0.59            	U               	(-1.19013911e-01 -2.63583856e-01 -6.61992537e-21)	(9.01864000e-01 7.57608112e-01 5.00000000e-01)	(2.51662000e-02 9.51040171e-02 5.12049454e-21)	(2.57691531e-01 8.86825272e-01 5.00000000e-01)
0.59            	p               	-8.82759145e-01	(1.23656188e-02 9.87863062e-01 5.00000000e-01)	1.25720277e+00	(9.87329092e-01 9.87218213e-01 5.00000000e-01)
0.6             	U               	(-1.20023910e-01 -2.66437040e-01 -6.56180466e-21)	(9.01864000e-01 7.57608112e-01 5.00000000e-01)	(2.61527918e-02 9.57297238e-02 5.10349580e-21)	(2.57691531e-01 8.86825272e-01 5.00000000e-01)
0.6             	p               	-8.82411718e-01	(1.23656188e-02 9.87863062e-01 5.00000000e-01)	1.25777372e+00	(9.87329092e-01 9.87218213e-01 5.00000000e-01)
0.61            	U               	(-1.21000640e-01 -2.69257397e-01 -6.50880021e-21)	(9.01864000e-01 7.57608112e-01 5.00000000e-01)	(2.71118637e-02 9.63415070e-02 5.08638908e-21)	(2.57691531e-01 8.86825272e-01 5.00000000e-01)
0.61            	p               	-8.82076772e-01	(1.23656188e-02 9.87863062e-01 5.00000000e-01)	1.25854612e+00	(9.87329092e-01 9.87218213e-01 5.00000000e-01)
0.62            	U               	(-1.21946305e-01 -2.72045650e-01 -6.45815868e-21)	(9.01864000e-01 7.57608112e-01 5.00000000e-01)	(2.80445926e-02 9.69392400e-02 5.06999266e-21)	(2.57691531e-01 8.86825272e-01 5.00000000e-01)
0.62            	p               	-8.81762760e-01	(1.23656188e-02 9.87863062e-01 5.00000000e-01)	1.25935023e+00	(9.87329092e-01 9.87218213e-01 5.00000000e-01)
0.63            	U               	(-1.22861595e-01 -2.74802159e-01 -6.40679111e-21)	(9.01864000e-01 7.57608112e-01 5.00000000e-01)	(2.89511296e-02 9.75235367e-02 5.05386471e-21)	(2.57691531e-01 8.86825272e-01 5.00000000e-01)
0.63            	p               	-8.81435324e-01	(1.23656188e-02 9.87863062e-01 5.00000000e-01)	1.26011684e+00	(9.87329092e-01 9.87218213e-01 5.00000000e-01)
0.64            	U               	(-1.23746829e-01 -2.77527092e-01 -6.35822807e-21)	(9.01864000e-01 7.57608112e-01 5.00000000e-01)	(2.98342009e-02 9.80945909e-02 5.03928860e-21)	(2.57691531e-01 8.86825272e-01 5.00000000e-01)
0.64            	p               	-8.81136988e-01	(1.23656188e-02 9.87863062e-01 5.00000000e-01)	1.26088634e+00	(9.87329092e-01 9.87218213e-01 5.00000000e-01)
0.65            	U               	(-1.24602546e-01 -2.80220162e-01 -6.30766601e-21)	(9.01864000e-01 7.57608112e-01 5.00000000e-01)	(3.06928485e-02 9.86515899e-02 5.02181435e-21)	(2.57691531e-01 8.86825272e-01 5.00000000e-01)
0.65            	p               	-8.80840175e-01	(1.23656188e-02 9.87863062e-01 5.00000000e-01)	1.26159948e+00	(9.87329092e-01 9.87218213e-01 5.00000000e-01)
0.66            	U               	(-1.25429268e-01 -2.82881290e-01 -6.25960441e-21)	(9.01864000e-01 7.57608112e-01 5.00000000e-01)	(3.15289392e-02 9.91959937e-02 5.00669964e-21)	(2.57691531e-01 8.86825272e-01 5.00000000e-01)
0.66            	p               	-8.80562385e-01	(1.23656188e-02 9.87863062e-01 5.00000000e-01)	1.26231841e+00	(9.87329092e-01 9.87218213e-01 5.00000000e-01)
0.67            	U               	(-1.26227453e-01 -2.85510715e-01 -6.21296153e-21)	(9.01864000e-01 7.57608112e-01 5.00000000e-01)	(3.23427457e-02 9.97280551e-02 4.98986293e-21)	(2.57691531e-01 8.86825272e-01 5.00000000e-01)
0.67            	p               	-8.80280522e-01	(1.23656188e-02 9.87863062e-01 5.00000000e-01)	1.26303661e+00	(9.87329092e-01 9.87218213e-01 5.00000000e-01)
0.68            	U               	(-1.26997739e-01 -2.88108250e-01 -6.16518666e-21)	(9.01864000e-01 7.57608112e-01 5.00000000e-01)	(3.31357653e-02 1.00246926e-01 4.97294805e-21)	(2.57691531e-01 8.86825272e-01 5.00000000e-01)
0.68            	p               	-8.80003696e-01	(1.23656188e-02 9.87863062e-01 5.00000000e-01)	1.26371409e+00	(9.87329092e-01 9.87218213e-01 5.00000000e-01)
0.69            	U               	(-1.82212246e-01 -2.02962094e-01 -4.61355961e-21)	(8.17817762e-01 7.32030522e-01 5.00000000e-01)	(3.39074850e-02 1.00752401e-01 4.95382976e-21)	(2.57691531e-01 8.86825272e-01 5.00000000e-01)
0.69            	p               	-8.79719829e-01	(1.23656188e-02 9.87863062e-01 5.00000000e-01)	1.26456767e+00	(9.87329092e-01 9.87218213e-01 5.00000000e-01)
0.7             	U               	(-1.83339185e-01 -2.04905289e-01 -4.54525747e-21)	(8.17817762e-01 7.32030522e-01 5.00000000e-01)	(3.46520057e-02 1.01248200e-01 4.93960881e-21)	(2.57691531e-01 8.86825272e-01 5.00000000e-01)
0.7             	p               	-8.79446203e-01	(1.23656188e-02 9.87863062e-01 5.00000000e-01)	1.26524598e+00	(9.87329092e-01 9.87218213e-01 5.00000000e-01)
0.71            	U               	(-1.84423036e-01 -2.06827363e-01 -4.47982383e-21)	(8.17817762e-01 7.32030522e-01 5.00000000e-01)	(3.53741458e-02 1.01734007e-01 4.92599423e-21)	(2.57691531e-01 8.86825272e-01 5.00000000e-01)
0.71            	p               	-8.79214094e-01	(1.23656188e-02 9.87863062e-01 5.00000000e-01)	1.26592447e+00	(9.87329092e-01 9.87218213e-01 5.00000000e-01)
0.72            	U               	(-1.85464523e-01 -2.08728035e-01 -4.41237051e-21)	(8.17817762e-01 7.32030522e-01 5.00000000e-01)	(3.60757528e-02 1.02208814e-01 4.90989028e-21)	(2.57691531e-01 8.86825272e-01 5.00000000e-01)
0.72            	p               	-8.78973636e-01	(1.23656188e-02 9.87863062e-01 5.00000000e-01)	1.26656813e+00	(9.87329092e-01 9.87218213e-01 5.00000000e-01)
0.73            	U               	(-1.86464167e-01 -2.10607487e-01 -4.34956944e-21)	(8.17817762e-01 7.32030522e-01 5.00000000e-01)	(3.67592275e-02 1.02673398e-01 4.89622122e-21)	(2.57691531e-01 8.86825272e-01 5.00000000e-01)
0.73            	p               	-8.78749154e-01	(1.23656188e-02 9.87863062e-01 5.00000000e-01)	1.26724546e+00	(9.87329092e-01 9.87218213e-01 5.00000000e-01)
0.74            	U               	(-1.87422843e-01 -2.12465939e-01 -4.28365816e-21)	(8.17817762e-01 7.32030522e-01 5.00000000e-01)	(3.74243574e-02 1.03126951e-01 4.87993079e-21)	(2.57691531e-01 8.86825272e-01 5.00000000e-01)
0.74            	p               	-8.78511963e-01	(1.23656188e-02 9.87863062e-01 5.00000000e-01)	1.26788201e+00	(9.87329092e-01 9.87218213e-01 5.00000000e-01)
0.75            	U               	(-1.88341242e-01 -2.14303668e-01 -4.22164185e-21)	(8.17817762e-01 7.32030522e-01 5.00000000e-01)	(3.80727893e-02 1.03569372e-01 4.86587280e-21)	(2.57691531e-01 8.86825272e-01 5.00000000e-01)
0.75            	p               	-8.78293019e-01	(1.23656188e-02 9.87863062e-01 5.00000000e-01)	1.26854400e+00	(9.87329092e-01 9.87218213e-01 5.00000000e-01)
0.76            	U               	(-1.89220238e-01 -2.16120509e-01 -4.15951005e-21)	(8.17817762e-01 7.32030522e-01 5.00000000e-01)	(3.87054004e-02 1.04001091e-01 4.85250571e-21)	(2.57691531e-01 8.86825272e-01 5.00000000e-01)
0.76            	p               	-8.78085138e-01	(1.23656188e-02 9.87863062e-01 5.00000000e-01)	1.26918409e+00	(9.87329092e-01 9.87218213e-01 5.00000000e-01)
0.77            	U               	(-1.90060179e-01 -2.17915575e-01 -4.09643714e-21)	(8.17817762e-01 7.32030522e-01 5.00000000e-01)	(3.93215341e-02 1.04422404e-01 4.83794049e-21)	(2.57691531e-01 8.86825272e-01 5.00000000e-01)
0.77            	p               	-8.77875338e-01	(1.23656188e-02 9.87863062e-01 5.00000000e-01)	1.26978326e+00	(9.87329092e-01 9.87218213e-01 5.00000000e-01)
0.78            	U               	(-1.90862204e-01 -2.19690573e-01 -4.03953403e-21)	(8.17817762e-01 7.32030522e-01 5.00000000e-01)	(3.99219771e-02 1.04833940e-01 4.82395859e-21)	(2.57691531e-01 8.86825272e-01 5.00000000e-01)