/*--------------------------------*- C++ -*----------------------------------*\
| =========                 |                                                 |
| \\      /  F ield         | OpenFOAM: The Open Source CFD Toolbox           |
|  \\    /   O peration     | Version:  2112                                  |
|   \\  /    A nd           | Website:  www.openfoam.com                      |
|    \\/     M anipulation  |                                                 |
\*---------------------------------------------------------------------------*/
FoamFile
{
    version     2.0;
    format      ascii;
    arch        "LSB;label=32;scalar=64";
    class       volScalarField;
    location    "0.08";
    object      mag(U);
}
// * * * * * * * * * * * * * * * * * * * * * * * * * * * * * * * * * * * * * //

dimensions      [0 1 -1 0 0 0 0];

internalField   nonuniform List<scalar> 
1000
(
2.1013318e-21
1.2926132e-12
3.677206e-12
8.4419456e-12
6.1759543e-12
2.1493793e-11
6.5796667e-12
1.8926462e-11
1.7403426e-12
5.8831739e-12
1.1170894e-11
7.1012026e-12
2.6276871e-13
1.7348294e-11
2.1293382e-11
3.2824972e-11
1.5175561e-11
2.2750058e-11
2.7374966e-11
1.0219303e-11
3.6984365e-11
4.7227232e-11
2.4667248e-11
4.8163596e-11
2.3101862e-11
3.6295319e-11
3.0696256e-11
2.582692e-11
5.9371949e-12
2.3332729e-11
1.1675424e-11
5.3671958e-12
1.3491907e-12
6.4880755e-13
2.9191338e-12
1.1497243e-11
8.2244166e-12
2.3076074e-11
3.5622725e-12
1.0405153e-11
2.9054729e-11
5.1074282e-12
2.8895556e-11
1.9984318e-11
2.9673859e-11
2.9627174e-11
2.3492569e-11
2.1570711e-11
2.0098918e-11
4.0804293e-11
4.4477053e-11
4.6900661e-11
4.2239406e-11
5.0473382e-11
3.5502123e-11
4.8820295e-11
3.6768837e-11
2.6667802e-11
4.2153817e-11
1.7410651e-11
3.8196169e-11
7.8841734e-12
2.8681362e-11
7.181456e-12
1.5999659e-11
1.1531479e-11
3.1316719e-11
2.0329229e-11
2.8187281e-11
2.9455329e-11
6.607233e-12
1.5285937e-11
6.9971622e-13
1.6932354e-11
4.9938285e-12
1.0689041e-11
1.4150385e-11
8.2540948e-12
2.0131264e-11
2.4052676e-12
1.1654527e-11
4.2400913e-12
8.050349e-12
5.4448926e-12
2.0829201e-11
1.3970648e-11
5.260043e-12
3.7663518e-12
1.2573773e-11
6.5452089e-12
3.0673025e-12
8.4391667e-12
2.4863991e-11
1.0249759e-11
3.207179e-11
9.8214814e-12
1.8690593e-12
8.5440963e-12
5.7192214e-12
1.7162221e-12
1.4319562e-11
4.0524629e-12
1.6766068e-11
6.0708024e-12
1.8392255e-11
5.2180267e-12
5.8444924e-13
2.3178558e-11
9.4763473e-12
8.9106832e-12
2.1641739e-12
2.6116811e-11
4.1095628e-11
1.4727609e-11
1.2424159e-11
3.783036e-11
2.540987e-12
1.6966145e-11
4.4900773e-12
1.7643519e-12
9.7467857e-12
1.975823e-11
2.590873e-11
1.7963644e-12
5.4608988e-12
1.1307725e-12
2.2008548e-12
1.1936859e-11
1.0871e-11
5.7530123e-12
1.3746895e-11
3.204578e-13
7.3095057e-13
6.2608762e-12
1.0350131e-11
3.2733158e-11
1.5531588e-11
1.1758122e-11
1.0823537e-11
9.094977e-12
4.6946012e-12
2.8015326e-12
5.1254352e-12
5.5743874e-13
8.2743249e-12
2.4307108e-11
1.126104e-12
1.1987434e-11
1.7194456e-12
1.1806808e-11
2.5036391e-12
2.3800355e-12
2.5343177e-13
1.4649023e-12
1.5605506e-11
1.8509745e-11
1.657855e-11
5.0797507e-13
4.8130916e-12
1.2280659e-11
3.0061676e-12
2.8374354e-12
3.2228073e-12
5.924301e-12
1.1136437e-11
1.1968426e-11
2.7602943e-12
1.598532e-11
7.0834179e-12
1.368765e-11
2.0923682e-12
2.5461556e-11
1.2648024e-11
1.1347741e-12
2.5229244e-11
1.3157444e-11
8.478293e-12
3.0653017e-12
7.445892e-12
2.2594442e-11
1.7663416e-11
5.2142475e-12
1.8428269e-12
1.1801473e-11
2.1592831e-12
1.9887502e-11
8.014335e-12
3.0131036e-11
5.7831351e-12
7.610178e-12
1.8958475e-12
2.7877495e-13
1.3607841e-11
2.7019717e-11
2.0806748e-11
1.6225858e-11
2.1977314e-11
2.7031833e-11
8.7756306e-13
3.3750998e-11
5.5773885e-12
1.747701e-11
3.4858095e-11
3.5118751e-11
3.0174164e-11
3.2258974e-11
2.4682365e-11
4.7122747e-11
6.0046655e-12
2.4767397e-12
7.3580801e-12
2.5107974e-11
7.4239949e-13
1.2775518e-11
1.5260705e-11
1.9812473e-11
1.2414822e-11
7.4717909e-13
2.1820698e-12
1.2197515e-11
1.3886282e-11
1.5124208e-11
1.6272209e-11
1.3606952e-11
2.0337232e-11
1.5591611e-12
6.4341657e-12
1.9796578e-13
5.9959955e-12
1.5805917e-11
2.4697593e-11
2.2824865e-11
5.7552354e-12
1.4947028e-11
2.2566987e-11
1.9665527e-11
3.1866266e-11
1.4070798e-11
2.7383414e-11
3.7554142e-11
3.8858648e-11
3.664012e-11
4.4750381e-11
3.8808407e-11
1.8894783e-11
2.7371187e-11
8.9153517e-12
6.8391008e-12
1.0340238e-11
1.922191e-12
1.9240806e-12
9.648303e-12
1.8172058e-11
1.7470563e-11
2.8039779e-12
1.4624236e-11
7.0910876e-12
2.6931683e-11
1.6054124e-11
3.9992422e-11
3.1532692e-11
3.3567149e-11
3.5591157e-11
1.082665e-11
3.0878438e-11
2.18566e-11
3.13544e-11
1.2347796e-11
3.6595436e-11
2.7797352e-11
1.801144e-11
2.3418207e-11
2.7748778e-11
1.2843099e-11
3.817994e-11
4.3551138e-11
1.7704099e-11
1.1749564e-11
1.7403871e-11
2.4100361e-11
8.7217209e-12
1.8550872e-11
4.2607771e-11
2.2114145e-12
1.8089137e-11
2.4203178e-11
1.0768849e-11
4.2033326e-11
2.6532861e-11
1.5455225e-11
6.6508054e-12
1.1511916e-11
2.1888502e-12
1.7328286e-11
1.130717e-11
4.4691803e-12
1.6564211e-11
1.6031671e-11
5.731226e-12
2.4575101e-11
1.5167224e-11
2.0219298e-11
2.7084186e-11
5.0337774e-11
3.4236853e-11
3.7474222e-11
3.9556808e-11
3.9125641e-11
1.6355464e-11
3.1121754e-11
1.6434161e-11
1.2258872e-11
8.5470975e-12
7.8341539e-13
1.9642963e-11
1.9753672e-11
2.0865882e-11
1.789106e-11
2.0902785e-11
1.6629681e-11
5.0891989e-12
3.6597881e-11
3.0047893e-11
7.146598e-11
7.9813222e-11
1.2593569e-10
1.6637751e-10
2.6480118e-10
3.9352585e-10
6.3142525e-10
9.0653066e-10
1.3271143e-09
1.9218734e-09
2.7966359e-09
4.0398224e-09
5.8087616e-09
8.3387852e-09
1.1953431e-08
1.7081294e-08
2.4289749e-08
3.446732e-08
4.8744197e-08
6.8719859e-08
9.6594148e-08
1.3534829e-07
1.8906512e-07
2.6321198e-07
3.6526091e-07
5.0513218e-07
6.9627281e-07
9.5641821e-07
1.309196e-06
1.7858671e-06
2.4274193e-06
3.2876225e-06
4.4364204e-06
5.9646147e-06
7.9893581e-06
1.0660998e-05
1.4171708e-05
1.8765625e-05
2.4751289e-05
3.2516717e-05
4.2546676e-05
5.5443915e-05
7.1952835e-05
9.298782e-05
0.00011966435
0.00015333512
0.00019562931
0.00024849581
0.00031424968
0.00039562114
0.00049580608
0.00061851672
0.0007680313
0.00094923995
0.0011676856
0.0014295968
0.00174191
0.0021122796
0.002549072
0.0030613429
0.0036587959
0.0043517209
0.0051509133
0.0060675734
0.0071131894
0.0082994044
0.0096378725
0.011140108
0.012817329
0.01468031
0.01673923
0.019003541
0.02148185
0.024181814
0.027110062
0.030272136
0.033672454
0.037314299
0.041199825
0.045330084
0.049705071
0.054323783
0.059184286
0.064283799
0.069618775
0.075184989
0.080977629
0.086991385
0.093220534
0.099659022
0.10630054
0.11313859
0.12016656
0.12737777
0.13476553
0.14232319
0.15004414
0.1579219
0.16595013
0.1741226
0.18243329
0.19087634
0.19944608
0.20813707
0.21694405
0.22586196
0.23488598
0.24401146
0.25323399
0.26254933
0.27195347
0.28144259
0.29101303
0.30066154
0.31038421
0.3201802
0.33004031
0.33997931
0.34995145
0.36005434
0.37007926
0.38040897
0.39040651
0.40100446
0.41097252
0.42181953
0.43180938
0.44285801
0.45299088
0.46390367
0.47437793
0.48521145
0.4949727
0.50621705
0.51613556
0.52756148
0.53730877
0.54929467
0.558558
0.57107595
0.58000474
0.59288586
0.60163885
0.61492496
0.62346503
0.63706575
0.64526024
0.65923464
0.66688971
0.68094384
0.68801784
0.70210673
0.70852001
0.72253567
0.72829108
0.74206931
0.74760872
0.76078209
0.76692899
0.77857864
0.78499602
0.79492373
0.801569
0.80876646
0.81635216
0.82155565
0.83054862
0.83370154
0.84602661
0.84777691
0.86098835
0.86485729
0.87746138
0.88199382
0.89077384
0.89593361
0.90161898
0.90614964
0.91018684
0.91340773
0.91596726
0.91816453
0.92009121
0.92202189
0.92350899
0.9250306
0.92590943
0.92681398
0.92711383
0.92712335
0.92714227
0.9271335
0.92705879
0.92687823
0.92681385
0.92646281
0.92633347
0.92604322
0.92588966
0.9257133
0.92560033
0.9254524
0.92536566
0.92531249
0.92520755
0.92519876
0.92510631
0.92506716
0.92487201
0.92481808
0.92467027
0.92458075
0.92454882
0.92451911
0.92442547
0.92439279
0.92437985
0.92437069
0.92435378
0.924351
0.92433023
0.92431425
0.92430873
0.92433131
0.92433648
0.92436052
0.92460204
0.92462895
0.92505291
0.92514699
0.92540746
0.92551876
0.92553411
0.92554325
0.92554345
0.92554541
0.92554692
0.92555617
0.92556747
0.92558092
0.9255758
0.92557696
0.92558855
0.92558043
0.92555761
0.92552631
0.92548322
0.92546157
0.92545345
0.92546356
0.92546473
0.92546616
0.92545336
0.9254288
0.92543529
0.92540528
0.9253802
0.9253149
0.92528547
0.92526801
0.92523262
0.92522715
0.92521114
0.92519245
0.92516072
0.92513837
0.92515411
0.92519921
0.92519507
0.92518683
0.92515897
0.92513244
0.92508213
0.92500517
0.9249616
0.9248737
0.92482932
0.92479455
0.92474663
0.92472926
0.92469804
0.92469217
0.92470172
0.92473443
0.92482931
0.92480733
0.9247839
0.92479138
0.92477034
0.92472917
0.92469864
0.92468924
0.92464853
0.92462469
0.92446863
0.9245547
0.92468563
0.92460756
0.92427222
0.92394009
0.92290983
0.9222675
0.9196891
0.9187071
0.91373563
0.91179517
0.90353941
0.89885675
0.88649414
0.87648997
0.85521905
0.84068086
0.80166845
0.77527147
0.72031333
0.66762857
0.59418497
0.51049049
0.4151763
0.31667291
0.22402427
0.14698022
0.09029978
0.052732981
0.029726291
0.016386319
0.0089154675
0.0048160231
0.0025917592
0.001392087
0.00074700177
0.00040065467
0.00021483948
0.00011518631
6.1752176e-05
3.3103646e-05
1.7745025e-05
9.5115354e-06
5.0980404e-06
2.7322778e-06
1.464291e-06
7.8465724e-07
4.2043306e-07
2.2524526e-07
1.206916e-07
6.4677739e-08
3.464771e-08
1.8536041e-08
9.9154189e-09
5.3037909e-09
2.859884e-09
1.5236551e-09
8.2802733e-10
4.3728379e-10
2.5729154e-10
1.0901987e-10
9.9285539e-11
5.2025934e-11
4.3689908e-11
6.2492168e-12
6.3178448e-11
8.4245996e-12
4.6268756e-11
1.6502674e-12
1.8690488e-11
5.5896867e-13
4.4929496e-11
1.4387672e-11
2.3025604e-11
3.6528649e-11
3.4228508e-12
1.1859771e-12
2.9968536e-13
1.0102394e-11
1.5862124e-11
1.2468687e-11
3.4894032e-11
2.6989664e-11
3.8652641e-11
1.5649681e-11
2.9267939e-11
1.8321764e-11
1.6507669e-11
2.6052981e-11
2.5915015e-12
4.2338216e-11
5.6803696e-12
2.0803603e-11
2.2608819e-11
2.2504262e-11
4.0264838e-11
4.9968317e-11
2.940535e-11
3.6084005e-11
2.8982461e-11
3.6621774e-11
9.4525204e-12
3.3640681e-11
1.0916761e-11
8.7519226e-12
1.330048e-11
4.1452035e-12
5.6673832e-12
6.98278e-12
1.3946691e-11
3.0792005e-11
3.3517033e-12
2.9438759e-11
1.6112528e-11
1.7421265e-11
5.6505232e-11
2.7138508e-11
5.9963046e-11
1.9028911e-11
4.6459223e-11
5.3875659e-12
1.5233118e-11
1.534944e-11
1.6034277e-12
2.1588446e-11
1.3669315e-11
8.2942919e-12
8.5120633e-12
1.2859832e-11
6.1624191e-13
4.5076009e-12
2.8007262e-12
1.2817432e-11
1.9121036e-12
2.4582746e-11
4.0723913e-13
1.0025585e-11
3.7450903e-11
3.8920582e-11
4.1611424e-11
1.7839048e-12
3.4696018e-11
1.91136e-11
1.4231947e-11
3.6628207e-13
1.494764e-12
8.2264743e-12
1.4361478e-11
2.8298845e-11
8.7207331e-12
3.128582e-11
1.7032007e-11
5.1848898e-12
1.6924786e-11
3.3906957e-11
1.1978424e-11
5.6500903e-11
2.1884801e-12
3.5894759e-11
1.7433919e-12
3.5321361e-11
3.0306293e-11
1.8572279e-11
4.1505646e-11
5.4476251e-11
2.1583784e-11
1.9580887e-11
1.492866e-11
2.9335312e-11
3.7871905e-11
3.7726281e-11
5.3254866e-11
5.4164356e-11
4.4080165e-11
4.3568036e-11
2.3887365e-11
7.9731846e-12
1.324132e-11
1.1506031e-11
1.8103216e-12
2.076753e-11
4.2014112e-11
4.2317127e-11
1.9275319e-12
9.0572687e-12
1.2642616e-11
4.4175843e-12
4.0850445e-12
4.1893017e-11
2.3203084e-11
3.9009933e-11
3.962673e-11
3.189962e-11
4.5457275e-11
7.0700218e-12
4.4487071e-11
1.9994231e-11
1.9051443e-11
7.1377284e-12
3.6801807e-11
2.5149151e-12
1.6025841e-11
1.5683312e-11
3.2110066e-11
2.0808487e-11
9.1098801e-12
1.1332658e-11
2.4444336e-12
1.4842195e-11
4.3227949e-12
2.2181046e-11
7.5884775e-12
3.5980891e-11
1.5966237e-11
2.6584867e-11
2.570579e-11
2.6389849e-11
2.3584017e-11
6.3281339e-12
3.2221615e-11
3.6670278e-11
1.4886038e-11
2.9029966e-11
1.4923221e-11
3.3105909e-11
3.2432727e-11
4.6281077e-11
3.9246684e-11
2.8349237e-11
4.0435325e-11
3.2124051e-12
1.6827111e-11
1.3480736e-11
1.6902699e-11
2.5117962e-11
2.2570637e-11
1.115218e-11
4.2302587e-11
1.3865998e-11
2.9067371e-11
1.4319189e-11
2.3354813e-11
1.2160455e-11
1.4399993e-11
1.0909879e-11
3.3431567e-13
1.2431726e-11
3.6112086e-12
1.2981371e-11
8.1315739e-12
2.0039294e-11
2.6248886e-11
7.2621534e-12
2.6287401e-11
1.8695039e-11
3.9395195e-11
5.8838005e-11
1.5279847e-11
4.3795908e-11
5.6403006e-12
3.1168499e-11
5.7524051e-12
2.4549559e-11
2.5343281e-11
3.057046e-11
1.1439212e-11
9.4446397e-12
2.8336918e-13
3.3530574e-11
4.8063983e-12
3.6803582e-12
9.9085971e-12
9.8664192e-12
1.302921e-11
8.5491355e-12
1.9958601e-11
2.3153136e-11
1.126817e-11
3.8428543e-12
2.2179825e-11
5.0125152e-12
3.747621e-12
9.0519409e-12
1.1396146e-11
2.7599912e-12
6.3576585e-12
1.7741485e-11
6.6636706e-12
1.283175e-11
1.3827705e-11
4.2461753e-11
4.0775968e-11
1.8272705e-11
2.1929976e-11
1.6538081e-11
4.1660706e-12
1.3178497e-11
2.3487452e-11
3.566389e-11
2.5027946e-11
1.9039566e-11
3.4253926e-11
4.0913046e-11
3.9273989e-11
2.9251733e-11
3.0607976e-11
3.6814904e-11
5.4526642e-11
8.1842963e-12
4.5012742e-11
7.5196607e-12
8.7660189e-12
4.1717757e-11
3.5863458e-12
2.3974163e-11
1.5321803e-11
5.8473165e-11
7.8541985e-12
2.8575221e-11
3.7136567e-12
1.3717376e-11
1.5055638e-11
3.5863237e-11
3.3060846e-11
4.7022299e-11
5.3298709e-11
3.7015915e-11
4.3743963e-11
3.1283822e-11
5.8016312e-11
3.8294906e-11
5.4331181e-11
3.3714604e-12
4.8370883e-11
2.1977371e-11
3.9351907e-11
9.0468352e-12
5.9563021e-12
1.5064628e-11
7.8291137e-12
3.7257994e-11
1.2078319e-11
2.162019e-11
3.2758829e-11
5.2303976e-12
1.3218899e-11
9.0395095e-12
1.4469253e-11
1.4097089e-11
2.5962076e-11
9.3660556e-12
2.4447222e-11
2.3963286e-11
1.2490331e-11
8.0693059e-12
4.8921971e-12
1.7219477e-11
2.8408619e-11
1.1418234e-11
4.3083101e-11
1.6609784e-11
3.918031e-11
7.2233274e-11
6.2380397e-11
8.2612378e-11
5.5180511e-11
7.8788503e-11
5.0947067e-11
6.967607e-11
8.3946088e-11
5.2698339e-11
6.9028084e-11
1.4061459e-11
4.880465e-11
4.0334764e-11
4.7659962e-11
7.4508441e-12
1.9743827e-11
4.9019646e-12
4.0649545e-12
3.1024428e-11
2.9772439e-20
)
;

boundaryField
{
    sides
    {
        type            calculated;
        value           nonuniform List<scalar> 2(2.9772439e-20 2.1013318e-21);
    }
    emptywalls
    {
        type            empty;
    }
}


// ************************************************************************* //
