/*--------------------------------*- C++ -*----------------------------------*\
| =========                 |                                                 |
| \\      /  F ield         | OpenFOAM: The Open Source CFD Toolbox           |
|  \\    /   O peration     | Version:  2112                                  |
|   \\  /    A nd           | Website:  www.openfoam.com                      |
|    \\/     M anipulation  |                                                 |
\*---------------------------------------------------------------------------*/
FoamFile
{
    version     2.0;
    format      ascii;
    arch        "LSB;label=32;scalar=64";
    class       volScalarField;
    location    "0.08";
    object      p;
}
// * * * * * * * * * * * * * * * * * * * * * * * * * * * * * * * * * * * * * //

dimensions      [1 -1 -2 0 0 0 0];

internalField   nonuniform List<scalar> 
1000
(
1
1
1
1
1
1
1
1
1
1
1
1
1
1
1
1
1
1
1
1
1
1
1
1
1
1
1
1
1
1
1
1
1
1
1
1
1
1
1
1
1
1
1
1
1
1
1
1
1
1
1
1
1
1
1
1
1
1
1
1
1
1
1
1
1
1
1
1
1
1
1
1
1
1
1
1
1
1
1
1
1
1
1
1
1
1
1
1
1
1
1
1
1
1
1
1
1
1
1
1
1
1
1
1
1
1
1
1
1
1
1
1
1
1
1
1
1
1
1
1
1
1
1
1
1
1
1
1
1
1
1
1
1
1
1
1
1
1
1
1
1
1
1
1
1
1
1
1
1
1
1
1
1
1
1
1
1
1
1
1
1
1
1
1
1
1
1
1
1
1
1
1
1
1
1
1
1
1
1
1
1
1
1
1
1
1
1
1
1
1
1
1
1
1
1
1
1
1
1
1
1
1
1
1
1
1
1
1
1
1
1
1
1
1
1
1
1
1
1
1
1
1
1
1
1
1
1
1
1
1
1
1
1
1
1
1
1
1
1
1
1
1
1
1
1
1
1
1
1
1
1
1
1
1
1
1
1
1
1
1
1
1
1
1
1
1
1
1
1
1
1
1
1
1
1
1
1
1
1
1
1
1
1
1
1
1
1
1
1
1
1
1
1
1
1
1
1
1
1
1
1
1
1
1
1
1
1
1
1
1
1
1
1
1
1
1
1
1
1
1
1
1
1
1
1
1
1
1
1
1
1
1
1
1
1
0.99999999
0.99999999
0.99999999
0.99999998
0.99999997
0.99999996
0.99999994
0.99999992
0.99999989
0.99999984
0.99999978
0.99999969
0.99999957
0.99999941
0.99999919
0.99999888
0.99999847
0.99999791
0.99999716
0.99999616
0.99999481
0.99999302
0.99999065
0.99998752
0.99998341
0.99997802
0.99997101
0.9999619
0.99995013
0.99993499
0.9999156
0.9998909
0.99985955
0.99981998
0.99977026
0.99970809
0.99963074
0.99953501
0.99941711
0.99927267
0.99909665
0.9988833
0.99862608
0.99831767
0.9979499
0.99751381
0.99699958
0.99639663
0.99569364
0.99487865
0.99393917
0.9928623
0.99163491
0.99024377
0.9886758
0.9869182
0.98495871
0.98278576
0.98038871
0.97775796
0.97488515
0.97176327
0.96838675
0.96475153
0.96085511
0.95669652
0.95227634
0.9475966
0.94266075
0.93747353
0.93204087
0.92636978
0.92046823
0.91434498
0.90800947
0.90147171
0.89474212
0.88783145
0.88075062
0.87351067
0.86612266
0.85859756
0.85094622
0.84317931
0.83530723
0.82734012
0.81928779
0.81115971
0.802965
0.7947124
0.78641026
0.77806656
0.76968889
0.76128444
0.75286006
0.7444222
0.73597695
0.72753005
0.71908691
0.7106526
0.70223186
0.69382913
0.68544848
0.6770939
0.66876845
0.66047648
0.65221838
0.64400147
0.63582022
0.6276859
0.61959523
0.61154791
0.60354897
0.59558994
0.58767211
0.57978261
0.57194143
0.56414686
0.5564128
0.54909618
0.54165413
0.53433358
0.52687961
0.51980432
0.51267442
0.5053369
0.49841123
0.4913223
0.48437749
0.47749472
0.47070615
0.46386319
0.45715855
0.45055005
0.44398787
0.43753131
0.43121846
0.42504917
0.41903073
0.41318382
0.40749748
0.40199064
0.39665058
0.39148051
0.38646063
0.38154002
0.37676872
0.37220861
0.36791039
0.36388692
0.36012995
0.35651996
0.3533419
0.34997249
0.34713881
0.34381556
0.34044606
0.33711258
0.33329068
0.32972215
0.32556102
0.32221704
0.31911163
0.31631503
0.31393982
0.31192195
0.31023166
0.30884731
0.30772901
0.30679965
0.30598769
0.30526243
0.30462568
0.30410209
0.30370165
0.30342518
0.30329579
0.30327654
0.3032803
0.30328672
0.3033315
0.30337849
0.30345972
0.30353793
0.30363272
0.30372611
0.30380923
0.30388344
0.30393159
0.30397878
0.30401579
0.30404157
0.30407938
0.30411432
0.30412339
0.30414771
0.30419938
0.30424389
0.30429965
0.30434586
0.30436866
0.30438032
0.30439338
0.30440851
0.30441578
0.30441665
0.30441368
0.30442452
0.30441873
0.30441957
0.30442379
0.30438848
0.30438222
0.30435323
0.30426772
0.30421164
0.30408245
0.30399005
0.30390878
0.30386783
0.30385018
0.30384346
0.30383641
0.30382739
0.30381556
0.30380259
0.30378695
0.30377359
0.30376349
0.30375355
0.30374312
0.30373882
0.30374421
0.30375357
0.30375579
0.30375297
0.3037524
0.30375212
0.30375501
0.30376051
0.30376882
0.30377461
0.30378247
0.30379414
0.30380858
0.30382435
0.30383536
0.30383952
0.3038405
0.30383798
0.30383011
0.30382401
0.30381613
0.30380378
0.30378429
0.3037561
0.30373164
0.30371063
0.30369399
0.3036807
0.3036765
0.30367347
0.3036749
0.30367513
0.30367081
0.30366543
0.30365496
0.30364308
0.30362621
0.30360588
0.30358592
0.30355966
0.30353849
0.30353035
0.30353543
0.30353674
0.30353675
0.30354762
0.3035597
0.3035653
0.30357728
0.30359525
0.30360003
0.30356083
0.30347059
0.30331809
0.30318813
0.30296459
0.30261953
0.30217755
0.30156217
0.3007075
0.2996995
0.29808475
0.29636768
0.29375518
0.2900874
0.28635344
0.28030674
0.27333794
0.26447356
0.25339447
0.24012938
0.22419379
0.20631596
0.18679131
0.1668502
0.14810605
0.13223811
0.12020062
0.11197225
0.10681408
0.10377795
0.10206236
0.10111615
0.10060128
0.10032315
0.10017346
0.10009305
0.1000499
0.10002676
0.10001435
0.10000769
0.10000412
0.10000221
0.10000118
0.10000063
0.10000034
0.10000018
0.1000001
0.10000005
0.10000003
0.10000002
0.10000001
0.1
0.1
0.1
0.1
0.1
0.1
0.1
0.1
0.1
0.1
0.1
0.1
0.1
0.1
0.1
0.1
0.1
0.1
0.1
0.1
0.1
0.1
0.1
0.1
0.1
0.1
0.1
0.1
0.1
0.1
0.1
0.1
0.1
0.1
0.1
0.1
0.1
0.1
0.1
0.1
0.1
0.1
0.1
0.1
0.1
0.1
0.1
0.1
0.1
0.1
0.1
0.1
0.1
0.1
0.1
0.1
0.1
0.1
0.1
0.1
0.1
0.1
0.1
0.1
0.1
0.1
0.1
0.1
0.1
0.1
0.1
0.1
0.1
0.1
0.1
0.1
0.1
0.1
0.1
0.1
0.1
0.1
0.1
0.1
0.1
0.1
0.1
0.1
0.1
0.1
0.1
0.1
0.1
0.1
0.1
0.1
0.1
0.1
0.1
0.1
0.1
0.1
0.1
0.1
0.1
0.1
0.1
0.1
0.1
0.1
0.1
0.1
0.1
0.1
0.1
0.1
0.1
0.1
0.1
0.1
0.1
0.1
0.1
0.1
0.1
0.1
0.1
0.1
0.1
0.1
0.1
0.1
0.1
0.1
0.1
0.1
0.1
0.1
0.1
0.1
0.1
0.1
0.1
0.1
0.1
0.1
0.1
0.1
0.1
0.1
0.1
0.1
0.1
0.1
0.1
0.1
0.1
0.1
0.1
0.1
0.1
0.1
0.1
0.1
0.1
0.1
0.1
0.1
0.1
0.1
0.1
0.1
0.1
0.1
0.1
0.1
0.1
0.1
0.1
0.1
0.1
0.1
0.1
0.1
0.1
0.1
0.1
0.1
0.1
0.1
0.1
0.1
0.1
0.1
0.1
0.1
0.1
0.1
0.1
0.1
0.1
0.1
0.1
0.1
0.1
0.1
0.1
0.1
0.1
0.1
0.1
0.1
0.1
0.1
0.1
0.1
0.1
0.1
0.1
0.1
0.1
0.1
0.1
0.1
0.1
0.1
0.1
0.1
0.1
0.1
0.1
0.1
0.1
0.1
0.1
0.1
0.1
0.1
0.1
0.1
0.1
0.1
0.1
0.1
0.1
0.1
0.1
0.1
0.1
0.1
0.1
0.1
0.1
0.1
0.1
0.1
0.1
0.1
0.1
0.1
0.1
0.1
0.1
0.1
0.1
0.1
0.1
0.1
0.1
0.1
0.1
0.1
0.1
0.1
0.1
0.1
0.1
0.1
0.1
0.1
0.1
0.1
0.1
0.1
0.1
0.1
0.1
0.1
0.1
0.1
0.1
0.1
0.1
0.1
0.1
0.1
0.1
0.1
0.1
0.1
0.1
0.1
0.1
0.1
0.1
0.1
0.1
0.1
0.1
0.1
0.1
0.1
0.1
0.1
0.1
0.1
0.1
0.1
0.1
0.1
0.1
0.1
0.1
0.1
0.1
0.1
0.1
0.1
0.1
0.1
0.1
)
;

boundaryField
{
    sides
    {
        type            zeroGradient;
    }
    emptywalls
    {
        type            empty;
    }
}


// ************************************************************************* //
