/*--------------------------------*- C++ -*----------------------------------*\
| =========                 |                                                 |
| \\      /  F ield         | OpenFOAM: The Open Source CFD Toolbox           |
|  \\    /   O peration     | Version:  2112                                  |
|   \\  /    A nd           | Website:  www.openfoam.com                      |
|    \\/     M anipulation  |                                                 |
\*---------------------------------------------------------------------------*/
FoamFile
{
    version     2.0;
    format      ascii;
    arch        "LSB;label=32;scalar=64";
    class       surfaceScalarField;
    location    "0.08";
    object      phi;
}
// * * * * * * * * * * * * * * * * * * * * * * * * * * * * * * * * * * * * * //

dimensions      [1 0 -1 0 0 0 0];

oriented        oriented;

internalField   nonuniform List<scalar> 
999
(
1.2834178e-12
-1.3713475e-12
-1.03485e-11
1.4892865e-11
4.4841908e-12
2.0156654e-11
3.9643844e-12
8.5829122e-12
5.6510352e-13
1.5960566e-12
3.7847503e-12
-9.8236974e-12
1.0282997e-11
2.305689e-11
3.1170622e-11
2.3377633e-11
2.0697e-11
2.2602142e-11
1.9960922e-11
1.8598456e-11
4.9967586e-11
2.1740831e-11
3.3889114e-11
3.5497827e-11
2.7401859e-11
2.8107516e-11
3.8859804e-11
2.7215341e-11
4.7348792e-12
1.5100143e-11
-1.3045343e-11
-4.8050453e-12
5.5926375e-12
6.5007999e-12
-5.7360783e-12
-1.5446311e-11
-1.5383694e-11
-2.0269564e-11
4.4058091e-12
9.313661e-12
1.4351187e-11
2.2016278e-11
2.1286306e-11
3.3706371e-11
1.8319346e-11
3.0198288e-11
2.0742519e-11
3.074585e-11
2.6146418e-11
4.930989e-11
5.3478333e-11
2.642353e-11
6.4056649e-11
3.6074588e-11
7.0754069e-11
4.2748916e-11
3.7627457e-11
4.0105474e-11
3.2457703e-11
2.6484148e-11
2.8784419e-11
3.3129499e-11
1.0115908e-11
4.9389381e-12
1.4629742e-11
2.2833735e-11
2.0503821e-11
4.081635e-11
2.4658608e-11
2.1033397e-11
1.7518653e-11
-1.0544898e-12
9.4226849e-12
1.874223e-11
-9.1158192e-12
-1.2461587e-11
-1.7140955e-11
-1.393996e-11
-1.6461721e-11
1.6565638e-12
-7.6724183e-12
1.1776691e-11
4.087064e-12
7.6830764e-12
-3.5922376e-12
1.3467005e-12
6.0063066e-14
1.2187029e-11
-9.6133101e-12
4.3676174e-12
-1.5225154e-11
-1.2426726e-11
-2.1226576e-11
-4.3985371e-11
-2.3717472e-11
-1.548317e-12
9.622747e-12
-1.1341372e-11
2.025824e-12
1.4813595e-11
1.3130719e-11
1.1582846e-11
1.0638157e-11
2.3638758e-11
-2.0475843e-12
-2.6613156e-12
-1.3883783e-11
-2.2342239e-11
-1.2410073e-11
7.5299766e-12
-2.7031044e-11
-2.8668179e-11
-2.9382052e-11
-1.8623436e-11
-1.6233681e-11
-2.4304003e-11
-1.6043944e-11
7.9342088e-12
-2.8155256e-13
-5.1563198e-12
-2.0982438e-11
-1.6042501e-11
-2.2090663e-11
6.5381034e-12
4.8181459e-12
8.7143626e-12
-1.1799228e-11
-1.7792434e-12
6.267209e-12
1.7568169e-12
9.9020792e-12
-1.6169288e-12
3.0844216e-12
-3.6481929e-13
-1.9450219e-11
-6.0177419e-12
-1.4243606e-11
-1.5132784e-11
-1.0079049e-11
-2.5365599e-11
-6.7690298e-12
2.0032864e-12
2.6409985e-12
1.856626e-12
2.0406565e-11
1.6560753e-11
5.4547478e-12
8.6436414e-12
8.0402351e-13
-8.9741548e-12
2.8582692e-12
-2.0117241e-13
-2.4474867e-12
-1.2147838e-11
-1.8377633e-11
-1.4270585e-11
-1.1488255e-11
-2.1123325e-11
1.524636e-11
4.2400528e-12
-1.0496048e-12
-4.1233683e-12
4.5682347e-12
9.3203223e-12
-1.263234e-11
5.4265481e-12
9.4241281e-12
1.0086154e-11
-3.873013e-12
2.1096236e-11
1.5131896e-11
-4.2940096e-12
-2.9761749e-12
1.979239e-11
1.929612e-11
9.8036024e-12
1.3441581e-11
-7.317591e-12
9.7646335e-12
-2.7670977e-11
-9.1573416e-12
-1.0349721e-11
-2.4635849e-13
-1.0200174e-11
-5.6431526e-12
-1.961209e-11
-2.1624813e-11
-2.12943e-11
-9.3035579e-12
-3.9173109e-12
-8.427592e-12
1.0148327e-11
2.3917868e-11
2.5284663e-11
2.2998936e-11
1.197098e-11
4.9569238e-11
1.6477597e-11
2.0928259e-11
8.1677998e-12
1.0909496e-11
3.5089709e-11
4.1619042e-11
4.6563198e-11
3.4123926e-11
4.6547322e-11
3.2488567e-11
1.9207858e-11
-1.10012e-12
-1.375533e-11
1.2104096e-11
1.4126034e-11
-3.2671643e-12
4.5115023e-12
-5.0232041e-12
1.9001245e-11
1.2624124e-11
4.9615867e-13
1.9139024e-11
1.5216051e-11
1.3378632e-11
2.1337598e-11
2.2264857e-11
1.0769163e-11
1.6476931e-11
1.3215429e-11
2.7187141e-12
1.8994806e-12
8.5387253e-12
3.5618841e-11
2.5505487e-11
1.5158763e-11
2.1971536e-11
1.4080737e-11
2.4735769e-11
2.8188563e-11
1.5798585e-11
2.1806779e-11
2.8685498e-11
4.2213233e-11
4.166234e-11
4.1771586e-11
2.6914693e-11
3.8152259e-11
1.430378e-11
1.9177659e-11
1.1215695e-11
-1.1796897e-11
1.6349144e-12
-3.2454039e-12
-9.9273922e-12
-1.7043811e-11
-2.5625946e-11
-8.0564444e-12
-4.9588111e-12
-3.4489078e-12
-2.3557045e-11
-1.5928814e-11
-4.3657966e-11
-3.4301673e-11
-2.1777136e-11
-3.1497471e-11
-3.3052672e-11
-3.7463366e-11
-2.5434099e-11
-3.4588332e-11
-1.3978707e-11
-1.4369839e-11
-3.7560288e-11
-4.0737858e-11
-1.856193e-11
-3.388867e-11
-1.9915625e-11
-1.8842927e-11
-4.7224669e-11
-3.6223358e-11
2.0401458e-12
-9.0689678e-12
-3.3442138e-12
-5.5211391e-12
-2.1073365e-11
-3.0890623e-11
-5.1347815e-12
-1.6849189e-11
-2.4752755e-11
-1.0751622e-11
-3.1579517e-11
-3.9810044e-11
-2.8768321e-11
-4.6840309e-12
-1.2479351e-11
-4.8197002e-12
-2.7551295e-12
1.6502799e-11
1.2687629e-11
-2.5959346e-11
-2.2312818e-11
-6.2390093e-12
-1.8107182e-11
-2.6992852e-11
-2.0261126e-11
-2.683187e-11
-4.8259174e-11
-3.7635006e-11
-4.1187498e-11
-4.7504889e-11
-3.7650327e-11
-2.8438585e-11
-1.8666846e-11
-2.8359981e-11
9.2348351e-13
-7.2297723e-12
5.8200111e-12
1.1713741e-11
1.3337775e-11
2.868572e-11
1.7421398e-11
1.5793811e-11
1.764211e-11
1.578826e-11
2.7182256e-11
3.5129011e-11
5.0781379e-11
7.2119533e-11
1.1292844e-10
1.3952717e-10
2.0439017e-10
3.2293335e-10
4.9415116e-10
7.4988571e-10
1.0828285e-09
1.5728586e-09
2.2904065e-09
3.3042978e-09
4.7772377e-09
6.8555395e-09
9.8267794e-09
1.4090057e-08
2.0076436e-08
2.8520136e-08
4.0425015e-08
5.7076437e-08
8.0364934e-08
1.1283507e-07
1.5788302e-07
2.202392e-07
3.0618862e-07
4.2427979e-07
5.8592717e-07
8.0646491e-07
1.1061144e-06
1.511886e-06
2.0591891e-06
2.7946458e-06
3.7790469e-06
5.0914805e-06
6.8343112e-06
9.1393416e-06
1.2175323e-05
1.6157534e-05
2.1358612e-05
2.812258e-05
3.6880629e-05
4.8170393e-05
6.265822e-05
8.1165117e-05
0.00010469619
0.00013447421
0.00017197711
0.00021897898
0.00027759458
0.00035032682
0.00044011579
0.0005503886
0.00068510846
0.00084882083
0.0010466944
0.001284555
0.0015689088
0.0019069526
0.0023065692
0.002776303
0.0033253174
0.0039633285
0.0047005184
0.0055474248
0.0065148116
0.0076135199
0.008854305
0.010247663
0.011803653
0.013531717
0.01544051
0.01753774
0.019830024
0.02232277
0.025020077
0.027924671
0.031037867
0.034359555
0.037888221
0.041620988
0.045553689
0.049680944
0.053996272
0.058492197
0.063160374
0.067991715
0.072976513
0.078104571
0.083365322
0.088747942
0.094241459
0.099834849
0.10551712
0.11127741
0.117105
0.12298945
0.12892057
0.13488852
0.14088379
0.14689727
0.15292024
0.15894438
0.16496179
0.17096498
0.17694687
0.18290082
0.18882054
0.19470018
0.20053423
0.2063176
0.2120455
0.21771354
0.22331761
0.22885397
0.23431911
0.23971003
0.24502337
0.25025789
0.2554078
0.26047926
0.2654531
0.27036088
0.27514661
0.2798852
0.28447993
0.2890533
0.29344797
0.29787616
0.30205493
0.30637172
0.31027721
0.31431475
0.31818504
0.32165462
0.32533019
0.32879801
0.33221361
0.33568949
0.3387165
0.34201459
0.34505621
0.34796258
0.35080616
0.35357294
0.35620906
0.3588393
0.36133815
0.36370713
0.36600299
0.36815965
0.37023149
0.37216425
0.37400044
0.37571229
0.37734253
0.37883289
0.38026167
0.3815502
0.38281531
0.3838241
0.38484314
0.38575464
0.38655029
0.38736952
0.38780851
0.3886105
0.38885926
0.38949475
0.38989351
0.39042292
0.39111784
0.39149714
0.3920203
0.39235499
0.39274811
0.39322291
0.39355104
0.39375639
0.39388749
0.39396831
0.39402532
0.39407074
0.39409907
0.39410091
0.39409186
0.39408586
0.39406578
0.39404602
0.39401141
0.39397625
0.3939326
0.39391319
0.39387141
0.39385537
0.39382507
0.39379897
0.39375186
0.39371589
0.39367835
0.39363628
0.39360383
0.39355647
0.39351698
0.3934715
0.39342424
0.39336475
0.39333122
0.39328461
0.39323613
0.39319473
0.39313807
0.39308031
0.39305444
0.39301895
0.39298514
0.39293649
0.39290786
0.39285427
0.39279616
0.39273658
0.39265917
0.39259679
0.39248941
0.39243931
0.39230383
0.39213354
0.39194802
0.39168102
0.39152857
0.39122047
0.39083656
0.39030365
0.38962327
0.38875081
0.38764044
0.38624275
0.38451432
0.38240322
0.37986393
0.37685435
0.37332601
0.36926326
0.36463619
0.35947129
0.35378452
0.34764807
0.34112146
0.33431572
0.32731981
0.32025441
0.31322594
0.30634784
0.29971564
0.29340785
0.28749872
0.28202857
0.27703829
0.27252837
0.26851135
0.26496924
0.26188692
0.2592268
0.25695778
0.2550415
0.25343771
0.25211092
0.25101816
0.2501292
0.24941158
0.24883925
0.2483827
0.24802601
0.24774516
0.24752855
0.24735929
0.24722809
0.24713642
0.24706228
0.24700978
0.24697243
0.24694492
0.24692701
0.2469174
0.24691123
0.24690652
0.24689873
0.24689615
0.24689806
0.2469022
0.24690595
0.24690263
0.24689717
0.24689128
0.2468742
0.24684911
0.24681978
0.24677964
0.24666928
0.24651227
0.24617284
0.24579099
0.24511922
0.24435895
0.24324048
0.24190377
0.23998471
0.23780001
0.23430404
0.23083252
0.22511758
0.21866974
0.21066008
0.19952084
0.18683219
0.17083605
0.1523652
0.13121064
0.10808042
0.08423312
0.061497008
0.041792341
0.026466978
0.015781798
0.0090026156
0.0049910927
0.0027217306
0.0014711242
0.00079162013
0.0004250706
0.00022802843
0.00012227575
6.5557321e-05
3.5145873e-05
1.8841428e-05
1.0100485e-05
5.4144884e-06
2.9023932e-06
1.5557369e-06
8.3385867e-07
4.4691636e-07
2.3951532e-07
1.2835299e-07
6.8777289e-08
3.6849121e-08
1.9741999e-08
1.05772e-08
5.6714837e-09
3.0327269e-09
1.6262741e-09
8.6757786e-10
4.6604898e-10
2.5148994e-10
1.3390367e-10
7.3431247e-11
3.9983336e-11
2.2035013e-11
1.3588464e-11
8.9656893e-12
6.8245271e-12
3.6505104e-12
2.3050867e-12
5.8270611e-12
4.8095417e-12
3.5520198e-12
7.4931727e-13
2.8375774e-12
2.7738506e-12
2.5817543e-12
2.8302777e-12
3.8384296e-12
6.4002414e-12
6.0618177e-14
-2.1929819e-12
1.9889229e-12
-2.3153424e-12
-2.2005175e-12
2.8151093e-13
-4.6787851e-12
-5.0007498e-12
-4.7519072e-12
-2.2440522e-12
-1.9583224e-12
1.0434709e-13
9.4993458e-13
-1.8692686e-12
3.5915576e-12
1.5029228e-12
1.6556617e-12
4.2684606e-12
3.2755326e-12
5.2163135e-12
6.5954742e-12
6.6388839e-12
7.2959694e-13
4.6984083e-12
4.5185522e-12
2.2589708e-12
2.8112374e-12
1.8228336e-12
-8.3387464e-13
1.9020896e-12
9.0419339e-13
-1.2058965e-12
3.4833247e-14
-1.3213042e-12
2.10372e-12
-1.8485352e-12
-1.7956331e-12
-3.3520964e-12
-4.1045362e-12
-3.8668513e-12
-5.8303917e-12
-7.0970313e-12
-5.8651001e-12
-3.9527825e-12
-2.9477532e-12
-5.7467919e-14
1.0563772e-13
4.2096882e-13
2.7464975e-12
1.6349699e-12
3.6777525e-12
-4.7850612e-13
-4.7042925e-13
-1.0729195e-12
-3.3485714e-13
-1.90431e-13
-9.7638564e-13
-3.7764236e-12
1.9957647e-13
-2.9247438e-12
9.5561059e-13
3.6018688e-12
6.0455668e-12
6.7653799e-12
5.3089477e-13
4.0472903e-12
9.4041441e-13
-2.8979597e-13
6.7350292e-13
2.1971591e-12
-9.161838e-13
1.8942903e-12
4.9218268e-12
2.3974017e-12
-1.4106771e-12
-4.5956988e-12
-1.4004492e-12
-2.1740248e-12
-3.907652e-12
-2.7150227e-12
-5.9957178e-12
-3.8414549e-12
-2.0601992e-12
-2.4954483e-12
-3.0317138e-12
-3.0303954e-12
-3.9623305e-12
-3.4617448e-12
-5.5689203e-12
-3.4618003e-12
-2.2577079e-12
-1.8865187e-12
-5.6789989e-12
-3.1223635e-12
-5.0398852e-12
-6.2342076e-12
-7.7260004e-12
-6.7387484e-12
-5.3204247e-12
-7.3114709e-12
-1.7653101e-12
-1.7483515e-12
-1.9153429e-12
-3.1333269e-13
-1.8007124e-12
-5.5162958e-12
-5.6765287e-12
-2.5666275e-12
-1.768044e-12
4.164169e-13
-8.0661866e-13
8.8877516e-13
-2.3235858e-12
-4.2457426e-12
-4.9114462e-12
-6.2235633e-12
-5.301648e-12
-4.2024439e-12
-4.3980097e-12
3.6383396e-13
-1.6067564e-12
-4.557188e-13
-1.2398138e-12
1.3668372e-12
-2.407935e-12
-2.8172742e-12
-1.5029505e-12
-2.3906571e-12
-3.8489489e-12
-9.068718e-13
-2.6810915e-12
-8.5323415e-13
3.3099912e-13
-6.5762673e-13
-1.4137996e-12
-2.4743818e-12
-2.5702496e-12
-1.5047547e-12
-3.2400332e-12
6.4773187e-13
-1.2529561e-12
1.0516865e-12
9.0026597e-13
5.4958815e-13
5.1497001e-12
2.60518e-12
3.383821e-12
2.7004232e-12
2.7160774e-12
4.1179143e-12
5.9008076e-12
5.0101728e-12
6.1832206e-12
5.1834925e-12
9.2845176e-13
6.9355632e-13
2.3732405e-13
-1.6571328e-12
-3.5399461e-12
-1.2645163e-12
-4.366868e-12
-3.5722814e-12
-3.7205516e-12
-3.0778158e-12
-3.1444153e-12
-2.1115332e-12
-1.2619766e-12
-7.744777e-13
3.0467295e-12
8.390233e-13
-4.1674997e-13
-2.8553687e-12
5.8576755e-13
1.9731994e-12
2.1299351e-12
4.8992338e-12
2.6814106e-12
2.3287761e-12
9.4886599e-13
3.7502779e-12
9.1519986e-12
5.4251464e-12
1.8812868e-12
2.4285574e-12
2.9513059e-12
2.2927493e-13
4.0471654e-12
2.9607705e-12
2.1782853e-12
2.5449781e-12
1.8877538e-12
-1.3157947e-12
-1.8186563e-12
-1.975517e-12
-6.5905614e-13
-1.5303037e-13
1.7260221e-12
1.4306056e-12
2.9466707e-13
-1.7528479e-12
-4.1538717e-12
-2.3972629e-12
-3.2676639e-13
-7.6899598e-13
-1.7586627e-12
1.3717361e-12
-6.4029337e-13
-1.4678536e-13
9.3383634e-13
4.9948934e-13
3.5971226e-13
-9.467982e-13
-3.2701619e-13
-1.7613966e-12
-4.9853316e-12
-5.5454807e-12
-5.3648058e-12
-2.3408359e-12
-2.4919095e-12
3.0486724e-13
1.0068057e-12
1.9753088e-12
4.5927845e-12
5.8242022e-12
2.2706559e-12
3.6930042e-12
5.3813481e-12
5.5626614e-12
5.3448912e-12
5.080672e-12
5.4503901e-12
6.7750527e-12
4.7386123e-12
4.0109721e-12
8.5814689e-13
1.3502532e-12
9.1487928e-13
1.6364687e-13
1.6391333e-12
8.438944e-13
4.3326731e-12
4.8867854e-12
1.3570672e-12
2.7243624e-12
1.2068263e-12
1.7987556e-12
9.098805e-12
3.7590764e-12
6.62774e-12
7.3048789e-12
6.9133588e-12
4.8128307e-12
7.8038825e-12
6.2380101e-12
8.5829815e-12
5.9210137e-12
2.862946e-12
3.7231468e-12
5.430531e-12
4.4197979e-12
2.2269825e-12
-1.0523526e-13
-1.9834134e-13
2.9091451e-12
2.3810537e-12
1.0149659e-12
2.8118619e-12
5.3426291e-12
2.7064323e-12
5.5394578e-13
2.8870933e-12
9.5214114e-13
1.7997548e-12
3.8591769e-12
5.05887e-13
4.393208e-12
3.0858094e-12
2.804923e-12
1.2852774e-12
-6.4374894e-13
1.6607132e-12
1.2380791e-12
-2.8401725e-12
-5.2157029e-12
-3.8583026e-12
-4.2310877e-12
-7.3635265e-12
-7.0124601e-12
-1.1595017e-11
-1.094802e-11
-5.7247262e-12
-9.1418123e-12
-8.8301588e-12
-7.903303e-12
-9.4921848e-12
-8.5195878e-12
-2.715328e-12
-6.4741268e-12
-5.8496402e-12
-6.4620392e-12
-2.9970193e-12
-2.796624e-12
-2.3951119e-12
-1.2900792e-12
2.2651325e-12
2.8029939e-12
)
;

boundaryField
{
    sides
    {
        type            calculated;
        value           nonuniform List<scalar> 2(3.7224844e-21 2.0988369e-21);
    }
    emptywalls
    {
        type            empty;
        value           nonuniform List<scalar> 0();
    }
}


// ************************************************************************* //
