/*--------------------------------*- C++ -*----------------------------------*\
| =========                 |                                                 |
| \\      /  F ield         | OpenFOAM: The Open Source CFD Toolbox           |
|  \\    /   O peration     | Version:  2112                                  |
|   \\  /    A nd           | Website:  www.openfoam.com                      |
|    \\/     M anipulation  |                                                 |
\*---------------------------------------------------------------------------*/
FoamFile
{
    version     2.0;
    format      ascii;
    arch        "LSB;label=32;scalar=64";
    class       volScalarField;
    location    "0.08";
    object      T;
}
// * * * * * * * * * * * * * * * * * * * * * * * * * * * * * * * * * * * * * //

dimensions      [0 0 0 1 0 0 0];

internalField   nonuniform List<scalar> 
1000
(
0.00348
0.00348
0.00348
0.00348
0.00348
0.00348
0.00348
0.00348
0.00348
0.00348
0.00348
0.00348
0.00348
0.00348
0.00348
0.00348
0.00348
0.00348
0.00348
0.00348
0.00348
0.00348
0.00348
0.00348
0.00348
0.00348
0.00348
0.00348
0.00348
0.00348
0.00348
0.00348
0.00348
0.00348
0.00348
0.00348
0.00348
0.00348
0.00348
0.00348
0.00348
0.00348
0.00348
0.00348
0.00348
0.00348
0.00348
0.00348
0.00348
0.00348
0.00348
0.00348
0.00348
0.00348
0.00348
0.00348
0.00348
0.00348
0.00348
0.00348
0.00348
0.00348
0.00348
0.00348
0.00348
0.00348
0.00348
0.00348
0.00348
0.00348
0.00348
0.00348
0.00348
0.00348
0.00348
0.00348
0.00348
0.00348
0.00348
0.00348
0.00348
0.00348
0.00348
0.00348
0.00348
0.00348
0.00348
0.00348
0.00348
0.00348
0.00348
0.00348
0.00348
0.00348
0.00348
0.00348
0.00348
0.00348
0.00348
0.00348
0.00348
0.00348
0.00348
0.00348
0.00348
0.00348
0.00348
0.00348
0.00348
0.00348
0.00348
0.00348
0.00348
0.00348
0.00348
0.00348
0.00348
0.00348
0.00348
0.00348
0.00348
0.00348
0.00348
0.00348
0.00348
0.00348
0.00348
0.00348
0.00348
0.00348
0.00348
0.00348
0.00348
0.00348
0.00348
0.00348
0.00348
0.00348
0.00348
0.00348
0.00348
0.00348
0.00348
0.00348
0.00348
0.00348
0.00348
0.00348
0.00348
0.00348
0.00348
0.00348
0.00348
0.00348
0.00348
0.00348
0.00348
0.00348
0.00348
0.00348
0.00348
0.00348
0.00348
0.00348
0.00348
0.00348
0.00348
0.00348
0.00348
0.00348
0.00348
0.00348
0.00348
0.00348
0.00348
0.00348
0.00348
0.00348
0.00348
0.00348
0.00348
0.00348
0.00348
0.00348
0.00348
0.00348
0.00348
0.00348
0.00348
0.00348
0.00348
0.00348
0.00348
0.00348
0.00348
0.00348
0.00348
0.00348
0.00348
0.00348
0.00348
0.00348
0.00348
0.00348
0.00348
0.00348
0.00348
0.00348
0.00348
0.00348
0.00348
0.00348
0.00348
0.00348
0.00348
0.00348
0.00348
0.00348
0.00348
0.00348
0.00348
0.00348
0.00348
0.00348
0.00348
0.00348
0.00348
0.00348
0.00348
0.00348
0.00348
0.00348
0.00348
0.00348
0.00348
0.00348
0.00348
0.00348
0.00348
0.00348
0.00348
0.00348
0.00348
0.00348
0.00348
0.00348
0.00348
0.00348
0.00348
0.00348
0.00348
0.00348
0.00348
0.00348
0.00348
0.00348
0.00348
0.00348
0.00348
0.00348
0.00348
0.00348
0.00348
0.00348
0.00348
0.00348
0.00348
0.00348
0.00348
0.00348
0.00348
0.00348
0.00348
0.00348
0.00348
0.00348
0.00348
0.00348
0.00348
0.00348
0.00348
0.00348
0.00348
0.00348
0.00348
0.00348
0.00348
0.00348
0.00348
0.00348
0.00348
0.00348
0.00348
0.00348
0.00348
0.00348
0.00348
0.00348
0.00348
0.00348
0.00348
0.00348
0.00348
0.00348
0.00348
0.00348
0.00348
0.00348
0.00348
0.00348
0.00348
0.00348
0.00348
0.00348
0.00348
0.00348
0.00348
0.00348
0.00348
0.00348
0.00348
0.00348
0.00348
0.00348
0.00348
0.00348
0.00348
0.00348
0.00348
0.00348
0.00348
0.00348
0.00348
0.00348
0.00348
0.00348
0.00348
0.00348
0.00348
0.00348
0.00348
0.0034799999
0.0034799999
0.0034799999
0.0034799998
0.0034799998
0.0034799997
0.0034799996
0.0034799994
0.0034799992
0.0034799989
0.0034799985
0.0034799979
0.0034799972
0.0034799962
0.0034799949
0.0034799931
0.0034799908
0.0034799877
0.0034799836
0.0034799782
0.0034799713
0.0034799623
0.0034799506
0.0034799356
0.0034799163
0.0034798918
0.0034798607
0.0034798214
0.003479772
0.0034797102
0.0034796333
0.0034795381
0.0034794208
0.0034792771
0.0034791019
0.0034788894
0.0034786332
0.003478326
0.0034779594
0.0034775246
0.0034770116
0.0034764098
0.0034757079
0.0034748936
0.0034739543
0.0034728769
0.003471648
0.0034702538
0.0034686809
0.0034669158
0.0034649456
0.0034627578
0.0034603406
0.0034576834
0.0034547765
0.0034516112
0.0034481803
0.0034444778
0.003440499
0.0034362409
0.0034317014
0.0034268802
0.0034217778
0.0034163963
0.0034107387
0.003404809
0.003398612
0.0033921537
0.0033854403
0.0033784788
0.0033712766
0.0033638417
0.003356182
0.0033483059
0.0033402216
0.0033319378
0.0033234628
0.0033148049
0.0033059725
0.0032969736
0.0032878162
0.0032785079
0.0032690564
0.0032594688
0.0032497522
0.0032399134
0.0032299588
0.0032198947
0.003209727
0.0031994615
0.0031891037
0.0031786587
0.0031681316
0.0031575269
0.0031468493
0.0031361027
0.0031252921
0.0031144178
0.0031034944
0.0030924927
0.0030815019
0.003070314
0.0030593996
0.0030478162
0.0030372717
0.0030249884
0.0030151524
0.0030017552
0.0029932079
0.0029777101
0.0029718276
0.002951849
0.002951827
0.0029283822
0.0029267214
0.0029060691
0.0029060445
0.0028827128
0.0028840929
0.0028586694
0.0028616578
0.0028360841
0.0028365489
0.0028138195
0.0028140429
0.0027906029
0.0027916153
0.0027668248
0.0027687918
0.0027438414
0.0027462812
0.0027211951
0.0027243981
0.0026989642
0.0027034374
0.0026775509
0.0026831853
0.0026575504
0.0026632273
0.0026376674
0.0026440799
0.0026236513
0.0026223407
0.0026094339
0.0026041406
0.0025941161
0.002586528
0.002583674
0.0025691976
0.0025767575
0.0025540122
0.0025632813
0.0025338322
0.0025498914
0.002525436
0.0025251115
0.0025149788
0.0025091525
0.0025036831
0.0024991935
0.002495369
0.0024925675
0.0024901077
0.0024882039
0.002486288
0.002484692
0.0024832787
0.002482002
0.0024812616
0.0024805467
0.0024806597
0.0024807457
0.0024809784
0.0024812952
0.0024813581
0.0024819586
0.0024817539
0.0024826083
0.0024825864
0.002483276
0.0024835288
0.0024840157
0.0024843951
0.0024844707
0.0024851175
0.0024850639
0.0024858211
0.0024858092
0.0024865031
0.0024861818
0.0024871427
0.0024870257
0.0024879278
0.0024879478
0.0024882924
0.0024887257
0.0024887209
0.0024893703
0.0024892333
0.0024900696
0.002489947
0.0024908192
0.002490884
0.0024918681
0.0024919785
0.0024931554
0.0024927636
0.002495089
0.0024957095
0.0024975819
0.0024981252
0.0025001428
0.0025026809
0.0025065544
0.0025112454
0.0025177108
0.0025254991
0.0025358338
0.002548111
0.0025637396
0.002582137
0.0026047363
0.0026310784
0.0026622482
0.0026980575
0.0027391693
0.002785326
0.002836633
0.002892801
0.0029532866
0.003017753
0.0030850436
0.0031547274
0.0032252511
0.0032959814
0.0033654509
0.0034328719
0.0034973577
0.0035577905
0.0036139575
0.0036651266
0.003711075
0.0037518104
0.0037874139
0.0038180892
0.0038442713
0.0038662288
0.0038844523
0.0038994574
0.0039114995
0.0039213159
0.0039289083
0.0039350776
0.00393966
0.0039433874
0.0039459202
0.0039481726
0.0039494168
0.0039504885
0.0039511434
0.0039515929
0.0039517809
0.0039518982
0.0039518396
0.0039518463
0.0039515663
0.0039515601
0.0039515008
0.0039513635
0.0039512303
0.0039511523
0.0039510916
0.0039510741
0.0039509638
0.0039509537
0.0039507523
0.0039506412
0.0039502657
0.0039499259
0.003949004
0.0039489065
0.0039471315
0.0039478932
0.0039441071
0.0039458808
0.0039381015
0.0039408504
0.0039270838
0.0039298326
0.0039106067
0.0039071523
0.0038759494
0.0038758481
0.0038152499
0.0038008358
0.0037356055
0.0036784814
0.0035925449
0.0034936378
0.0033768629
0.0032488058
0.0031206477
0.0030083976
0.0029226508
0.0028644672
0.002828249
0.0028069281
0.0027948071
0.0027880653
0.0027843668
0.0027823555
0.0027812676
0.0027806811
0.0027803657
0.0027801962
0.0027801052
0.0027800564
0.0027800303
0.0027800162
0.0027800087
0.0027800047
0.0027800025
0.0027800013
0.0027800007
0.0027800004
0.0027800002
0.0027800001
0.0027800001
0.00278
0.00278
0.00278
0.00278
0.00278
0.00278
0.00278
0.00278
0.00278
0.00278
0.00278
0.00278
0.00278
0.00278
0.00278
0.00278
0.00278
0.00278
0.00278
0.00278
0.00278
0.00278
0.00278
0.00278
0.00278
0.00278
0.00278
0.00278
0.00278
0.00278
0.00278
0.00278
0.00278
0.00278
0.00278
0.00278
0.00278
0.00278
0.00278
0.00278
0.00278
0.00278
0.00278
0.00278
0.00278
0.00278
0.00278
0.00278
0.00278
0.00278
0.00278
0.00278
0.00278
0.00278
0.00278
0.00278
0.00278
0.00278
0.00278
0.00278
0.00278
0.00278
0.00278
0.00278
0.00278
0.00278
0.00278
0.00278
0.00278
0.00278
0.00278
0.00278
0.00278
0.00278
0.00278
0.00278
0.00278
0.00278
0.00278
0.00278
0.00278
0.00278
0.00278
0.00278
0.00278
0.00278
0.00278
0.00278
0.00278
0.00278
0.00278
0.00278
0.00278
0.00278
0.00278
0.00278
0.00278
0.00278
0.00278
0.00278
0.00278
0.00278
0.00278
0.00278
0.00278
0.00278
0.00278
0.00278
0.00278
0.00278
0.00278
0.00278
0.00278
0.00278
0.00278
0.00278
0.00278
0.00278
0.00278
0.00278
0.00278
0.00278
0.00278
0.00278
0.00278
0.00278
0.00278
0.00278
0.00278
0.00278
0.00278
0.00278
0.00278
0.00278
0.00278
0.00278
0.00278
0.00278
0.00278
0.00278
0.00278
0.00278
0.00278
0.00278
0.00278
0.00278
0.00278
0.00278
0.00278
0.00278
0.00278
0.00278
0.00278
0.00278
0.00278
0.00278
0.00278
0.00278
0.00278
0.00278
0.00278
0.00278
0.00278
0.00278
0.00278
0.00278
0.00278
0.00278
0.00278
0.00278
0.00278
0.00278
0.00278
0.00278
0.00278
0.00278
0.00278
0.00278
0.00278
0.00278
0.00278
0.00278
0.00278
0.00278
0.00278
0.00278
0.00278
0.00278
0.00278
0.00278
0.00278
0.00278
0.00278
0.00278
0.00278
0.00278
0.00278
0.00278
0.00278
0.00278
0.00278
0.00278
0.00278
0.00278
0.00278
0.00278
0.00278
0.00278
0.00278
0.00278
0.00278
0.00278
0.00278
0.00278
0.00278
0.00278
0.00278
0.00278
0.00278
0.00278
0.00278
0.00278
0.00278
0.00278
0.00278
0.00278
0.00278
0.00278
0.00278
0.00278
0.00278
0.00278
0.00278
0.00278
0.00278
0.00278
0.00278
0.00278
0.00278
0.00278
0.00278
0.00278
0.00278
0.00278
0.00278
0.00278
0.00278
0.00278
0.00278
0.00278
0.00278
0.00278
0.00278
0.00278
0.00278
0.00278
0.00278
0.00278
0.00278
0.00278
0.00278
0.00278
0.00278
0.00278
0.00278
0.00278
0.00278
0.00278
0.00278
0.00278
0.00278
0.00278
0.00278
0.00278
0.00278
0.00278
0.00278
0.00278
0.00278
0.00278
0.00278
0.00278
0.00278
0.00278
0.00278
0.00278
0.00278
0.00278
0.00278
0.00278
0.00278
0.00278
0.00278
0.00278
0.00278
0.00278
0.00278
0.00278
0.00278
0.00278
0.00278
0.00278
0.00278
0.00278
0.00278
0.00278
0.00278
0.00278
0.00278
0.00278
0.00278
0.00278
0.00278
0.00278
0.00278
0.00278
0.00278
0.00278
0.00278
0.00278
0.00278
0.00278
0.00278
0.00278
0.00278
0.00278
0.00278
0.00278
0.00278
0.00278
0.00278
)
;

boundaryField
{
    sides
    {
        type            zeroGradient;
    }
    emptywalls
    {
        type            empty;
    }
}


// ************************************************************************* //
