/*--------------------------------*- C++ -*----------------------------------*\
| =========                 |                                                 |
| \\      /  F ield         | OpenFOAM: The Open Source CFD Toolbox           |
|  \\    /   O peration     | Version:  2112                                  |
|   \\  /    A nd           | Website:  www.openfoam.com                      |
|    \\/     M anipulation  |                                                 |
\*---------------------------------------------------------------------------*/
FoamFile
{
    version     2.0;
    format      ascii;
    arch        "LSB;label=32;scalar=64";
    class       volScalarField;
    location    "50";
    object      T;
}
// * * * * * * * * * * * * * * * * * * * * * * * * * * * * * * * * * * * * * //

dimensions      [0 0 0 1 0 0 0];

internalField   nonuniform List<scalar> 
10000
(
3.78066e-14
3.36496e-14
2.92122e-14
2.55801e-14
2.26637e-14
2.06286e-14
1.95697e-14
1.94701e-14
2.04826e-14
2.20283e-14
2.20058e-13
1.94876e-13
1.68765e-13
1.47133e-13
1.2994e-13
1.18096e-13
1.12066e-13
1.11784e-13
1.17787e-13
1.2729e-13
7.25202e-13
6.36876e-13
5.46813e-13
4.72329e-13
4.14618e-13
3.75796e-13
3.56858e-13
3.58027e-13
3.79886e-13
4.13572e-13
2.12837e-12
1.85871e-12
1.58002e-12
1.35014e-12
1.17622e-12
1.06211e-12
1.00949e-12
1.01903e-12
1.08951e-12
1.19152e-12
5.98195e-12
5.20675e-12
4.38707e-12
3.7108e-12
3.20755e-12
2.88408e-12
2.74214e-12
2.78123e-12
2.99072e-12
3.2782e-12
1.64725e-11
1.43062e-11
1.19681e-11
1.0034e-11
8.60948e-12
7.70684e-12
7.32285e-12
7.44861e-12
8.03751e-12
8.81666e-12
4.48054e-11
3.88523e-11
3.23277e-11
2.69082e-11
2.29356e-11
2.04366e-11
1.93833e-11
1.9732e-11
2.13197e-11
2.33778e-11
1.20766e-10
1.04608e-10
8.67013e-11
7.17535e-11
6.08058e-11
5.39231e-11
5.09899e-11
5.18436e-11
5.59803e-11
6.13109e-11
3.23152e-10
2.79716e-10
2.31173e-10
1.90454e-10
1.60571e-10
1.41692e-10
1.33429e-10
1.35254e-10
1.4572e-10
1.59297e-10
8.59523e-10
7.43654e-10
6.13323e-10
5.03468e-10
4.22517e-10
3.70913e-10
3.47473e-10
3.50618e-10
3.76392e-10
4.10455e-10
2.27446e-09
1.96733e-09
1.6201e-09
1.32598e-09
1.10805e-09
9.67425e-10
9.00743e-10
9.0352e-10
9.65305e-10
1.04949e-09
5.99162e-09
5.18195e-09
4.26274e-09
3.48009e-09
2.89644e-09
2.51431e-09
2.32464e-09
2.31518e-09
2.45884e-09
2.66388e-09
1.57198e-08
1.35956e-08
1.11751e-08
9.10321e-09
7.54727e-09
6.51186e-09
5.97353e-09
5.89982e-09
6.22147e-09
6.71328e-09
4.10891e-08
3.55392e-08
2.91938e-08
2.37358e-08
1.96043e-08
1.68083e-08
1.52856e-08
1.49527e-08
1.56384e-08
1.67953e-08
1.07021e-07
9.25792e-08
7.60134e-08
6.17003e-08
5.07722e-08
4.32463e-08
3.89565e-08
3.76938e-08
3.905e-08
4.17087e-08
2.77775e-07
2.40338e-07
1.97286e-07
1.59926e-07
1.31126e-07
1.10938e-07
9.89038e-08
9.45188e-08
9.68562e-08
1.0279e-07
7.1839e-07
6.21713e-07
5.1046e-07
4.13409e-07
3.37798e-07
2.83808e-07
2.50193e-07
2.35787e-07
2.38574e-07
2.5132e-07
1.85055e-06
1.60244e-06
1.31672e-06
1.06591e-06
8.68282e-07
7.24241e-07
6.30719e-07
5.85228e-07
5.83453e-07
6.09296e-07
4.74535e-06
4.11391e-06
3.38501e-06
2.74112e-06
2.22739e-06
1.84429e-06
1.58518e-06
1.44536e-06
1.41639e-06
1.46358e-06
1.21058e-05
1.05123e-05
8.66857e-06
7.02956e-06
5.70296e-06
4.68885e-06
3.97424e-06
3.55283e-06
3.41204e-06
3.48134e-06
3.06885e-05
2.67046e-05
2.20954e-05
1.79692e-05
1.45716e-05
1.19044e-05
9.94433e-06
8.69475e-06
8.15439e-06
8.19286e-06
7.71511e-05
6.73397e-05
5.59954e-05
4.57526e-05
3.71482e-05
3.01882e-05
2.48469e-05
2.11982e-05
1.93312e-05
1.90569e-05
0.000191875
0.000168224
0.000140872
0.000115914
9.44561e-05
7.64809e-05
6.20477e-05
5.15469e-05
4.54707e-05
4.37807e-05
0.000470598
0.000415114
0.000350972
0.000291705
0.000239298
0.000193573
0.000155019
0.000125224
0.000106234
9.92797e-05
0.00113329
0.00100787
0.000863021
0.000727178
0.000602852
0.00048907
0.000387787
0.000304622
0.000247038
0.000222175
0.00266485
0.00239543
0.00208476
0.00178824
0.00150521
0.00123106
0.000971529
0.000744341
0.000574188
0.0004912
0.00607736
0.00553748
0.00491707
0.00431259
0.00370515
0.00307529
0.00243496
0.00183331
0.00134383
0.00107643
0.0133373
0.0123553
0.011235
0.0101178
0.00892071
0.00757282
0.0060831
0.00456601
0.00321329
0.0023689
0.0279236
0.0263719
0.0246322
0.0228513
0.0207745
0.0181821
0.0150173
0.0114767
0.0079809
0.00537606
0.0552749
0.0533311
0.0512472
0.0490493
0.04612
0.0419075
0.0361298
0.0289431
0.0214828
0.0144236
3.41492e-14
3.05098e-14
2.65762e-14
2.33303e-14
2.07045e-14
1.8868e-14
1.78945e-14
1.77815e-14
1.86501e-14
1.99674e-14
1.9775e-13
1.76281e-13
1.53337e-13
1.3404e-13
1.1859e-13
1.07917e-13
1.02385e-13
1.02008e-13
1.07073e-13
1.14838e-13
6.4628e-13
5.72782e-13
4.94788e-13
4.28634e-13
3.76984e-13
3.4207e-13
3.24893e-13
3.25537e-13
3.43575e-13
3.70274e-13
1.8855e-12
1.66404e-12
1.42526e-12
1.2224e-12
1.06729e-12
9.64863e-13
9.17251e-13
9.23973e-13
9.80913e-13
1.06126e-12
5.28048e-12
4.64757e-12
3.95101e-12
3.35792e-12
2.91039e-12
2.62046e-12
2.49115e-12
2.51876e-12
2.68536e-12
2.91046e-12
1.45081e-11
1.27462e-11
1.07732e-11
9.08544e-12
7.82094e-12
7.01159e-12
6.65853e-12
6.7446e-12
7.20685e-12
7.81307e-12
3.94089e-11
3.45765e-11
2.90957e-11
2.43843e-11
2.08638e-11
1.86208e-11
1.76435e-11
1.78686e-11
1.91009e-11
2.06979e-11
1.0615e-10
9.30435e-11
7.80325e-11
6.50743e-11
5.53856e-11
4.92011e-11
4.64603e-11
4.69599e-11
5.01372e-11
5.42686e-11
2.8396e-10
2.48725e-10
2.08085e-10
1.72854e-10
1.46433e-10
1.29452e-10
1.21699e-10
1.2257e-10
1.3052e-10
1.41029e-10
7.5524e-10
6.61208e-10
5.52181e-10
4.57246e-10
3.85715e-10
3.39264e-10
3.17238e-10
3.17944e-10
3.3727e-10
3.63581e-10
1.99873e-09
1.74933e-09
1.45899e-09
1.20494e-09
1.01245e-09
8.85781e-10
8.23153e-10
8.19986e-10
8.65552e-10
9.30415e-10
5.2664e-09
4.60848e-09
3.83979e-09
3.16391e-09
2.64845e-09
2.30415e-09
2.12637e-09
2.10303e-09
2.20671e-09
2.36404e-09
1.38212e-08
1.20936e-08
1.00681e-08
8.27962e-09
6.90473e-09
5.97237e-09
5.4692e-09
5.36418e-09
5.5898e-09
5.9645e-09
3.61399e-08
3.1623e-08
2.63101e-08
2.15986e-08
1.79456e-08
1.54283e-08
1.40093e-08
1.3611e-08
1.40702e-08
1.49442e-08
9.41733e-08
8.24096e-08
6.85331e-08
5.61753e-08
4.65056e-08
3.97303e-08
3.57448e-08
3.43592e-08
3.51929e-08
3.71805e-08
2.44553e-07
2.14049e-07
1.77975e-07
1.45701e-07
1.202e-07
1.02015e-07
9.0864e-08
8.63034e-08
8.74647e-08
9.18361e-08
6.32794e-07
5.54078e-07
4.6083e-07
3.76915e-07
3.09955e-07
2.61238e-07
2.30157e-07
2.15728e-07
2.15956e-07
2.25122e-07
1.63123e-06
1.42905e-06
1.18949e-06
9.72612e-07
7.97589e-07
6.675e-07
5.81207e-07
5.36649e-07
5.29641e-07
5.4744e-07
4.18725e-06
3.67197e-06
3.06068e-06
2.50383e-06
2.04859e-06
1.7027e-06
1.46406e-06
1.32903e-06
1.29018e-06
1.3201e-06
1.06947e-05
9.3942e-06
7.84747e-06
6.42954e-06
5.25247e-06
4.3373e-06
3.68011e-06
3.27763e-06
3.12078e-06
3.15457e-06
2.71492e-05
2.39018e-05
2.00371e-05
1.64637e-05
1.34468e-05
1.10375e-05
9.23614e-06
8.05394e-06
7.49478e-06
7.46545e-06
6.84016e-05
6.04138e-05
5.09081e-05
4.2024e-05
3.43778e-05
2.80784e-05
2.31694e-05
1.97389e-05
1.7877e-05
1.74872e-05
0.000170675
0.000151422
0.000128501
0.000106833
8.77309e-05
7.14358e-05
5.8158e-05
4.83083e-05
4.23761e-05
4.05185e-05
0.000420416
0.000375283
0.000321537
0.000270026
0.000223279
0.000181748
0.000146219
0.000118276
9.99344e-05
9.28205e-05
0.00101821
0.000916375
0.000795067
0.000676877
0.000565755
0.000462166
0.000368598
0.000290462
0.000235032
0.000210226
0.00241209
0.00219415
0.00193439
0.0016763
0.0014229
0.00117267
0.000932154
0.000717938
0.000553756
0.00047126
0.00555337
0.00512038
0.00460374
0.00407844
0.00353436
0.00295827
0.00236284
0.00179271
0.00131688
0.0010486
0.0123318
0.0115593
0.0106362
0.00967207
0.00860356
0.00737082
0.00598158
0.00453615
0.00320727
0.00234539
0.0261851
0.0250209
0.0236277
0.0221243
0.0202966
0.017941
0.0149893
0.0116117
0.00811174
0.00539869
0.0526766
0.0514118
0.0498936
0.0481724
0.0457119
0.0419775
0.0366445
0.0298502
0.0223894
0.0145816
3.06035e-14
2.74452e-14
2.39844e-14
2.11127e-14
1.87754e-14
1.71294e-14
1.62445e-14
1.61204e-14
1.68693e-14
1.80019e-14
1.76801e-13
1.58347e-13
1.38281e-13
1.21256e-13
1.07523e-13
9.79615e-14
9.29381e-14
9.24465e-14
9.67427e-14
1.03326e-13
5.72874e-13
5.10979e-13
4.43715e-13
3.85872e-13
3.40294e-13
3.09216e-13
2.93651e-13
2.93598e-13
3.0844e-13
3.30516e-13
1.65546e-12
1.47218e-12
1.27018e-12
1.09505e-12
9.59367e-13
8.68813e-13
8.25556e-13
8.28904e-13
8.74117e-13
9.38691e-13
4.598e-12
4.08262e-12
3.50336e-12
2.99764e-12
2.60925e-12
2.35399e-12
2.2358e-12
2.2501e-12
2.37817e-12
2.55454e-12
1.25516e-11
1.11383e-11
9.51876e-12
8.09444e-12
7.00435e-12
6.29334e-12
5.96765e-12
6.00813e-12
6.35314e-12
6.8178e-12
3.3936e-11
3.01026e-11
2.56474e-11
2.1704e-11
1.86851e-11
1.67165e-11
1.58066e-11
1.58907e-11
1.67859e-11
1.79889e-11
9.11197e-11
8.07977e-11
6.86849e-11
5.79051e-11
4.9628e-11
4.4202e-11
4.16336e-11
4.17293e-11
4.39792e-11
4.70498e-11
2.43259e-10
2.15645e-10
1.83015e-10
1.53829e-10
1.31312e-10
1.16414e-10
1.09127e-10
1.08909e-10
1.14394e-10
1.22118e-10
6.46212e-10
5.72755e-10
4.85491e-10
4.07054e-10
3.4618e-10
3.05418e-10
2.84722e-10
2.8263e-10
2.95585e-10
3.1473e-10
1.70913e-09
1.51468e-09
1.28267e-09
1.07313e-09
9.094e-10
7.98254e-10
7.39555e-10
7.29491e-10
7.58995e-10
8.05723e-10
4.50239e-09
3.98992e-09
3.37617e-09
2.81918e-09
2.38073e-09
2.07867e-09
1.91266e-09
1.87303e-09
1.93713e-09
2.04928e-09
1.18171e-08
1.0472e-08
8.85557e-09
7.38168e-09
6.21212e-09
5.39381e-09
4.92603e-09
4.78478e-09
4.91468e-09
5.17873e-09
3.09081e-08
2.73917e-08
2.31525e-08
1.92685e-08
1.61601e-08
1.39498e-08
1.26367e-08
1.21631e-08
1.23961e-08
1.30034e-08
8.05747e-08
7.14163e-08
6.03452e-08
5.01525e-08
4.19208e-08
3.59681e-08
3.22965e-08
3.07715e-08
3.10837e-08
3.24393e-08
2.09368e-07
1.85609e-07
1.56827e-07
1.30194e-07
1.08475e-07
9.24888e-08
8.22594e-08
7.74923e-08
7.74879e-08
8.039e-08
5.42224e-07
4.80862e-07
4.06417e-07
3.37154e-07
2.80084e-07
2.37276e-07
2.08876e-07
1.94296e-07
1.92033e-07
1.97862e-07
1.3993e-06
1.2417e-06
1.05031e-06
8.71171e-07
7.21864e-07
6.07601e-07
5.29023e-07
4.85162e-07
4.73101e-07
4.83556e-07
3.59708e-06
3.19527e-06
2.7067e-06
2.24643e-06
1.85778e-06
1.55388e-06
1.33719e-06
1.207e-06
1.15872e-06
1.17308e-06
9.20566e-06
8.19008e-06
6.95422e-06
5.78134e-06
4.77604e-06
3.97111e-06
3.37556e-06
2.99335e-06
2.82146e-06
2.82392e-06
2.34341e-05
2.08951e-05
1.7806e-05
1.48488e-05
1.22697e-05
1.01486e-05
8.51794e-06
7.40613e-06
6.83175e-06
6.743e-06
5.92601e-05
5.3005e-05
4.54026e-05
3.80503e-05
3.15048e-05
2.59543e-05
2.15105e-05
1.83021e-05
1.64571e-05
1.59649e-05
0.000148572
0.000133469
0.000115145
9.72108e-05
8.0842e-05
6.64616e-05
5.44304e-05
4.52435e-05
3.94723e-05
3.74641e-05
0.000368267
0.000332815
0.000289894
0.000247276
0.000207181
0.000170457
0.000138197
0.000112122
9.44056e-05
8.71126e-05
0.000899177
0.000819153
0.000722522
0.000624881
0.000529523
0.000437731
0.000352507
0.000279356
0.000225755
0.000200719
0.00215228
0.00198136
0.0017756
0.00156322
0.00134592
0.00112379
0.0009039
0.000702233
0.000542297
0.000458762
0.00501979
0.00468294
0.00427873
0.0038504
0.00338554
0.00287389
0.00232762
0.00178727
0.00131846
0.00104296
0.0113243
0.0107371
0.010035
0.00926562
0.00836244
0.00727092
0.00599426
0.00461585
0.00328963
0.00238892
0.0244998
0.0236726
0.0226866
0.0215513
0.0200504
0.0179897
0.0152879
0.0120583
0.00853021
0.00564169
0.0503499
0.0496712
0.0488532
0.047784
0.0459346
0.0427902
0.0380001
0.0315497
0.0240875
0.0156925
2.82715e-14
2.54152e-14
2.2267e-14
1.96493e-14
1.75082e-14
1.59898e-14
1.51626e-14
1.50282e-14
1.56982e-14
1.67219e-14
1.6268e-13
1.46071e-13
1.27931e-13
1.12479e-13
9.99496e-14
9.11605e-14
8.64795e-14
8.59046e-14
8.9703e-14
9.56261e-14
5.22725e-13
4.67524e-13
4.07431e-13
3.5546e-13
3.14256e-13
2.85929e-13
2.71479e-13
2.70952e-13
2.83834e-13
3.0349e-13
1.49621e-12
1.33512e-12
1.15743e-12
1.00212e-12
8.8073e-13
7.98849e-13
7.58716e-13
7.59813e-13
7.97989e-13
8.54274e-13
4.11971e-12
3.67379e-12
3.17223e-12
2.72961e-12
2.38549e-12
2.15606e-12
2.04599e-12
2.05136e-12
2.15603e-12
2.30617e-12
1.11645e-11
9.95991e-12
8.57767e-12
7.3457e-12
6.38793e-12
5.75151e-12
5.44621e-12
5.4558e-12
5.72815e-12
6.11449e-12
3.00166e-11
2.67919e-11
2.30348e-11
1.96567e-11
1.70215e-11
1.52639e-11
1.44056e-11
1.43934e-11
1.50756e-11
1.60543e-11
8.02705e-11
7.16776e-11
6.1557e-11
5.2389e-11
4.5198e-11
4.03598e-11
3.79273e-11
3.77465e-11
3.9401e-11
4.18524e-11
2.13712e-10
1.90901e-10
1.63818e-10
1.39121e-10
1.19619e-10
1.06343e-10
9.94323e-11
9.84687e-11
1.02354e-10
1.08423e-10
5.66743e-10
5.06388e-10
4.34286e-10
3.68133e-10
3.15504e-10
2.79194e-10
2.59582e-10
2.55584e-10
2.64382e-10
2.79218e-10
1.49745e-09
1.33826e-09
1.14712e-09
9.70742e-10
8.29318e-10
7.30324e-10
6.74837e-10
6.60132e-10
6.79127e-10
7.1489e-10
3.94287e-09
3.52431e-09
3.01952e-09
2.55117e-09
2.17256e-09
1.90354e-09
1.74716e-09
1.69679e-09
1.73498e-09
1.81978e-09
1.03474e-08
9.25029e-09
7.92204e-09
6.68316e-09
5.67318e-09
4.94437e-09
4.50546e-09
4.34082e-09
4.40842e-09
4.60554e-09
2.70688e-08
2.42021e-08
2.072e-08
1.74553e-08
1.47703e-08
1.28018e-08
1.15749e-08
1.10543e-08
1.11413e-08
1.1588e-08
7.05932e-08
6.31279e-08
5.40349e-08
4.54655e-08
3.83524e-08
3.3051e-08
2.9634e-08
2.80278e-08
2.80076e-08
2.89851e-08
1.8354e-07
1.64171e-07
1.4053e-07
1.1813e-07
9.93542e-08
8.51177e-08
7.56343e-08
7.07694e-08
7.0036e-08
7.20691e-08
4.75723e-07
4.25692e-07
3.64534e-07
3.06258e-07
2.56889e-07
2.18768e-07
1.92531e-07
1.78007e-07
1.74223e-07
1.78109e-07
1.22908e-06
1.10054e-06
9.43258e-07
7.92472e-07
6.63231e-07
5.61469e-07
4.89088e-07
4.46208e-07
4.31198e-07
4.37457e-07
3.16441e-06
2.8364e-06
2.4348e-06
2.04723e-06
1.71062e-06
1.4399e-06
1.24076e-06
1.11528e-06
1.06196e-06
1.06767e-06
8.11526e-06
7.28508e-06
6.26901e-06
5.28113e-06
4.40998e-06
3.69257e-06
3.14614e-06
2.78157e-06
2.60319e-06
2.58892e-06
2.07153e-05
1.86365e-05
1.60964e-05
1.36054e-05
1.13691e-05
9.47741e-06
7.9824e-06
6.92916e-06
6.35397e-06
6.23571e-06
5.25742e-05
4.74431e-05
4.11922e-05
3.50001e-05
2.93213e-05
2.43666e-05
2.02916e-05
1.72637e-05
1.54525e-05
1.49156e-05
0.000132433
0.000120016
0.00010496
8.98643e-05
7.56563e-05
6.28029e-05
5.17562e-05
4.3093e-05
3.74802e-05
3.54205e-05
0.000330274
0.000301064
0.000265854
0.000230029
0.000195221
0.000162346
0.000132656
0.000108019
9.08153e-05
8.34872e-05
0.00081272
0.000746686
0.000667676
0.00058584
0.000503102
0.000420798
0.000342117
0.000272697
0.000220419
0.000195306
0.00196443
0.00182342
0.00165639
0.00147946
0.00129133
0.00109194
0.000888215
0.000695676
0.000538335
0.000453836
0.00463682
0.00436049
0.00403735
0.00368503
0.00328481
0.00282576
0.0023181
0.00179883
0.00133266
0.00105026
0.0106111
0.010139
0.00959717
0.00898186
0.00821476
0.00723947
0.00605199
0.00472052
0.00338733
0.00245084
0.0233415
0.0227201
0.0220306
0.0211877
0.0199556
0.0181379
0.0156347
0.012509
0.00894036
0.00590222
0.0488698
0.0485406
0.0482307
0.0476741
0.0463182
0.043651
0.0392886
0.0331038
0.0256194
0.0167446
2.70149e-14
2.43194e-14
2.1336e-14
1.88508e-14
1.68158e-14
1.5367e-14
1.45717e-14
1.44353e-14
1.50643e-14
1.60288e-14
1.55117e-13
1.39486e-13
1.22349e-13
1.07725e-13
9.58435e-14
8.74731e-14
8.29777e-14
8.23699e-14
8.59172e-14
9.14837e-14
4.96465e-13
4.44494e-13
3.88137e-13
3.39267e-13
3.00393e-13
2.73526e-13
2.5966e-13
2.58885e-13
2.70762e-13
2.89288e-13
1.41373e-12
1.26322e-12
1.09779e-12
9.52771e-13
8.38934e-13
7.6164e-13
7.23149e-13
7.23141e-13
7.57907e-13
8.10391e-13
3.87307e-12
3.46002e-12
2.99683e-12
2.5867e-12
2.26595e-12
2.05023e-12
1.94451e-12
1.94562e-12
2.03936e-12
2.1776e-12
1.04503e-11
9.34352e-12
8.07757e-12
6.94441e-12
6.05656e-12
5.45995e-12
5.16587e-12
5.16085e-12
5.39958e-12
5.75084e-12
2.79978e-11
2.50571e-11
2.16419e-11
1.85543e-11
1.61222e-11
1.44778e-11
1.36486e-11
1.35912e-11
1.41747e-11
1.50532e-11
7.46757e-11
6.68892e-11
5.7746e-11
4.94075e-11
4.27924e-11
3.82711e-11
3.59173e-11
3.56064e-11
3.69842e-11
3.91585e-11
1.98452e-10
1.77884e-10
1.5353e-10
1.31147e-10
1.13247e-10
1.00849e-10
9.4159e-11
9.28461e-11
9.59867e-11
1.01312e-10
5.25639e-10
4.71415e-10
4.06796e-10
3.46986e-10
2.98746e-10
2.64851e-10
2.45878e-10
2.40995e-10
2.47854e-10
2.60746e-10
1.38779e-09
1.24517e-09
1.07426e-09
9.15026e-10
7.85488e-10
6.93103e-10
6.39505e-10
6.22674e-10
6.36777e-10
6.67583e-10
3.65259e-09
3.2784e-09
2.82766e-09
2.40517e-09
2.05849e-09
1.80746e-09
1.65671e-09
1.60153e-09
1.62771e-09
1.70017e-09
9.58427e-09
8.60466e-09
7.41954e-09
6.3024e-09
5.37764e-09
4.69765e-09
4.27552e-09
4.10079e-09
4.13969e-09
4.30667e-09
2.50743e-08
2.2516e-08
1.94101e-08
1.64666e-08
1.4008e-08
1.21715e-08
1.09943e-08
1.04549e-08
1.04753e-08
1.085e-08
6.54088e-08
5.87459e-08
5.06358e-08
4.29092e-08
3.63946e-08
3.14495e-08
2.81787e-08
2.6545e-08
2.63756e-08
2.71852e-08
1.7013e-07
1.52836e-07
1.3175e-07
1.11551e-07
9.4351e-08
8.10728e-08
7.20154e-08
6.7139e-08
6.60859e-08
6.77376e-08
4.412e-07
3.96516e-07
3.41974e-07
2.89411e-07
2.44173e-07
2.08621e-07
1.83612e-07
1.69222e-07
1.64795e-07
1.67843e-07
1.14067e-06
1.02589e-06
8.85613e-07
7.4958e-07
6.31117e-07
5.36212e-07
4.67337e-07
4.25238e-07
4.0906e-07
4.13556e-07
2.9396e-06
2.64667e-06
2.28846e-06
1.93876e-06
1.63013e-06
1.37761e-06
1.18837e-06
1.06604e-06
1.01099e-06
1.01321e-06
7.54864e-06
6.80678e-06
5.90042e-06
5.00903e-06
4.21007e-06
3.54076e-06
3.02191e-06
2.66829e-06
2.4887e-06
2.46806e-06
1.9303e-05
1.74437e-05
1.51773e-05
1.29298e-05
1.08783e-05
9.11278e-06
7.69367e-06
6.6754e-06
6.10483e-06
5.97661e-06
4.91036e-05
4.45081e-05
3.89303e-05
3.33452e-05
2.81346e-05
2.35078e-05
1.96385e-05
1.67154e-05
1.49333e-05
1.43851e-05
0.000124062
0.000112913
9.94912e-05
8.58845e-05
7.2847e-05
6.08351e-05
5.0336e-05
4.19709e-05
3.64651e-05
3.44041e-05
0.000310569
0.000284295
0.000252953
0.000220703
0.000188767
0.000158017
0.000129754
0.000105922
8.90322e-05
8.17367e-05
0.000767883
0.000708453
0.000638264
0.000564772
0.000488917
0.000411864
0.000336808
0.000269449
0.000217931
0.000192867
0.00186711
0.00174011
0.0015925
0.00143437
0.0012622
0.00107544
0.000880664
0.000693105
0.000537166
0.000452281
0.0044388
0.00419055
0.00390817
0.00359624
0.00323154
0.00280176
0.0023155
0.0018076
0.00134259
0.00105659
0.0102441
0.00982473
0.00936351
0.0088301
0.00813773
0.00722716
0.00608908
0.00478277
0.00344499
0.00248911
0.0227528
0.0222244
0.0216835
0.0209947
0.0199091
0.0182261
0.0158329
0.012764
0.00916996
0.00605037
0.0481469
0.0479748
0.0479139
0.0476214
0.0465281
0.0441206
0.0399931
0.0339466
0.0264394
0.0172898
2.69511e-14
2.42626e-14
2.12911e-14
1.88144e-14
1.67827e-14
1.53355e-14
1.45405e-14
1.44004e-14
1.50237e-14
1.59842e-14
1.54733e-13
1.39155e-13
1.22084e-13
1.07499e-13
9.56369e-14
8.72771e-14
8.27846e-14
8.21645e-14
8.56806e-14
9.12149e-14
4.95122e-13
4.43574e-13
3.87322e-13
3.38527e-13
2.99708e-13
2.7288e-13
2.5903e-13
2.58245e-13
2.7008e-13
2.88357e-13
1.41014e-12
1.2605e-12
1.09541e-12
9.50677e-13
8.37015e-13
7.59829e-13
7.2137e-13
7.21289e-13
7.55892e-13
8.07871e-13
3.86368e-12
3.45221e-12
2.99012e-12
2.58083e-12
2.26062e-12
2.04522e-12
1.93957e-12
1.94043e-12
2.03362e-12
2.17091e-12
1.04253e-11
9.32186e-12
8.05886e-12
6.92804e-12
6.04179e-12
5.44611e-12
5.15221e-12
5.14653e-12
5.38376e-12
5.73292e-12
2.79306e-11
2.49976e-11
2.15897e-11
1.85085e-11
1.60812e-11
1.44395e-11
1.3611e-11
1.35518e-11
1.41315e-11
1.50052e-11
7.44952e-11
6.67279e-11
5.76008e-11
4.92798e-11
4.26784e-11
3.81654e-11
3.58138e-11
3.54989e-11
3.68676e-11
3.90305e-11
1.97972e-10
1.77446e-10
1.53127e-10
1.30793e-10
1.12932e-10
1.00559e-10
9.3877e-11
9.25555e-11
9.56742e-11
1.00972e-10
5.24369e-10
4.70179e-10
4.05687e-10
3.46015e-10
2.97887e-10
2.64064e-10
2.45118e-10
2.40217e-10
2.47025e-10
2.59855e-10
1.38433e-09
1.24174e-09
1.07124e-09
9.12391e-10
7.83166e-10
6.9099e-10
6.3748e-10
6.2062e-10
6.34605e-10
6.65263e-10
3.64303e-09
3.26927e-09
2.81957e-09
2.3981e-09
2.05228e-09
1.80185e-09
1.65138e-09
1.59617e-09
1.62209e-09
1.69419e-09
9.55848e-09
8.58058e-09
7.398e-09
6.2836e-09
5.36118e-09
4.68286e-09
4.26159e-09
4.08694e-09
4.12528e-09
4.29144e-09
2.50063e-08
2.24533e-08
1.93531e-08
1.64168e-08
1.39646e-08
1.21329e-08
1.09583e-08
1.04195e-08
1.04388e-08
1.08116e-08
6.5233e-08
5.85842e-08
5.04851e-08
4.27778e-08
3.6281e-08
3.13491e-08
2.80862e-08
2.64552e-08
2.6284e-08
2.70895e-08
1.69683e-07
1.52402e-07
1.31351e-07
1.11206e-07
9.40546e-08
8.08136e-08
7.17798e-08
6.69133e-08
6.58584e-08
6.75015e-08
4.4004e-07
3.95327e-07
3.40923e-07
2.88508e-07
2.43404e-07
2.07957e-07
1.83017e-07
1.6866e-07
1.64236e-07
1.67268e-07
1.13756e-06
1.02275e-06
8.82883e-07
7.47241e-07
6.29135e-07
5.34517e-07
4.65841e-07
4.2385e-07
4.077e-07
4.12167e-07
2.93124e-06
2.63863e-06
2.28141e-06
1.93273e-06
1.62505e-06
1.37331e-06
1.18463e-06
1.06264e-06
1.00771e-06
1.00989e-06
7.52671e-06
6.78613e-06
5.88224e-06
4.99353e-06
4.19707e-06
3.52986e-06
3.0126e-06
2.66e-06
2.48087e-06
2.46025e-06
1.9246e-05
1.739e-05
1.51305e-05
1.289e-05
1.08451e-05
9.08525e-06
7.67057e-06
6.6553e-06
6.08628e-06
5.95836e-06
4.89544e-05
4.43686e-05
3.88107e-05
3.32434e-05
2.805e-05
2.34382e-05
1.95812e-05
1.66668e-05
1.48897e-05
1.43428e-05
0.000123672
0.000112565
9.91883e-05
8.56254e-05
7.26315e-05
6.06592e-05
5.01935e-05
4.18534e-05
3.63628e-05
3.43071e-05
0.000309582
0.000283428
0.000252189
0.000220047
0.000188219
0.000157571
0.000129399
0.000105638
8.87938e-05
8.15162e-05
0.000765454
0.000706272
0.000636362
0.000563122
0.000487526
0.000410735
0.000335922
0.000268762
0.000217378
0.000192373
0.00186124
0.00173487
0.00158785
0.00143026
0.00125869
0.00107257
0.000878438
0.000691429
0.000535886
0.000451193
0.0044252
0.00417833
0.00389701
0.00358615
0.00322274
0.00279447
0.00230985
0.00180346
0.00133959
0.00105421
0.0102141
0.00979733
0.00933758
0.00880592
0.00811598
0.00720867
0.00607447
0.00477211
0.0034381
0.00248455
0.0226905
0.0221659
0.0216258
0.020939
0.0198571
0.0181804
0.0157962
0.0127391
0.00915416
0.00603712
0.0480262
0.0478561
0.0477935
0.0475006
0.0464102
0.0440118
0.0399007
0.0338763
0.0264091
0.0173055
2.80733e-14
2.52569e-14
2.21348e-14
1.95303e-14
1.73984e-14
1.58857e-14
1.50614e-14
1.49253e-14
1.55842e-14
1.65873e-14
1.61523e-13
1.4516e-13
1.27168e-13
1.11791e-13
9.93149e-14
9.05577e-14
8.58932e-14
8.53078e-14
8.90439e-14
9.48389e-14
5.19009e-13
4.64581e-13
4.04962e-13
3.53255e-13
3.12227e-13
2.84009e-13
2.69601e-13
2.69024e-13
2.81695e-13
3.00936e-13
1.48578e-12
1.32653e-12
1.15021e-12
9.95766e-13
8.74923e-13
7.93372e-13
7.53332e-13
7.54216e-13
7.91742e-13
8.47e-13
4.09134e-12
3.64973e-12
3.15185e-12
2.71176e-12
2.3693e-12
2.14084e-12
2.03099e-12
2.03568e-12
2.13856e-12
2.28614e-12
1.10881e-11
9.89342e-12
8.52057e-12
7.29581e-12
6.343e-12
5.70944e-12
5.40473e-12
5.41237e-12
5.68005e-12
6.06016e-12
2.98104e-11
2.66083e-11
2.28749e-11
1.95171e-11
1.68965e-11
1.51474e-11
1.4291e-11
1.42738e-11
1.49442e-11
1.59081e-11
7.97129e-11
7.11715e-11
6.11112e-11
5.19997e-11
4.48512e-11
4.00385e-11
3.76127e-11
3.74195e-11
3.90453e-11
4.14619e-11
2.12204e-10
1.8951e-10
1.62584e-10
1.38044e-10
1.18663e-10
1.05463e-10
9.8576e-11
9.75844e-11
1.01401e-10
1.07388e-10
5.6266e-10
5.02584e-10
4.30906e-10
3.65182e-10
3.12898e-10
2.76808e-10
2.57276e-10
2.5322e-10
2.61855e-10
2.76497e-10
1.4864e-09
1.32795e-09
1.13796e-09
9.62748e-10
8.2228e-10
7.23921e-10
6.68695e-10
6.53887e-10
6.72507e-10
7.0781e-10
3.91307e-09
3.49662e-09
2.99491e-09
2.52972e-09
2.15375e-09
1.88653e-09
1.73098e-09
1.68049e-09
1.71784e-09
1.80156e-09
1.02677e-08
9.17641e-09
7.85638e-09
6.62604e-09
5.6233e-09
4.89958e-09
4.46325e-09
4.29874e-09
4.36453e-09
4.55913e-09
2.6857e-08
2.40059e-08
2.05455e-08
1.73039e-08
1.46389e-08
1.26847e-08
1.14656e-08
1.09466e-08
1.10301e-08
1.1471e-08
7.00352e-08
6.26086e-08
5.35726e-08
4.5066e-08
3.80078e-08
3.27467e-08
2.93535e-08
2.77548e-08
2.77284e-08
2.86933e-08
1.82076e-07
1.62799e-07
1.39312e-07
1.17081e-07
9.84556e-08
8.43322e-08
7.49196e-08
7.00832e-08
6.93424e-08
7.13491e-08
4.71885e-07
4.22091e-07
3.6135e-07
3.03524e-07
2.5456e-07
2.16754e-07
1.90724e-07
1.76297e-07
1.72518e-07
1.76353e-07
1.21904e-06
1.09119e-06
9.34998e-07
7.85391e-07
6.57229e-07
5.56332e-07
4.84547e-07
4.41986e-07
4.27052e-07
4.33226e-07
3.13833e-06
2.81233e-06
2.41346e-06
2.02898e-06
1.69524e-06
1.42686e-06
1.22941e-06
1.10494e-06
1.05197e-06
1.05758e-06
8.04833e-06
7.22327e-06
6.21404e-06
5.23426e-06
4.37069e-06
3.65962e-06
3.11794e-06
2.75641e-06
2.57939e-06
2.56513e-06
2.05446e-05
1.84762e-05
1.59551e-05
1.34852e-05
1.12689e-05
9.39428e-06
7.91253e-06
6.86827e-06
6.29768e-06
6.18023e-06
5.21352e-05
4.70303e-05
4.08316e-05
3.46933e-05
2.90661e-05
2.41569e-05
2.01186e-05
1.71166e-05
1.53203e-05
1.47873e-05
0.000131306
0.000118974
0.000104047
8.90849e-05
7.50081e-05
6.22741e-05
5.13274e-05
4.27385e-05
3.71711e-05
3.51267e-05
0.000327438
0.000298463
0.000263562
0.000228062
0.000193579
0.000161012
0.000131593
0.000107166
9.00969e-05
8.28217e-05
0.000805756
0.00074029
0.000661998
0.000580917
0.000498961
0.000417436
0.000339473
0.00027064
0.000218756
0.000193814
0.00194781
0.00180806
0.00164256
0.00146727
0.00128093
0.00108345
0.000881598
0.000690681
0.000534488
0.000450526
0.00459857
0.00432463
0.00400441
0.00365533
0.00325894
0.00280433
0.0023014
0.00178653
0.00132368
0.00104296
0.010527
0.0100585
0.00952118
0.00891131
0.00815142
0.0071856
0.00600933
0.0046896
0.0033659
0.00243469
0.0231662
0.0225482
0.0218631
0.0210265
0.0198053
0.0180053
0.0155263
0.0124299
0.00888679
0.00586463
0.0485288
0.048197
0.0478842
0.0473277
0.0459809
0.0433392
0.0390206
0.0328952
0.0254725
0.0166445
3.02694e-14
2.71819e-14
2.37645e-14
2.09139e-14
1.85916e-14
1.69546e-14
1.60749e-14
1.59491e-14
1.66823e-14
1.77839e-14
1.74853e-13
1.56839e-13
1.3702e-13
1.20111e-13
1.06463e-13
9.69502e-14
9.19593e-14
9.14587e-14
9.5663e-14
1.02049e-13
5.66598e-13
5.06095e-13
4.39615e-13
3.82191e-13
3.36898e-13
3.05999e-13
2.90512e-13
2.90401e-13
3.0492e-13
3.26333e-13
1.6377e-12
1.45769e-12
1.25798e-12
1.08429e-12
9.4952e-13
8.59531e-13
8.16457e-13
8.19512e-13
8.63695e-13
9.26553e-13
4.54946e-12
4.04145e-12
3.46846e-12
2.96712e-12
2.58158e-12
2.32801e-12
2.21028e-12
2.22353e-12
2.34864e-12
2.52068e-12
1.24204e-11
1.10236e-11
9.42026e-12
8.0087e-12
6.92732e-12
6.22135e-12
5.8968e-12
5.93402e-12
6.27108e-12
6.72519e-12
3.3582e-11
2.97854e-11
2.53715e-11
2.14643e-11
1.84712e-11
1.65177e-11
1.56111e-11
1.56862e-11
1.65609e-11
1.77387e-11
9.01612e-11
7.99232e-11
6.79185e-11
5.72395e-11
4.90373e-11
4.36557e-11
4.10984e-11
4.11712e-11
4.33699e-11
4.6381e-11
2.40664e-10
2.13254e-10
1.80906e-10
1.51996e-10
1.29692e-10
1.14923e-10
1.07675e-10
1.07403e-10
1.12764e-10
1.20346e-10
6.39205e-10
5.66254e-10
4.79732e-10
4.02049e-10
3.41771e-10
3.01387e-10
2.8082e-10
2.78613e-10
2.91273e-10
3.1008e-10
1.69024e-09
1.4971e-09
1.26709e-09
1.05959e-09
8.9751e-10
7.87453e-10
7.29179e-10
7.18894e-10
7.47713e-10
7.93638e-10
4.45162e-09
3.94277e-09
3.33438e-09
2.7829e-09
2.34896e-09
2.04999e-09
1.88535e-09
1.8454e-09
1.90794e-09
2.0182e-09
1.16812e-08
1.03463e-08
8.74419e-09
7.28508e-09
6.12791e-09
5.31826e-09
4.85474e-09
4.71344e-09
4.83997e-09
5.0996e-09
3.05472e-08
2.70576e-08
2.28562e-08
1.90123e-08
1.5938e-08
1.37521e-08
1.24521e-08
1.19804e-08
1.22066e-08
1.28039e-08
7.96211e-08
7.053e-08
5.95598e-08
4.94758e-08
4.13384e-08
3.5454e-08
3.18218e-08
3.03081e-08
3.06079e-08
3.19414e-08
2.06852e-07
1.83262e-07
1.54755e-07
1.28416e-07
1.06956e-07
9.1161e-08
8.10493e-08
7.63268e-08
7.63056e-08
7.91613e-08
5.35594e-07
4.74698e-07
4.00999e-07
3.3252e-07
2.76143e-07
2.3387e-07
2.05815e-07
1.91392e-07
1.89128e-07
1.94866e-07
1.38195e-06
1.2257e-06
1.03626e-06
8.59179e-07
7.11712e-07
5.98913e-07
5.21331e-07
4.77994e-07
4.66043e-07
4.76341e-07
3.55217e-06
3.154e-06
2.67045e-06
2.21555e-06
1.83179e-06
1.53184e-06
1.31797e-06
1.18945e-06
1.14174e-06
1.15591e-06
9.0907e-06
8.08405e-06
6.86108e-06
5.70219e-06
4.70984e-06
3.91552e-06
3.32789e-06
2.95076e-06
2.78107e-06
2.78354e-06
2.31412e-05
2.06237e-05
1.75678e-05
1.46467e-05
1.21014e-05
1.00088e-05
8.40023e-06
7.30332e-06
6.73655e-06
6.64913e-06
5.85147e-05
5.23151e-05
4.47972e-05
3.75362e-05
3.10775e-05
2.5603e-05
2.122e-05
1.80546e-05
1.62341e-05
1.57486e-05
0.000146691
0.000131736
0.000113621
9.59119e-05
7.97623e-05
6.55802e-05
5.37141e-05
4.46496e-05
3.8953e-05
3.69705e-05
0.000363598
0.000328518
0.000286101
0.000244024
0.000204467
0.000168251
0.000136432
0.0001107
9.3204e-05
8.5999e-05
0.000887852
0.000808692
0.000713213
0.000616817
0.000522742
0.000432217
0.000348151
0.000275946
0.000222984
0.000198232
0.00212557
0.0019565
0.00175317
0.00154348
0.00132909
0.00111002
0.000893107
0.000694008
0.000535901
0.000453258
0.004959
0.00462559
0.00422598
0.00380293
0.00334421
0.0028396
0.00230073
0.00176721
0.00130355
0.00103087
0.0111919
0.0106099
0.00991503
0.00915447
0.00826282
0.00718616
0.00592684
0.00456614
0.00325422
0.00236241
0.024227
0.0234046
0.0224261
0.0213015
0.0198181
0.017785
0.0151205
0.0119346
0.00844289
0.00558066
0.0498255
0.049143
0.0483222
0.047255
0.0454215
0.0423174
0.0375925
0.0312356
0.0238594
0.0155342
3.36544e-14
3.01225e-14
2.62577e-14
2.30431e-14
2.04382e-14
1.86151e-14
1.765e-14
1.75356e-14
1.83846e-14
1.96625e-14
1.94882e-13
1.74076e-13
1.51511e-13
1.32388e-13
1.17058e-13
1.06454e-13
1.00979e-13
1.00593e-13
1.05545e-13
1.13057e-13
6.37007e-13
5.65778e-13
4.88808e-13
4.23275e-13
3.72055e-13
3.37402e-13
3.20355e-13
3.20934e-13
3.38572e-13
3.64417e-13
1.85964e-12
1.64301e-12
1.40727e-12
1.20662e-12
1.05294e-12
9.51422e-13
9.04046e-13
9.10377e-13
9.65972e-13
1.04413e-12
5.21041e-12
4.58677e-12
3.89942e-12
3.31322e-12
2.87013e-12
2.58286e-12
2.45418e-12
2.4803e-12
2.64287e-12
2.86243e-12
1.4319e-11
1.25778e-11
1.06289e-11
8.96078e-12
7.70959e-12
6.90792e-12
6.55654e-12
6.63779e-12
7.08887e-12
7.6813e-12
3.89001e-11
3.41197e-11
2.86967e-11
2.40396e-11
2.05579e-11
1.83371e-11
1.73645e-11
1.7576e-11
1.87787e-11
2.03416e-11
1.04789e-10
9.17934e-11
7.6937e-11
6.41276e-11
5.45488e-11
4.84286e-11
4.5703e-11
4.61673e-11
4.92693e-11
5.33177e-11
2.80311e-10
2.45334e-10
2.051e-10
1.7027e-10
1.44155e-10
1.2736e-10
1.19658e-10
1.20445e-10
1.2821e-10
1.38518e-10
7.45384e-10
6.52082e-10
5.44081e-10
4.50229e-10