0.005 	0.00348 	1
0.015 	0.00348 	1
0.025 	0.00348 	1
0.035 	0.00348 	1
0.045 	0.00348 	1
0.055 	0.00348 	1
0.065 	0.00348 	1
0.075 	0.00348 	1
0.085 	0.00348 	1
0.095 	0.00348 	1
0.105 	0.00348 	1
0.115 	0.00348 	1
0.125 	0.00348 	1
0.135 	0.00348 	1
0.145 	0.00348 	1
0.155 	0.00348 	1
0.165 	0.00348 	1
0.175 	0.00348 	1
0.185 	0.00348 	1
0.195 	0.00348 	1
0.205 	0.00348 	1
0.215 	0.00348 	1
0.225 	0.00348 	1
0.235 	0.00348 	1
0.245 	0.00348 	1
0.255 	0.00348 	1
0.265 	0.00348 	1
0.275 	0.00348 	1
0.285 	0.00348 	1
0.295 	0.00348 	1
0.305 	0.00348 	1
0.315 	0.00348 	1
0.325 	0.00348 	1
0.335 	0.00348 	1
0.345 	0.0034799998 	0.9999998
0.355 	0.0034799953 	0.9999953
0.365 	0.0034799228 	0.99992209
0.375 	0.003479154 	0.99914889
0.385 	0.0034741827 	0.99416691
0.395 	0.0034552845 	0.9753834
0.405 	0.0034113875 	0.93265683
0.415 	0.0033410004 	0.86684391
0.425 	0.0032510465 	0.7875811
0.435 	0.0031492361 	0.70427791
0.445 	0.0030411811 	0.62300778
0.455 	0.0029306239 	0.54711393
0.465 	0.0028200257 	0.4781059
0.475 	0.0027132203 	0.41772407
0.485 	0.0026139487 	0.366168
0.495 	0.0025322163 	0.32710737
0.505 	0.0024886067 	0.30669079
0.515 	0.0024819535 	0.30290253
0.525 	0.0024838477 	0.30293982
0.535 	0.0024869652 	0.30315268
0.545 	0.002491554 	0.30322422
0.555 	0.0025065557 	0.30324405
0.565 	0.0026826314 	0.30318066
0.575 	0.0032796706 	0.30324825
0.585 	0.0038160642 	0.30333449
0.595 	0.0039496873 	0.30327514
0.605 	0.0039574803 	0.30320938
0.615 	0.0039543106 	0.30289696
0.625 	0.0039408826 	0.29970592
0.635 	0.0038086186 	0.26811401
0.645 	0.0029594731 	0.12561302
0.655 	0.0027805256 	0.10007197
0.665 	0.002780001 	0.10000013
0.675 	0.00278 	0.1
0.685 	0.00278 	0.1
0.695 	0.00278 	0.1
0.705 	0.00278 	0.1
0.715 	0.00278 	0.1
0.725 	0.00278 	0.1
0.735 	0.00278 	0.1
0.745 	0.00278 	0.1
0.755 	0.00278 	0.1
0.765 	0.00278 	0.1
0.775 	0.00278 	0.1
0.785 	0.00278 	0.1
0.795 	0.00278 	0.1
0.805 	0.00278 	0.1
0.815 	0.00278 	0.1
0.825 	0.00278 	0.1
0.835 	0.00278 	0.1
0.845 	0.00278 	0.1
0.855 	0.00278 	0.1
0.865 	0.00278 	0.1
0.875 	0.00278 	0.1
0.885 	0.00278 	0.1
0.895 	0.00278 	0.1
0.905 	0.00278 	0.1
0.915 	0.00278 	0.1
0.925 	0.00278 	0.1
0.935 	0.00278 	0.1
0.945 	0.00278 	0.1
0.955 	0.00278 	0.1
0.965 	0.00278 	0.1
0.975 	0.00278 	0.1
0.985 	0.00278 	0.1
0.995 	0.00278 	0.1
