/*--------------------------------*- C++ -*----------------------------------*\
| =========                 |                                                 |
| \\      /  F ield         | OpenFOAM: The Open Source CFD Toolbox           |
|  \\    /   O peration     | Version:  2112                                  |
|   \\  /    A nd           | Website:  www.openfoam.com                      |
|    \\/     M anipulation  |                                                 |
\*---------------------------------------------------------------------------*/
FoamFile
{
    version     2.0;
    format      ascii;
    arch        "LSB;label=32;scalar=64";
    class       volScalarField;
    location    "0.08";
    object      p;
}
// * * * * * * * * * * * * * * * * * * * * * * * * * * * * * * * * * * * * * //

dimensions      [1 -1 -2 0 0 0 0];

internalField   nonuniform List<scalar> 
1000
(
1
1
1
1
1
1
1
1
1
1
1
1
1
1
1
1
1
1
1
1
1
1
1
1
1
1
1
1
1
1
1
1
1
1
1
1
1
1
1
1
1
1
1
1
1
1
1
1
1
1
1
1
1
1
1
1
1
1
1
1
1
1
1
1
1
1
1
1
1
1
1
1
1
1
1
1
1
1
1
1
1
1
1
1
1
1
1
1
1
1
1
1
1
1
1
1
1
1
1
1
1
1
1
1
1
1
1
1
1
1
1
1
1
1
1
1
1
1
1
1
1
1
1
1
1
1
1
1
1
1
1
1
1
1
1
1
1
1
1
1
1
1
1
1
1
1
1
1
1
1
1
1
1
1
1
1
1
1
1
1
1
1
1
1
1
1
1
1
1
1
1
1
1
1
1
1
1
1
1
1
1
1
1
1
1
1
1
1
1
1
1
1
1
1
1
1
1
1
1
1
1
1
1
1
1
1
1
1
1
1
1
1
1
1
1
1
1
1
1
1
1
1
1
1
1
1
1
1
1
1
1
1
1
1
1
1
1
1
1
1
1
1
1
1
1
1
1
1
1
1
1
1
1
1
1
1
1
1
1
1
1
1
1
1
1
1
1
1
1
1
1
1
1
1
1
1
1
1
1
1
1
1
1
1
1
1
1
1
1
1
1
1
1
1
1
1
1
1
1
1
1
1
1
1
1
1
1
1
1
1
1
1
1
1
1
1
1
1
1
1
1
1
1
1
1
1
1
1
1
1
1
1
1
1
1
0.99999999
0.99999999
0.99999999
0.99999998
0.99999997
0.99999996
0.99999994
0.99999992
0.99999988
0.99999984
0.99999977
0.99999968
0.99999956
0.99999939
0.99999915
0.99999884
0.99999841
0.99999783
0.99999705
0.999996
0.9999946
0.99999273
0.99999026
0.999987
0.99998271
0.99997709
0.99996977
0.99996027
0.99994799
0.9999322
0.99991197
0.99988619
0.99985347
0.99981217
0.99976027
0.99969537
0.99961462
0.99951466
0.99939157
0.99924077
0.999057
0.99883425
0.99856572
0.99824378
0.99785993
0.99740482
0.99686828
0.9962393
0.99550615
0.99465647
0.99367735
0.99255551
0.99127746
0.98982967
0.98819879
0.98637188
0.98433657
0.98208133
0.97959562
0.97687008
0.97389671
0.97066898
0.96718189
0.9634321
0.95941788
0.95513915
0.95059743
0.94579574
0.94073856
0.93543166
0.92988199
0.92409756
0.91808728
0.91186079
0.90542837
0.89880071
0.89198889
0.88500417
0.87785793
0.87056153
0.86312629
0.85556334
0.84788362
0.84009779
0.83221622
0.82424893
0.81620559
0.8080955
0.79992757
0.79171032
0.78345188
0.77516
0.76684205
0.75850503
0.75015557
0.74179994
0.7334441
0.72509364
0.71675387
0.70842977
0.70012605
0.69184712
0.68359713
0.67537999
0.66719935
0.65905864
0.65096107
0.64290964
0.63490716
0.62695624
0.61905932
0.61121869
0.60343645
0.59571457
0.58805487
0.58045902
0.57292855
0.56546483
0.55806909
0.5507424
0.54348546
0.53629919
0.52918321
0.52213851
0.51516287
0.5082566
0.50141433
0.49463097
0.48790362
0.48145426
0.47475754
0.46872713
0.46249192
0.45610493
0.45013816
0.44402179
0.43818357
0.4321855
0.42639322
0.42057076
0.41487738
0.40927205
0.40379238
0.3984292
0.39317086
0.38801559
0.38296623
0.37802455
0.37319183
0.36847066
0.36386533
0.35938118
0.35502395
0.35079975
0.3467151
0.34277709
0.33899335
0.33537189
0.33192109
0.32864942
0.32556532
0.32267692
0.31999174
0.31751626
0.31525554
0.31321272
0.31138854
0.30978096
0.30838481
0.30719168
0.3061899
0.30536488
0.30469958
0.30417517
0.30377195
0.30347007
0.30325054
0.30309593
0.30299112
0.30292497
0.30288009
0.30284982
0.30283778
0.3028359
0.3028366
0.30284484
0.30285491
0.30287289
0.30289661
0.30292465
0.302955
0.30298556
0.30301474
0.30304161
0.30306573
0.30308699
0.30310548
0.30312148
0.3031353
0.30314737
0.303158
0.30316753
0.30317618
0.30318413
0.30319151
0.30319838
0.3032048
0.30321081
0.30321645
0.30322175
0.3032267
0.30323129
0.30323556
0.30323947
0.3032428
0.3032456
0.30324741
0.30324741
0.30324717
0.30324555
0.30324254
0.30323811
0.30323246
0.30322583
0.30321848
0.30321075
0.30320299
0.30319556
0.3031888
0.30318283
0.30317848
0.30317693
0.30317717
0.30317922
0.30318371
0.30319077
0.30320031
0.30321205
0.3032256
0.30324047
0.30325604
0.30327164
0.30328666
0.30330038
0.30331228
0.30332195
0.30332923
0.30333429
0.30333581
0.30333549
0.30333348
0.30332974
0.30332465
0.3033186
0.30331199
0.30330517
0.30329804
0.30329088
0.30328449
0.30327775
0.30327253
0.30326781
0.30326129
0.30325495
0.30324866
0.30324311
0.30323632
0.30322865
0.30322118
0.30321473
0.30320403
0.30319194
0.30317784
0.30316099
0.30314054
0.30311544
0.30308434
0.30304554
0.30299689
0.30293564
0.30285827
0.30276034
0.3026362
0.30247869
0.30227874
0.30202492
0.3017028
0.30129421
0.30077636
0.30012062
0.29929122
0.29824357
0.29692222
0.29525865
0.29316855
0.29054902
0.28727568
0.28320017
0.27814871
0.27192293
0.26430509
0.25507058
0.24401256
0.23098493
0.21597102
0.19918331
0.1811849
0.16297418
0.14589519
0.13127552
0.11995052
0.11200586
0.10690401
0.10384811
0.10210394
0.10113779
0.10061168
0.10032783
0.10017543
0.1000938
0.10005014
0.10002679
0.10001432
0.10000765
0.10000409
0.10000218
0.10000117
0.10000062
0.10000033
0.10000018
0.10000009
0.10000005
0.10000003
0.10000001
0.10000001
0.1
0.1
0.1
0.1
0.1
0.1
0.1
0.1
0.1
0.1
0.1
0.1
0.1
0.1
0.1
0.1
0.1
0.1
0.1
0.1
0.1
0.1
0.1
0.1
0.1
0.1
0.1
0.1
0.1
0.1
0.1
0.1
0.1
0.1
0.1
0.1
0.1
0.1
0.1
0.1
0.1
0.1
0.1
0.1
0.1
0.1
0.1
0.1
0.1
0.1
0.1
0.1
0.1
0.1
0.1
0.1
0.1
0.1
0.1
0.1
0.1
0.1
0.1
0.1
0.1
0.1
0.1
0.1
0.1
0.1
0.1
0.1
0.1
0.1
0.1
0.1
0.1
0.1
0.1
0.1
0.1
0.1
0.1
0.1
0.1
0.1
0.1
0.1
0.1
0.1
0.1
0.1
0.1
0.1
0.1
0.1
0.1
0.1
0.1
0.1
0.1
0.1
0.1
0.1
0.1
0.1
0.1
0.1
0.1
0.1
0.1
0.1
0.1
0.1
0.1
0.1
0.1
0.1
0.1
0.1
0.1
0.1
0.1
0.1
0.1
0.1
0.1
0.1
0.1
0.1
0.1
0.1
0.1
0.1
0.1
0.1
0.1
0.1
0.1
0.1
0.1
0.1
0.1
0.1
0.1
0.1
0.1
0.1
0.1
0.1
0.1
0.1
0.1
0.1
0.1
0.1
0.1
0.1
0.1
0.1
0.1
0.1
0.1
0.1
0.1
0.1
0.1
0.1
0.1
0.1
0.1
0.1
0.1
0.1
0.1
0.1
0.1
0.1
0.1
0.1
0.1
0.1
0.1
0.1
0.1
0.1
0.1
0.1
0.1
0.1
0.1
0.1
0.1
0.1
0.1
0.1
0.1
0.1
0.1
0.1
0.1
0.1
0.1
0.1
0.1
0.1
0.1
0.1
0.1
0.1
0.1
0.1
0.1
0.1
0.1
0.1
0.1
0.1
0.1
0.1
0.1
0.1
0.1
0.1
0.1
0.1
0.1
0.1
0.1
0.1
0.1
0.1
0.1
0.1
0.1
0.1
0.1
0.1
0.1
0.1
0.1
0.1
0.1
0.1
0.1
0.1
0.1
0.1
0.1
0.1
0.1
0.1
0.1
0.1
0.1
0.1
0.1
0.1
0.1
0.1
0.1
0.1
0.1
0.1
0.1
0.1
0.1
0.1
0.1
0.1
0.1
0.1
0.1
0.1
0.1
0.1
0.1
0.1
0.1
0.1
0.1
0.1
0.1
0.1
0.1
0.1
0.1
0.1
0.1
0.1
0.1
0.1
0.1
0.1
0.1
0.1
0.1
0.1
0.1
0.1
0.1
0.1
0.1
0.1
0.1
0.1
0.1
0.1
0.1
0.1
0.1
0.1
0.1
0.1
0.1
0.1
0.1
0.1
0.1
0.1
0.1
0.1
0.1
0.1
0.1
0.1
0.1
0.1
0.1
0.1
)
;

boundaryField
{
    sides
    {
        type            zeroGradient;
    }
    emptywalls
    {
        type            empty;
    }
}


// ************************************************************************* //
