/*--------------------------------*- C++ -*----------------------------------*\
| =========                 |                                                 |
| \\      /  F ield         | OpenFOAM: The Open Source CFD Toolbox           |
|  \\    /   O peration     | Version:  2112                                  |
|   \\  /    A nd           | Website:  www.openfoam.com                      |
|    \\/     M anipulation  |                                                 |
\*---------------------------------------------------------------------------*/
FoamFile
{
    version     2.0;
    format      ascii;
    arch        "LSB;label=32;scalar=64";
    class       surfaceScalarField;
    location    "0.08";
    object      phi;
}
// * * * * * * * * * * * * * * * * * * * * * * * * * * * * * * * * * * * * * //

dimensions      [1 0 -1 0 0 0 0];

oriented        oriented;

internalField   nonuniform List<scalar> 
999
(
7.9183327e-12
-6.2088112e-12
1.2240209e-11
1.0272116e-11
2.4446001e-12
3.1608716e-11
3.049927e-11
2.2017832e-11
5.4301008e-13
5.4127813e-12
1.0997869e-11
1.6093793e-12
1.0034529e-11
1.5130897e-11
3.2495895e-11
4.9341864e-11
3.6190495e-11
5.2848836e-11
4.9649174e-11
3.6143644e-11
5.0798588e-11
4.7831739e-11
4.6326942e-11
4.3179238e-11
5.8177574e-11
3.9479975e-11
5.1612048e-11
5.5107141e-11
5.4624527e-11
6.1351924e-11
7.7487461e-11
4.9745985e-11
3.9556913e-11
3.5596193e-11
2.5557001e-11
1.1318946e-11
3.7836623e-11
2.4017455e-11
2.2183366e-11
3.5766501e-11
1.6590951e-11
2.8584468e-11
5.1903815e-11
4.0295767e-11
5.1157523e-11
6.6666117e-11
5.8617111e-11
5.2264415e-11
4.6269655e-11
5.3080429e-11
3.8766879e-11
2.3092417e-11
3.8387071e-11
3.2516101e-11
3.8222092e-11
3.7125303e-11
3.0581537e-11
4.0346393e-11
1.9452551e-11
2.7981506e-11
2.6809555e-11
1.8817503e-11
1.491729e-11
1.6542767e-11
-3.6104453e-13
-1.6748714e-11
-2.4355074e-11
-3.5456083e-11
-1.6256774e-11
-8.4990903e-12
3.1081804e-12
-5.1267879e-12
1.2222667e-11
2.0181523e-11
2.1134428e-11
2.6568303e-11
2.1709079e-11
1.7181812e-11
2.0943691e-11
1.6399548e-11
2.2702951e-11
-1.23479e-12
6.0280669e-12
2.3590574e-11
2.2740587e-11
1.1917245e-11
3.7665537e-11
3.50453e-11
4.1097348e-11
-9.8288044e-13
-5.2556848e-12
1.0031531e-11
-3.1841196e-12
1.0544343e-11
1.4088508e-11
-6.0812466e-12
-9.1832097e-12
1.1313173e-11
2.4933389e-12
1.8940072e-11
1.274425e-12
1.5105139e-11
8.2134299e-13
-2.1964097e-11
-2.3615887e-11
-1.7712276e-11
-1.4110824e-11
-4.8221427e-12
2.7882141e-12
4.609646e-12
4.4892978e-12
1.1013412e-11
-1.0344392e-11
7.8597129e-12
-9.7604147e-12
-1.2369661e-11
-1.5576762e-11
-1.6504909e-11
-3.1269765e-11
-2.1977753e-11
-2.7777558e-11
-3.7968073e-11
-1.9840463e-11
-3.7971737e-11
-3.6185166e-11
-2.985745e-11
-4.2814197e-11
-4.0147663e-11
-5.233447e-11
-5.0521587e-11
-3.1761926e-11
-2.1575963e-11
-1.5870305e-11
-4.6960213e-12
-3.3456571e-12
-1.1642909e-12
-2.7948643e-11
-7.1199713e-12
-8.0725426e-12
-1.2827517e-11
-2.6021407e-12
-1.5563106e-12
-1.4052093e-11
-1.3556711e-11
-4.3284265e-11
-6.4045436e-12
-1.4081403e-11
-1.978484e-11
-2.4269364e-11
-8.8826724e-12
-2.5605851e-11
-2.2277402e-11
-1.1410872e-11
-2.6370572e-11
-2.8335334e-11
-3.5218273e-11
-5.2271187e-11
-5.8260508e-11
-5.1878835e-11
-4.1468717e-11
-3.009426e-11
-3.4537595e-11
-3.2697733e-11
-5.0002891e-11
-5.124845e-11
-5.5764726e-11
-6.0515482e-11
-3.2848169e-11
-5.1337379e-11
-5.3769988e-11
-5.6338267e-11
-5.6453064e-11
-3.2616909e-11
-2.2049251e-11
-3.3284042e-11
-2.5151103e-11
-1.092948e-11
-1.9622748e-11
-8.9086516e-12
-3.0880853e-11
-6.3993255e-12
-7.4256157e-12
-1.9638735e-11
-3.178835e-11
-3.1255998e-11
-2.2012614e-11
-6.0955685e-12
1.551137e-11
3.7491565e-11
1.9483526e-11
2.6593838e-11
3.4508174e-11
2.5421776e-11
2.409839e-11
1.620637e-11
2.7377212e-11
1.9964808e-11
3.0573988e-11
1.17093e-11
6.8072215e-12
6.5938366e-12
-3.7571057e-12
8.7296836e-12
4.0959458e-12
1.0900836e-11
1.3237744e-11
1.9783064e-11
1.1061929e-11
1.9646729e-11
2.996714e-12
-8.4166007e-12
-2.613243e-12
-1.4148904e-11
-2.0584645e-11
-7.038925e-12
6.9876327e-12
-4.5941029e-12
-5.7873706e-12
-9.6562758e-12
2.349676e-12
-1.996181e-12
-2.553513e-13
2.5750513e-12
1.9361179e-11
1.1616708e-11
1.9412916e-11
3.3857361e-12
1.271705e-11
4.455103e-12
6.5281114e-14
6.9944051e-13
2.7937097e-11
1.4928281e-11
1.6409984e-11
2.6080249e-11
2.3097191e-11
2.3091418e-11
1.9044433e-11
3.6397663e-11
3.1379122e-11
2.8964386e-11
3.7129189e-11
1.4603652e-11
1.8186896e-11
1.2727375e-11
7.865264e-12
2.1293189e-11
-6.3682393e-13
-4.8749893e-13
-3.066436e-13
1.8852142e-11
4.728884e-12
1.3642421e-12
-3.390177e-12
-2.4169555e-11
-1.5450974e-11
-2.7632785e-11
-2.472722e-11
-1.6303292e-11
-3.0752623e-11
-2.1111557e-11
-1.7081669e-11
-1.580891e-11
-1.7712276e-11
-9.9704689e-12
1.2290169e-12
-4.2643666e-13
1.5236701e-11
1.9721558e-11
-5.4369842e-12
-1.2507551e-11
-1.1922685e-11
-1.7840285e-11
-9.50795e-12
-7.6332274e-12
-4.6392779e-11
-2.1675439e-11
-2.1988855e-11
-2.3308244e-11
-2.7563951e-11
-2.4984237e-11
-1.602074e-11
-4.3913095e-11
-2.0957014e-11
-2.3986035e-11
-5.8038019e-12
-2.0919266e-11
-4.1144865e-12
-3.7014836e-11
-1.8953061e-11
-2.4759084e-11
-1.1773471e-11
-3.4693137e-11
-1.3246515e-11
-2.5805136e-11
-2.9531932e-12
1.5509816e-12
1.3304691e-11
5.7280847e-12
2.5868085e-11
7.9174445e-12
-1.0855761e-11
-6.3213879e-12
2.5272007e-11
1.6927793e-11
1.1613155e-11
6.6093797e-12
-1.7128521e-12
-1.1379342e-11
-1.6623369e-11
-1.4612755e-11
-2.5997204e-11
-1.8344659e-11
-2.1404434e-11
-3.687961e-11
-3.7263193e-11
-1.443734e-11
-6.4439565e-12
-2.0817459e-11
-3.513112e-11
-1.9098834e-11
-5.6989968e-12
1.4037771e-11
4.6077031e-11
9.1070707e-11
1.4169732e-10
2.4379221e-10
3.8693204e-10
5.4716143e-10
7.932458e-10
1.1516871e-09
1.6722559e-09
2.4041173e-09
3.4441198e-09
4.9629799e-09
7.1478161e-09
1.0232122e-08
1.4616934e-08
2.0841975e-08
2.9632553e-08
4.2000635e-08
5.9321199e-08
8.3525745e-08
1.1728195e-07
1.6415816e-07
2.2902141e-07
3.1844385e-07
4.4133443e-07
6.0957744e-07
8.3913519e-07
1.1511773e-06
1.5736961e-06
2.1437252e-06
2.9098815e-06
3.9355291e-06
5.3031795e-06
7.1196068e-06
9.5223565e-06
1.2687596e-05
1.683985e-05
2.2263882e-05
2.9318787e-05
3.8454762e-05
5.0233195e-05
6.5349977e-05
8.4662507e-05
0.0001092205
0.00014030117
0.00017944804
0.00022851411
0.00028970796
0.00036564333
0.00045939011
0.00057452619
0.00071518798
0.00088611829
0.0010927082
0.001341031
0.0016378656
0.0019907051
0.0024077493
0.0028978775
0.0034705993
0.0041359832
0.0049045604
0.005787206
0.006794998
0.0079390574
0.0092303726
0.010679614
0.012296944
0.014091828
0.01607285
0.018247552
0.020622282
0.023202072
0.025990546
0.028989855
0.032200647
0.035622068
0.039251792
0.043086084
0.047119879
0.051346892
0.055759733
0.060350041
0.065108624
0.070025599
0.075090534
0.080292584
0.085620619
0.091063347
0.096609417
0.10224752
0.10796647
0.1137553
0.11960326
0.12549995
0.13143531
0.13739964
0.14338368
0.14937854
0.15537579
0.16136742
0.16734584
0.17330389
0.17923482
0.18513228
0.19099033
0.19680339
0.20256628
0.20827413
0.21392245
0.21950705
0.22502408
0.23046995
0.23584139
0.24113539
0.24634919
0.25148028
0.25652639
0.26148546
0.26635564
0.2711353
0.27582298
0.28041736
0.28491745
0.28932201
0.29363093
0.29784202
0.30195802
0.30597224
0.3098958
0.31371009
0.31744223
0.32105843
0.32459265
0.32802884
0.33134149
0.33463318
0.33770315
0.34085964
0.34375599
0.34660372
0.34943107
0.35182862
0.35454784
0.35702776
0.35928108
0.3615914
0.36368114
0.36588949
0.36800989
0.3697872
0.37174856
0.37352193
0.37514451
0.37671915
0.37825625
0.37971729
0.38107724
0.38234015
0.38352497
0.38464015
0.38568607
0.38666023
0.38756004
0.38838981
0.38914881
0.38984154
0.39046721
0.39102838
0.39152714
0.39196493
0.39234704
0.39267421
0.39295312
0.39318475
0.39337519
0.39352687
0.3936441
0.39373158
0.39379149
0.3938306
0.3938494
0.39385526
0.39384815
0.39383396
0.39381326
0.39378926
0.39376337
0.39373593
0.39370936
0.39368097
0.3936552
0.39362734
0.39359856
0.39357323
0.3935442
0.39351426
0.393484
0.39345242
0.39342011
0.3933851
0.39335011
0.39331343
0.39327648
0.3932374
0.39319727
0.39315499
0.39311114
0.39306516
0.39301698
0.39296672
0.39291353
0.39285829
0.3927996
0.39273854
0.39267385
0.39260597
0.39253416
0.39245806
0.39237698
0.39229026
0.39219664
0.39209528
0.39198405
0.39186054
0.39172049
0.39155747
0.39136131
0.39111792
0.39080235
0.3903839
0.38982197
0.38906753
0.38806442
0.38674974
0.385059
0.38292846
0.38030059
0.37712864
0.37338055
0.36904294
0.3641233
0.35865238
0.35268011
0.34628101
0.33954307
0.332567
0.32546165
0.31833672
0.31130042
0.30445183
0.29787981
0.29165818
0.28584527
0.28048295
0.2755966
0.2711969
0.26728093
0.26383473
0.26083505
0.25825284
0.25605251
0.25419789
0.25265063
0.25137356
0.25033086
0.24948822
0.24881547
0.24828431
0.24786972
0.24755133
0.24731081
0.24713028
0.24699749
0.24690205
0.24683581
0.24678987
0.24675992
0.24674124
0.24672937
0.24672132
0.24671833
0.2467153
0.24671076
0.24670329
0.24669147
0.24667378
0.24664848
0.24661347
0.24656615
0.24650328
0.24642075
0.24631332
0.24617437
0.24599548
0.24576599
0.24547243
0.24509775
0.24462053
0.24401379
0.24324371
0.24226799
0.24103389
0.23947588
0.23751294
0.2350455
0.2319521
0.2280861
0.22327279
0.21730782
0.20995837
0.20096923
0.19007732
0.17703945
0.16167974
0.14396317
0.12409794
0.10265597
0.080668979
0.059607035
0.0411085
0.026435812
0.015969339
0.0091877932
0.0051138217
0.0027900217
0.0015056309
0.00080800816
0.00043248147
0.00023121422
0.00012355477
6.6013724e-05
3.5268698e-05
1.8842561e-05
1.0066673e-05
5.3780262e-06
2.8730693e-06
1.534794e-06
8.1984153e-07
4.3790995e-07
2.3388644e-07
1.2491273e-07
6.6705494e-08
3.5619556e-08
1.9017528e-08
1.0149977e-08
5.4186382e-09
2.896624e-09
1.5422285e-09
8.2006379e-10
4.3860761e-10
2.2735867e-10
1.2056034e-10
6.4098254e-11
3.624645e-11
1.6740526e-11
1.1198098e-11
4.732062e-12
7.3462764e-12
4.5987936e-12
4.3165749e-12
4.3009762e-12
3.0708769e-13
1.9600987e-13
-1.9403229e-12
-4.3446635e-12
-4.9544396e-12
-3.7098796e-12
-1.967107e-12
1.3752055e-12
1.0263734e-12
-3.1775971e-13
-3.8424958e-12
1.1453755e-12
4.0770165e-13
7.1796735e-13
-5.8449634e-12
-2.6572494e-12
-5.9790506e-12
-1.0399043e-12
-1.6666252e-12
-1.4869495e-12
-1.9063778e-12
-4.6351811e-12
-5.5833532e-12
-3.6140951e-12
-3.4954678e-12
-7.0223133e-12
-5.946646e-12
-3.6032288e-12
-1.8842289e-12
-4.5753956e-12
-4.6661286e-13
-6.1897709e-13
-2.8705788e-12
6.2587435e-13
5.2099991e-13
1.9837049e-12
3.7481962e-12
4.5635995e-12
4.7285231e-12
4.7244708e-12
4.8404752e-12
5.9983268e-12
4.0731307e-14
-1.941905e-12
-1.1919216e-12
2.3240854e-12
6.5130679e-12
4.7101073e-12
3.1690761e-12
-2.1148361e-12
-8.1568086e-13
-2.754838e-12
-1.657563e-12
-1.1107365e-12
2.4757973e-13
-1.5104862e-12
2.0692059e-12
1.4213075e-12
6.2443106e-13
1.6464885e-12
3.1289138e-12
2.0728974e-12
-1.5495938e-12
-1.5698415e-12
-2.6248448e-12
4.0457915e-13
-1.0198786e-13
2.5661973e-12
-5.1737781e-13
-1.475417e-12
-1.3002377e-12
1.5228374e-12
1.9620416e-12
1.1660672e-12
-1.1424611e-12
-4.6509741e-12
-1.5773771e-12
1.2608942e-12
3.8631875e-12
8.6429475e-13
-4.3722248e-12
-2.5607294e-12
1.4713786e-12
1.1270984e-12
3.7225778e-13
3.8469228e-14
-4.1976006e-12
-1.2264634e-12
-6.1048944e-12
-6.6615186e-12
-5.6646077e-12
-4.7415266e-12
-2.7609998e-12
-4.9205084e-12
-8.454612e-12
-8.058082e-12
-8.5043639e-12
-7.2206546e-12
-5.8171523e-12
-7.5212336e-12
-1.1685292e-11
-5.1271765e-12
-1.0245541e-11
-9.0227409e-12
-9.3626495e-12
-7.5416062e-12
-3.5632192e-12
-5.8223426e-12
-5.2950422e-12
-4.5800586e-12
-3.2374659e-12
1.5942525e-12
1.227185e-12
-1.4521578e-12
1.5929341e-12
2.6097458e-12
-1.4184071e-12
7.0217443e-13
1.054018e-12
1.3197221e-12
-2.1720403e-12
-8.1562535e-13
-5.326295e-13
-1.7417456e-12
4.5310006e-12
4.0678433e-12
2.976383e-12
5.0066479e-12
7.0490974e-12
6.947623e-12
6.2831684e-12
4.6821574e-12
6.9094036e-12
4.7981064e-12
1.8962054e-12
3.1165487e-12
2.2551128e-12
3.8878623e-12
3.3126696e-12
5.8806571e-12
6.247905e-12
1.9070856e-13
3.0208336e-12
5.9936639e-12
5.6279564e-12
4.6084248e-12
6.8992589e-12
5.7575889e-12
6.5372568e-12
2.5876246e-12
1.4428875e-12
1.7360141e-12
3.1616793e-12
5.7999439e-13
-1.1352308e-12
2.6121882e-12
2.255432e-12
2.1268404e-12
-1.3759549e-12
1.7053026e-13
3.9687698e-13
2.143008e-12
4.0252385e-12
3.0526554e-12
1.7167656e-12
-1.4477031e-12
-1.8338803e-12
-1.777925e-12
-1.2035511e-12
-2.6676994e-12
-7.6329776e-12
-2.9822672e-12
-5.1300353e-12
-6.5125683e-12
-5.7528149e-12
-3.2319702e-12
-2.960493e-12
-3.0297431e-12
-3.6083914e-12
-6.3879457e-13
-4.2906928e-12
-4.7829241e-12
-3.7580633e-12
1.4552942e-12
-2.5009439e-12
-1.0783596e-12
-1.4909463e-12
-6.0739608e-12
-3.1459141e-12
-5.206266e-12
-4.9089205e-12
-2.4209246e-12
8.9955821e-14
-3.4668934e-12
-2.3730462e-12
-4.7907928e-12
-2.0854291e-12
-1.0800111e-12
1.5106943e-12
1.1209644e-12
2.518194e-12
4.5414644e-12
3.6497194e-13
8.1698537e-14
-9.1648911e-14
2.4388686e-12
2.5858482e-13
2.0851237e-12
2.5856262e-12
-1.288733e-12
-4.0336345e-12
-5.5386251e-12
-5.4823507e-12
-8.7456709e-12
-8.4623142e-12
-8.7457402e-12
-4.9056315e-12
-7.0629752e-12
-6.8162698e-12
-4.4862031e-12
-3.6670944e-12
1.5436263e-13
9.4624308e-13
2.060227e-12
3.0170866e-12
3.8632014e-12
4.2866682e-12
5.3466676e-12
7.681536e-12
5.3500815e-12
6.4653144e-12
4.3159504e-12
2.2037233e-12
5.1198212e-12
3.5539072e-12
4.2264386e-12
3.612971e-12
1.4717672e-12
2.3292479e-13
-1.7208041e-12
-2.1201096e-12
-3.4221653e-12
3.12389e-14
2.4184543e-12
3.4520303e-12
3.8206383e-12
4.6532778e-12
4.6350007e-12
3.5820236e-12
2.6582486e-12
6.3213185e-12
4.3749865e-12
7.1009587e-12
1.1325593e-11
8.5424307e-12
5.2987337e-12
5.9940941e-12
3.3267e-12
3.0474512e-12
2.5998925e-12
3.742201e-12
2.1722346e-12
3.2010228e-12
1.6038282e-12
2.1960211e-12
2.9185959e-12
1.4894891e-12
2.8945873e-12
9.0645269e-12
1.1165277e-11
8.7302388e-12
5.6593619e-12
3.7717329e-12
3.6237402e-12
2.7926966e-12
-7.8058393e-13
2.0471957e-12
5.6855909e-13
3.0222769e-12
5.4039828e-12
4.2314763e-12
8.1915863e-12
4.5259907e-12
3.1643438e-12
4.5184828e-12
5.7637506e-12
2.9672792e-12
5.5826316e-12
3.2183839e-12
9.4682595e-13
-2.0007329e-12
1.3321289e-13
5.559303e-13
2.8069491e-12
3.3971853e-12
4.2855025e-12
5.5787874e-12
4.9570348e-12
4.4437926e-12
-1.9097779e-12
-7.7561568e-13
1.5199647e-12
-2.6192382e-12
-3.6063375e-12
-2.5921348e-12
-2.6122854e-12
-1.0851736e-12
-1.1756429e-12
-1.4860196e-12
-2.0183438e-12
-5.3315408e-12
-8.8007379e-13
-2.1422447e-12
-6.605827e-15
)
;

boundaryField
{
    sides
    {
        type            calculated;
        value           nonuniform List<scalar> 2(2.7741148e-21 3.2409255e-21);
    }
    emptywalls
    {
        type            empty;
        value           nonuniform List<scalar> 0();
    }
}


// ************************************************************************* //
