/*--------------------------------*- C++ -*----------------------------------*\
| =========                 |                                                 |
| \\      /  F ield         | OpenFOAM: The Open Source CFD Toolbox           |
|  \\    /   O peration     | Version:  2112                                  |
|   \\  /    A nd           | Website:  www.openfoam.com                      |
|    \\/     M anipulation  |                                                 |
\*---------------------------------------------------------------------------*/
FoamFile
{
    version     2.0;
    format      ascii;
    arch        "LSB;label=32;scalar=64";
    class       volScalarField;
    location    "0.08";
    object      T;
}
// * * * * * * * * * * * * * * * * * * * * * * * * * * * * * * * * * * * * * //

dimensions      [0 0 0 1 0 0 0];

internalField   nonuniform List<scalar> 
1000
(
0.00348
0.00348
0.00348
0.00348
0.00348
0.00348
0.00348
0.00348
0.00348
0.00348
0.00348
0.00348
0.00348
0.00348
0.00348
0.00348
0.00348
0.00348
0.00348
0.00348
0.00348
0.00348
0.00348
0.00348
0.00348
0.00348
0.00348
0.00348
0.00348
0.00348
0.00348
0.00348
0.00348
0.00348
0.00348
0.00348
0.00348
0.00348
0.00348
0.00348
0.00348
0.00348
0.00348
0.00348
0.00348
0.00348
0.00348
0.00348
0.00348
0.00348
0.00348
0.00348
0.00348
0.00348
0.00348
0.00348
0.00348
0.00348
0.00348
0.00348
0.00348
0.00348
0.00348
0.00348
0.00348
0.00348
0.00348
0.00348
0.00348
0.00348
0.00348
0.00348
0.00348
0.00348
0.00348
0.00348
0.00348
0.00348
0.00348
0.00348
0.00348
0.00348
0.00348
0.00348
0.00348
0.00348
0.00348
0.00348
0.00348
0.00348
0.00348
0.00348
0.00348
0.00348
0.00348
0.00348
0.00348
0.00348
0.00348
0.00348
0.00348
0.00348
0.00348
0.00348
0.00348
0.00348
0.00348
0.00348
0.00348
0.00348
0.00348
0.00348
0.00348
0.00348
0.00348
0.00348
0.00348
0.00348
0.00348
0.00348
0.00348
0.00348
0.00348
0.00348
0.00348
0.00348
0.00348
0.00348
0.00348
0.00348
0.00348
0.00348
0.00348
0.00348
0.00348
0.00348
0.00348
0.00348
0.00348
0.00348
0.00348
0.00348
0.00348
0.00348
0.00348
0.00348
0.00348
0.00348
0.00348
0.00348
0.00348
0.00348
0.00348
0.00348
0.00348
0.00348
0.00348
0.00348
0.00348
0.00348
0.00348
0.00348
0.00348
0.00348
0.00348
0.00348
0.00348
0.00348
0.00348
0.00348
0.00348
0.00348
0.00348
0.00348
0.00348
0.00348
0.00348
0.00348
0.00348
0.00348
0.00348
0.00348
0.00348
0.00348
0.00348
0.00348
0.00348
0.00348
0.00348
0.00348
0.00348
0.00348
0.00348
0.00348
0.00348
0.00348
0.00348
0.00348
0.00348
0.00348
0.00348
0.00348
0.00348
0.00348
0.00348
0.00348
0.00348
0.00348
0.00348
0.00348
0.00348
0.00348
0.00348
0.00348
0.00348
0.00348
0.00348
0.00348
0.00348
0.00348
0.00348
0.00348
0.00348
0.00348
0.00348
0.00348
0.00348
0.00348
0.00348
0.00348
0.00348
0.00348
0.00348
0.00348
0.00348
0.00348
0.00348
0.00348
0.00348
0.00348
0.00348
0.00348
0.00348
0.00348
0.00348
0.00348
0.00348
0.00348
0.00348
0.00348
0.00348
0.00348
0.00348
0.00348
0.00348
0.00348
0.00348
0.00348
0.00348
0.00348
0.00348
0.00348
0.00348
0.00348
0.00348
0.00348
0.00348
0.00348
0.00348
0.00348
0.00348
0.00348
0.00348
0.00348
0.00348
0.00348
0.00348
0.00348
0.00348
0.00348
0.00348
0.00348
0.00348
0.00348
0.00348
0.00348
0.00348
0.00348
0.00348
0.00348
0.00348
0.00348
0.00348
0.00348
0.00348
0.00348
0.00348
0.00348
0.00348
0.00348
0.00348
0.00348
0.00348
0.00348
0.00348
0.00348
0.00348
0.00348
0.00348
0.00348
0.00348
0.00348
0.00348
0.00348
0.00348
0.00348
0.00348
0.00348
0.00348
0.00348
0.00348
0.00348
0.00348
0.00348
0.00348
0.00348
0.00348
0.00348
0.00348
0.00348
0.00348
0.00348
0.00348
0.00348
0.00348
0.00348
0.00348
0.00348
0.00348
0.00348
0.00348
0.0034799999
0.0034799999
0.0034799999
0.0034799998
0.0034799998
0.0034799997
0.0034799996
0.0034799994
0.0034799992
0.0034799989
0.0034799984
0.0034799979
0.0034799971
0.003479996
0.0034799947
0.0034799928
0.0034799904
0.0034799871
0.0034799829
0.0034799773
0.0034799701
0.0034799607
0.0034799485
0.0034799328
0.0034799127
0.0034798871
0.0034798547
0.0034798136
0.0034797621
0.0034796975
0.0034796173
0.0034795179
0.0034793954
0.0034792454
0.0034790625
0.0034788407
0.0034785732
0.0034782525
0.0034778699
0.0034774161
0.0034768808
0.0034762531
0.003475521
0.0034746721
0.0034736932
0.0034725707
0.003471291
0.0034698399
0.0034682037
0.0034663688
0.0034643219
0.0034620507
0.0034595434
0.0034567895
0.0034537795
0.0034505052
0.0034469599
0.003443138
0.0034390358
0.0034346507
0.0034299818
0.0034250293
0.0034197949
0.0034142816
0.0034084933
0.0034024351
0.0033961127
0.0033895328
0.0033827026
0.0033756298
0.0033683226
0.0033607895
0.003353039
0.0033450799
0.0033369209
0.0033285709
0.0033200384
0.0033113321
0.0033024602
0.0032934311
0.0032842525
0.0032749324
0.0032654781
0.003255897
0.0032461959
0.0032363816
0.0032264607
0.0032164393
0.0032063234
0.0031961189
0.0031858311
0.0031754655
0.0031650271
0.0031545208
0.0031439514
0.0031333232
0.0031226407
0.003111908
0.0031011292
0.0030903079
0.003079448
0.003068553
0.0030576263
0.0030466713
0.0030356908
0.0030246893
0.0030136657
0.0030026333
0.0029915696
0.0029805352
0.0029694077
0.0029584425
0.0029471638
0.002936413
0.0029248347
0.0029144266
0.0029025787
0.0028921914
0.0028808675
0.0028691625
0.002860109
0.0028453262
0.0028392274
0.0028213162
0.0028187352
0.0027995955
0.0027988783
0.0027767167
0.0027775097
0.0027550491
0.0027570579
0.0027348613
0.0027317725
0.0027187582
0.0027076823
0.0026978205
0.0026879428
0.0026777095
0.002667324
0.0026571791
0.002647315
0.002637687
0.0026280937
0.0026186402
0.0026092572
0.0026001022
0.0025911124
0.0025823497
0.0025738224
0.0025655275
0.0025575488
0.002549846
0.0025425115
0.0025355194
0.0025289132
0.0025227299
0.0025169365
0.0025116424
0.0025067462
0.0025023972
0.002498462
0.0024950708
0.0024921097
0.0024896306
0.0024875828
0.0024859108
0.0024846402
0.0024836261
0.0024829479
0.0024824209
0.0024821421
0.0024819433
0.0024818983
0.0024819026
0.0024820045
0.0024821341
0.0024821645
0.0024823896
0.0024825555
0.0024827461
0.0024829783
0.0024831798
0.0024834479
0.0024837052
0.0024839902
0.0024842769
0.0024845644
0.002484871
0.0024851617
0.0024854838
0.0024857825
0.0024861201
0.0024864368
0.0024867918
0.0024871386
0.0024875137
0.0024878999
0.0024883017
0.0024887309
0.002489171
0.0024896477
0.0024901406
0.0024906789
0.0024912417
0.0024918664
0.0024925265
0.002493275
0.0024940886
0.0024950457
0.0024961498
0.0024975249
0.0024992183
0.0025014918
0.0025045032
0.0025086083
0.0025141039
0.0025214501
0.0025310618
0.0025434622
0.0025591142
0.0025785377
0.0026021469
0.0026303738
0.0026634967
0.0027017662
0.0027452459
0.0027939436
0.0028475938
0.0029059183
0.00296835
0.0030342796
0.0031028633
0.0031732037
0.0032442841
0.0033150572
0.0033844851
0.0034515725
0.0035154342
0.0035753189
0.0036306429
0.0036810123
0.0037262061
0.0037661814
0.003801052
0.0038310764
0.0038565637
0.0038779463
0.0038956192
0.0039100653
0.0039217093
0.0039309583
0.003938231
0.0039438422
0.0039480941
0.0039512805
0.00395361
0.0039552417
0.0039563779
0.0039570741
0.0039575206
0.0039577246
0.0039577479
0.0039576923
0.0039575955
0.0039573651
0.0039571093
0.0039568358
0.0039565504
0.0039562553
0.0039559502
0.0039556324
0.0039552962
0.0039549342
0.0039545352
0.0039540859
0.0039535679
0.0039529593
0.0039522312
0.0039513479
0.0039502643
0.0039489229
0.0039472523
0.003945161
0.0039425353
0.0039392298
0.0039350631
0.0039298044
0.0039231639
0.0039147753
0.0039041769
0.0038907872
0.0038738741
0.0038525209
0.0038255837
0.0037916535
0.0037490245
0.0036957089
0.0036295465
0.0035485453
0.0034516646
0.0033403156
0.0032203289
0.0031025339
0.0029994581
0.002919488
0.0028638523
0.0028283915
0.0028071671
0.0027949804
0.0027881657
0.0027844183
0.0027823794
0.0027812776
0.0027806847
0.0027803665
0.0027801961
0.0027801048
0.002780056
0.0027800299
0.002780016
0.0027800085
0.0027800046
0.0027800024
0.0027800013
0.0027800007
0.0027800004
0.0027800002
0.0027800001
0.0027800001
0.00278
0.00278
0.00278
0.00278
0.00278
0.00278
0.00278
0.00278
0.00278
0.00278
0.00278
0.00278
0.00278
0.00278
0.00278
0.00278
0.00278
0.00278
0.00278
0.00278
0.00278
0.00278
0.00278
0.00278
0.00278
0.00278
0.00278
0.00278
0.00278
0.00278
0.00278
0.00278
0.00278
0.00278
0.00278
0.00278
0.00278
0.00278
0.00278
0.00278
0.00278
0.00278
0.00278
0.00278
0.00278
0.00278
0.00278
0.00278
0.00278
0.00278
0.00278
0.00278
0.00278
0.00278
0.00278
0.00278
0.00278
0.00278
0.00278
0.00278
0.00278
0.00278
0.00278
0.00278
0.00278
0.00278
0.00278
0.00278
0.00278
0.00278
0.00278
0.00278
0.00278
0.00278
0.00278
0.00278
0.00278
0.00278
0.00278
0.00278
0.00278
0.00278
0.00278
0.00278
0.00278
0.00278
0.00278
0.00278
0.00278
0.00278
0.00278
0.00278
0.00278
0.00278
0.00278
0.00278
0.00278
0.00278
0.00278
0.00278
0.00278
0.00278
0.00278
0.00278
0.00278
0.00278
0.00278
0.00278
0.00278
0.00278
0.00278
0.00278
0.00278
0.00278
0.00278
0.00278
0.00278
0.00278
0.00278
0.00278
0.00278
0.00278
0.00278
0.00278
0.00278
0.00278
0.00278
0.00278
0.00278
0.00278
0.00278
0.00278
0.00278
0.00278
0.00278
0.00278
0.00278
0.00278
0.00278
0.00278
0.00278
0.00278
0.00278
0.00278
0.00278
0.00278
0.00278
0.00278
0.00278
0.00278
0.00278
0.00278
0.00278
0.00278
0.00278
0.00278
0.00278
0.00278
0.00278
0.00278
0.00278
0.00278
0.00278
0.00278
0.00278
0.00278
0.00278
0.00278
0.00278
0.00278
0.00278
0.00278
0.00278
0.00278
0.00278
0.00278
0.00278
0.00278
0.00278
0.00278
0.00278
0.00278
0.00278
0.00278
0.00278
0.00278
0.00278
0.00278
0.00278
0.00278
0.00278
0.00278
0.00278
0.00278
0.00278
0.00278
0.00278
0.00278
0.00278
0.00278
0.00278
0.00278
0.00278
0.00278
0.00278
0.00278
0.00278
0.00278
0.00278
0.00278
0.00278
0.00278
0.00278
0.00278
0.00278
0.00278
0.00278
0.00278
0.00278
0.00278
0.00278
0.00278
0.00278
0.00278
0.00278
0.00278
0.00278
0.00278
0.00278
0.00278
0.00278
0.00278
0.00278
0.00278
0.00278
0.00278
0.00278
0.00278
0.00278
0.00278
0.00278
0.00278
0.00278
0.00278
0.00278
0.00278
0.00278
0.00278
0.00278
0.00278
0.00278
0.00278
0.00278
0.00278
0.00278
0.00278
0.00278
0.00278
0.00278
0.00278
0.00278
0.00278
0.00278
0.00278
0.00278
0.00278
0.00278
0.00278
0.00278
0.00278
0.00278
0.00278
0.00278
0.00278
0.00278
0.00278
0.00278
0.00278
0.00278
0.00278
0.00278
0.00278
0.00278
0.00278
0.00278
0.00278
0.00278
0.00278
0.00278
0.00278
0.00278
0.00278
0.00278
0.00278
0.00278
0.00278
0.00278
0.00278
0.00278
0.00278
0.00278
0.00278
0.00278
0.00278
0.00278
0.00278
0.00278
0.00278
0.00278
0.00278
0.00278
0.00278
0.00278
0.00278
0.00278
0.00278
0.00278
0.00278
0.00278
0.00278
0.00278
0.00278
0.00278
0.00278
0.00278
0.00278
0.00278
0.00278
0.00278
0.00278
)
;

boundaryField
{
    sides
    {
        type            zeroGradient;
    }
    emptywalls
    {
        type            empty;
    }
}


// ************************************************************************* //
