/*--------------------------------*- C++ -*----------------------------------*\
| =========                 |                                                 |
| \\      /  F ield         | OpenFOAM: The Open Source CFD Toolbox           |
|  \\    /   O peration     | Version:  2112                                  |
|   \\  /    A nd           | Website:  www.openfoam.com                      |
|    \\/     M anipulation  |                                                 |
\*---------------------------------------------------------------------------*/
FoamFile
{
    version     2.0;
    format      ascii;
    arch        "LSB;label=32;scalar=64";
    class       volVectorField;
    location    "0.08";
    object      U;
}
// * * * * * * * * * * * * * * * * * * * * * * * * * * * * * * * * * * * * * //

dimensions      [0 1 -1 0 0 0 0];

internalField   nonuniform List<vector> 
1000
(
(-3.2447782e-21 0 0)
(-6.9449198e-13 0 0)
(-3.780913e-12 0 0)
(1.0274435e-11 0 0)
(5.7606819e-12 0 0)
(2.9026274e-11 0 0)
(2.2300662e-11 0 0)
(2.5662634e-11 0 0)
(3.3829806e-12 0 0)
(-5.2542631e-13 0 0)
(8.4377215e-13 0 0)
(1.3935635e-11 0 0)
(8.5234216e-12 0 0)
(6.9005691e-12 0 0)
(2.5954859e-11 0 0)
(3.9129309e-11 0 0)
(3.2892887e-11 0 0)
(6.2482824e-11 0 0)
(4.1002703e-11 0 0)
(5.3169095e-11 0 0)
(3.4761946e-11 0 0)
(4.8752491e-11 0 0)
(4.678117e-11 0 0)
(3.8415143e-11 0 0)
(5.6213056e-11 0 0)
(3.2408143e-11 0 0)
(5.4246847e-11 0 0)
(6.4873419e-11 0 0)
(4.5503785e-11 0 0)
(6.1428526e-11 0 0)
(4.8080008e-11 0 0)
(5.5205331e-11 0 0)
(4.1621055e-11 0 0)
(2.9939406e-11 0 0)
(3.8268086e-11 0 0)
(7.235477e-12 0 0)
(4.6946012e-11 0 0)
(1.3702767e-11 0 0)
(3.594385e-11 0 0)
(4.1116637e-11 0 0)
(2.767486e-11 0 0)
(3.108085e-11 0 0)
(4.094368e-11 0 0)
(3.190128e-11 0 0)
(6.4019532e-11 0 0)
(4.1606716e-11 0 0)
(6.0191267e-11 0 0)
(4.9038602e-11 0 0)
(3.935184e-11 0 0)
(3.297981e-11 0 0)
(5.724579e-11 0 0)
(-1.3094753e-11 0 0)
(5.5543573e-11 0 0)
(1.9746336e-11 0 0)
(5.1252129e-11 0 0)
(2.8420705e-11 0 0)
(2.9501681e-11 0 0)
(3.4958578e-11 0 0)
(3.3674413e-11 0 0)
(1.0539427e-11 0 0)
(2.8814747e-11 0 0)
(2.0887224e-11 0 0)
(5.4273302e-12 0 0)
(2.018673e-11 0 0)
(4.8192051e-12 0 0)
(-1.6898897e-11 0 0)
(-1.5184787e-11 0 0)
(-3.0014436e-11 0 0)
(-2.9271258e-11 0 0)
(-2.0723605e-12 0 0)
(-1.4945916e-11 0 0)
(-3.0823084e-13 0 0)
(8.4897419e-12 0 0)
(1.1954421e-11 0 0)
(1.7408317e-11 0 0)
(2.6818416e-11 0 0)
(2.1035837e-11 0 0)
(1.4583553e-11 0 0)
(9.8481584e-12 0 0)
(2.2839871e-11 0 0)
(1.206602e-11 0 0)
(2.9202898e-11 0 0)
(-1.2577218e-11 0 0)
(2.4647795e-11 0 0)
(9.1622253e-12 0 0)
(1.4422157e-11 0 0)
(1.2455727e-11 0 0)
(4.0566423e-11 0 0)
(3.3108637e-11 0 0)
(2.8333227e-11 0 0)
(-4.1149316e-12 0 0)
(-6.883229e-12 0 0)
(5.3869812e-12 0 0)
(-5.9700966e-12 0 0)
(1.6460838e-11 0 0)
(8.3755865e-12 0 0)
(-7.9044034e-12 0 0)
(8.5163078e-12 0 0)
(1.077374e-11 0 0)
(-5.780912e-12 0 0)
(1.1162447e-11 0 0)
(4.0265639e-12 0 0)
(1.2047457e-11 0 0)
(-1.0010999e-11 0 0)
(-3.7099965e-12 0 0)
(-3.9403638e-11 0 0)
(1.1035397e-12 0 0)
(-2.2904785e-11 0 0)
(1.5178117e-11 0 0)
(-1.138331e-11 0 0)
(1.192352e-11 0 0)
(-4.8732261e-12 0 0)
(-1.1229139e-11 0 0)
(-1.1773462e-12 0 0)
(-1.0021337e-11 0 0)
(-1.3058739e-11 0 0)
(-1.0960146e-11 0 0)
(-2.8163161e-12 0 0)
(-3.2679359e-11 0 0)
(-2.4935129e-11 0 0)
(-2.2771178e-11 0 0)
(-2.4809858e-11 0 0)
(-2.9524467e-11 0 0)
(-3.2658462e-11 0 0)
(-3.6313771e-11 0 0)
(-3.9312047e-11 0 0)
(-2.5940853e-11 0 0)
(-5.6910438e-11 0 0)
(-3.1020938e-11 0 0)
(-6.70556e-11 0 0)
(-2.0608338e-11 0 0)
(-4.0658347e-11 0 0)
(-9.6509707e-12 0 0)
(-1.7358409e-11 0 0)
(7.9552009e-12 0 0)
(-8.1387167e-12 0 0)
(-3.5783899e-12 0 0)
(-1.0006331e-11 0 0)
(-1.0367027e-11 0 0)
(-5.0283975e-12 0 0)
(1.5876166e-12 0 0)
(-6.7979737e-12 0 0)
(3.8589433e-12 0 0)
(-3.5028939e-11 0 0)
(1.5537146e-12 0 0)
(-2.7208234e-11 0 0)
(-4.8652231e-13 0 0)
(-1.8551205e-11 0 0)
(-2.2787073e-11 0 0)
(-2.0399368e-11 0 0)
(-2.3998321e-11 0 0)
(-1.9176671e-11 0 0)
(-1.580914e-11 0 0)
(-1.1047624e-11 0 0)
(-2.0357129e-11 0 0)
(-2.8199286e-11 0 0)
(-4.2410028e-11 0 0)
(-5.196007e-11 0 0)
(-5.085453e-11 0 0)
(-4.0119471e-11 0 0)
(-3.3246357e-11 0 0)
(-3.4100134e-11 0 0)
(-4.1151206e-11 0 0)
(-4.0749939e-11 0 0)
(-5.2782279e-11 0 0)
(-4.9068947e-11 0 0)
(-5.5428529e-11 0 0)
(-3.2897555e-11 0 0)
(-3.219117e-11 0 0)
(-6.5562687e-11 0 0)
(-4.9497781e-11 0 0)
(-5.3230453e-11 0 0)
(-4.3919058e-11 0 0)
(-3.1909727e-11 0 0)
(-3.1841701e-11 0 0)
(-1.4218856e-11 0 0)
(-3.3571484e-11 0 0)
(-5.7163314e-12 0 0)
(-2.2153605e-11 0 0)
(-1.8485847e-11 0 0)
(-2.5656965e-11 0 0)
(-1.6928799e-13 0 0)
(-1.8555985e-11 0 0)
(-8.8278732e-12 0 0)
(-4.5227122e-11 0 0)
(-1.3333846e-11 0 0)
(-2.7992761e-11 0 0)
(1.9886168e-11 0 0)
(6.0919217e-12 0 0)
(5.0841969e-11 0 0)
(6.9580359e-12 0 0)
(3.3921397e-11 0 0)
(2.7664301e-11 0 0)
(1.3712326e-11 0 0)
(1.4180174e-11 0 0)
(2.3529139e-11 0 0)
(2.9719543e-11 0 0)
(1.1250925e-11 0 0)
(2.0905675e-11 0 0)
(1.2623236e-11 0 0)
(-1.6390811e-12 0 0)
(2.7021607e-13 0 0)
(-6.3759209e-12 0 0)
(2.1005158e-11 0 0)
(-3.7641287e-12 0 0)
(1.9348515e-11 0 0)
(2.2358684e-11 0 0)
(2.0536866e-12 0 0)
(2.7036835e-11 0 0)
(-9.2474806e-12 0 0)
(1.3560045e-11 0 0)
(-7.1876806e-12 0 0)
(-1.5018055e-12 0 0)
(-2.4146934e-11 0 0)
(-1.7191122e-12 0 0)
(-1.0690374e-11 0 0)
(3.5613833e-12 0 0)
(-3.0557424e-12 0 0)
(-1.1660751e-11 0 0)
(3.6888772e-12 0 0)
(-7.0375112e-12 0 0)
(3.3802018e-12 0 0)
(-8.7133843e-13 0 0)
(5.7056605e-12 0 0)
(1.6916904e-11 0 0)
(1.0685928e-11 0 0)
(1.4172949e-11 0 0)
(4.9352504e-14 0 0)
(1.2675923e-11 0 0)
(-5.5275914e-12 0 0)
(5.6581977e-12 0 0)
(1.0763959e-11 0 0)
(2.50883e-11 0 0)
(8.5716626e-12 0 0)
(2.4043561e-11 0 0)
(3.388405e-11 0 0)
(1.4270209e-11 0 0)
(1.7842374e-11 0 0)
(3.799498e-11 0 0)
(1.7136656e-11 0 0)
(3.9432871e-11 0 0)
(3.1181333e-11 0 0)
(2.0994488e-11 0 0)
(4.7370621e-12 0 0)
(2.0743724e-11 0 0)
(1.4274433e-12 0 0)
(1.2891674e-11 0 0)
(-1.0211744e-12 0 0)
(9.9901024e-12 0 0)
(-1.1827816e-11 0 0)
(1.5662861e-11 0 0)
(8.8589964e-12 0 0)
(2.7510686e-13 0 0)
(-1.7148883e-12 0 0)
(-8.3379051e-12 0 0)
(-1.7405983e-11 0 0)
(-2.1596499e-11 0 0)
(-1.773989e-11 0 0)
(-2.0063126e-11 0 0)
(-1.8687925e-11 0 0)
(-3.8715037e-12 0 0)
(-2.7605611e-11 0 0)
(-9.6736462e-12 0 0)
(-1.2961145e-11 0 0)
(-1.1907514e-11 0 0)
(-5.0932004e-12 0 0)
(-5.1213225e-12 0 0)
(6.9345823e-12 0 0)
(1.8540201e-11 0 0)
(5.0866423e-12 0 0)
(-4.553991e-12 0 0)
(-1.6158609e-11 0 0)
(-7.6705348e-12 0 0)
(-2.5094858e-11 0 0)
(2.8466611e-13 0 0)
(-1.8574214e-11 0 0)
(-1.6495407e-11 0 0)
(-2.0573658e-11 0 0)
(-2.4797076e-11 0 0)
(-2.2769733e-11 0 0)
(-3.0724711e-11 0 0)
(-1.0393481e-11 0 0)
(-4.0673687e-11 0 0)
(-1.8771847e-11 0 0)
(-2.1524916e-11 0 0)
(-3.1251249e-11 0 0)
(-7.7517886e-12 0 0)
(-9.8429342e-12 0 0)
(-1.2668031e-11 0 0)
(-2.6389027e-11 0 0)
(-1.23588e-11 0 0)
(-3.4980142e-11 0 0)
(-1.8083135e-11 0 0)
(-2.7500014e-11 0 0)
(-1.7327841e-11 0 0)
(-9.5729404e-12 0 0)
(8.446614e-13 0 0)
(1.320513e-13 0 0)
(1.8993044e-11 0 0)
(2.2227522e-12 0 0)
(3.1586713e-11 0 0)
(-1.6872998e-11 0 0)
(-7.4039871e-13 0 0)
(-3.500693e-12 0 0)
(2.8818082e-11 0 0)
(1.3441443e-11 0 0)
(6.7537344e-13 0 0)
(1.640715e-11 0 0)
(-1.5739447e-11 0 0)
(-1.3184677e-11 0 0)
(-1.202178e-11 0 0)
(-2.541665e-11 0 0)
(-1.1950642e-11 0 0)
(-1.6584997e-11 0 0)
(-2.9725434e-11 0 0)
(-2.9054285e-11 0 0)
(-3.6083015e-11 0 0)
(-2.8237634e-12 0 0)
(-2.2619341e-11 0 0)
(-1.2497965e-11 0 0)
(-4.6939787e-11 0 0)
(-3.6520852e-12 0 0)
(-1.6623123e-12 0 0)
(2.5377746e-11 0 0)
(7.4636434e-11 0 0)
(1.0329001e-10 0 0)
(1.9987074e-10 0 0)
(3.0373486e-10 0 0)
(4.5862324e-10 0 0)
(6.6947814e-10 0 0)
(9.6747577e-10 0 0)
(1.4136792e-09 0 0)
(2.0249827e-09 0 0)
(2.9251868e-09 0 0)
(4.1982997e-09 0 0)
(6.0498527e-09 0 0)
(8.6961057e-09 0 0)
(1.2403717e-08 0 0)
(1.7741256e-08 0 0)
(2.5215543e-08 0 0)
(3.581857e-08 0 0)
(5.0637756e-08 0 0)
(7.1437406e-08 0 0)
(1.003802e-07 0 0)
(1.4072576e-07 0 0)
(1.9658039e-07 0 0)
(2.7374913e-07 0 0)
(3.7990564e-07 0 0)
(5.2548566e-07 0 0)
(7.2443736e-07 0 0)
(9.9527642e-07 0 0)
(1.3626481e-06 0 0)
(1.8590451e-06 0 0)
(2.5273224e-06 0 0)
(3.4235014e-06 0 0)
(4.6205561e-06 0 0)
(6.2131805e-06 0 0)
(8.3236046e-06 0 0)
(1.1108787e-05 0 0)
(1.4769213e-05 0 0)
(1.955971e-05 0 0)
(2.5802469e-05 0 0)
(3.3902486e-05 0 0)
(4.4366038e-05 0 0)
(5.7822403e-05 0 0)
(7.504918e-05 0 0)
(9.7001108e-05 0 0)
(0.00012484344 0 0)
(0.00015998892 0 0)
(0.00020413917 0 0)
(0.00025932969 0 0)
(0.00032797819 0 0)
(0.00041293578 0 0)
(0.00051753925 0 0)
(0.00064566398 0 0)
(0.00080177484 0 0)
(0.00099097403 0 0)
(0.0012190423 0 0)
(0.0014924725 0 0)
(0.0018184912 0 0)
(0.0022050673 0 0)
(0.0026609035 0 0)
(0.0031954102 0 0)
(0.0038186585 0 0)
(0.0045413129 0 0)
(0.0053745427 0 0)
(0.0063299125 0 0)
(0.0074192553 0 0)
(0.0086545294 0 0)
(0.010047663 0 0)
(0.011610394 0 0)
(0.013354102 0 0)
(0.015289649 0 0)
(0.017427223 0 0)
(0.019776202 0 0)
(0.022345022 0 0)
(0.025141081 0 0)
(0.028170656 0 0)
(0.031438847 0 0)
(0.034949548 0 0)
(0.038705441 0 0)
(0.042708016 0 0)
(0.046957606 0 0)
(0.051453447 0 0)
(0.05619375 0 0)
(0.061175786 0 0)
(0.066395975 0 0)
(0.071849991 0 0)
(0.077532858 0 0)
(0.083439051 0 0)
(0.089562595 0 0)
(0.095897151 0 0)
(0.10243611 0 0)
(0.10917267 0 0)
(0.1160999 0 0)
(0.1232108 0 0)
(0.13049838 0 0)
(0.13795569 0 0)
(0.14557583 0 0)
(0.15335205 0 0)
(0.16127772 0 0)
(0.16934636 0 0)
(0.17755168 0 0)
(0.18588755 0 0)
(0.19434806 0 0)
(0.20292749 0 0)
(0.21162028 0 0)
(0.22042113 0 0)
(0.22932488 0 0)
(0.23832658 0 0)
(0.24742148 0 0)
(0.25660501 0 0)
(0.26587275 0 0)
(0.27522049 0 0)
(0.28464414 0 0)
(0.29413982 0 0)
(0.30370376 0 0)
(0.31333235 0 0)
(0.32302212 0 0)
(0.33276973 0 0)
(0.34257195 0 0)
(0.35242569 0 0)
(0.36232795 0 0)
(0.37227585 0 0)
(0.38226658 0 0)
(0.39229746 0 0)
(0.40236587 0 0)
(0.41246927 0 0)
(0.42260521 0 0)
(0.43277129 0 0)
(0.4429653 0 0)
(0.45318483 0 0)
(0.46342819 0 0)
(0.47369255 0 0)
(0.48397772 0 0)
(0.49427917 0 0)
(0.5046003 0 0)
(0.51493342 0 0)
(0.52528664 0 0)
(0.53565191 0 0)
(0.54603697 0 0)
(0.55644782 0 0)
(0.56687772 0 0)
(0.5771989 0 0)
(0.58754812 0 0)
(0.59785749 0 0)
(0.60791914 0 0)
(0.61831233 0 0)
(0.62842526 0 0)
(0.6385352 0 0)
(0.64865496 0 0)
(0.65891605 0 0)
(0.66910705 0 0)
(0.67929758 0 0)
(0.68963528 0 0)
(0.69965064 0 0)
(0.70985048 0 0)
(0.71989449 0 0)
(0.72982507 0 0)
(0.73966818 0 0)
(0.74942768 0 0)
(0.75909644 0 0)
(0.76866572 0 0)
(0.7781256 0 0)
(0.78746489 0 0)
(0.79667024 0 0)
(0.80572648 0 0)
(0.81461642 0 0)
(0.82332116 0 0)
(0.83182035 0 0)
(0.84009183 0 0)
(0.84811202 0 0)
(0.85585568 0 0)
(0.86329642 0 0)
(0.87040693 0 0)
(0.87715956 0 0)
(0.88352716 0 0)
(0.88948374 0 0)
(0.89500585 0 0)
(0.90007349 0 0)
(0.90467171 0 0)
(0.90879161 0 0)
(0.91243168 0 0)
(0.91559858 0 0)
(0.91830752 0 0)
(0.92058232 0 0)
(0.92245439 0 0)
(0.92396181 0 0)
(0.92514719 0 0)
(0.92605581 0 0)
(0.92673329 0 0)
(0.92722351 0 0)
(0.92756672 0 0)
(0.92779588 0 0)
(0.92794539 0 0)
(0.92804989 0 0)
(0.92810753 0 0)
(0.92811436 0 0)
(0.92812542 0 0)
(0.92812667 0 0)
(0.92810478 0 0)
(0.9280761 0 0)
(0.92802944 0 0)
(0.92797101 0 0)
(0.92790273 0 0)
(0.9278293 0 0)
(0.92775574 0 0)
(0.92768565 0 0)
(0.92762104 0 0)
(0.92756279 0 0)
(0.92751111 0 0)
(0.9274657 0 0)
(0.92742596 0 0)
(0.92739106 0 0)
(0.92736012 0 0)
(0.92733233 0 0)
(0.92730696 0 0)
(0.92728353 0 0)
(0.92726159 0 0)
(0.92724091 0 0)
(0.9272213 0 0)
(0.92720263 0 0)
(0.92718482 0 0)
(0.92716777 0 0)
(0.92715147 0 0)
(0.92713589 0 0)
(0.92712098 0 0)
(0.92710659 0 0)
(0.92709283 0 0)
(0.92708002 0 0)
(0.92706845 0 0)
(0.92705826 0 0)
(0.9270464 0 0)
(0.92703439 0 0)
(0.92702291 0 0)
(0.92701155 0 0)
(0.92700015 0 0)
(0.92698853 0 0)
(0.92697646 0 0)
(0.92696376 0 0)
(0.9269503 0 0)
(0.92693594 0 0)
(0.92692053 0 0)
(0.92690425 0 0)
(0.92688635 0 0)
(0.92686655 0 0)
(0.92684779 0 0)
(0.92683054 0 0)
(0.92681137 0 0)
(0.92679419 0 0)
(0.92677872 0 0)
(0.92676558 0 0)
(0.92675533 0 0)
(0.92674811 0 0)
(0.92674384 0 0)
(0.92674209 0 0)
(0.92674217 0 0)
(0.92674346 0 0)
(0.92674509 0 0)
(0.92674628 0 0)
(0.92674657 0 0)
(0.92674541 0 0)
(0.92674422 0 0)
(0.92673946 0 0)
(0.92673189 0 0)
(0.92672537 0 0)
(0.92671706 0 0)
(0.92670815 0 0)
(0.92669856 0 0)
(0.92668812 0 0)
(0.92667679 0 0)
(0.92666579 0 0)
(0.92665393 0 0)
(0.92664033 0 0)
(0.92662625 0 0)
(0.92661335 0 0)
(0.92660232 0 0)
(0.9265907 0 0)
(0.92657604 0 0)
(0.92655711 0 0)
(0.92653806 0 0)
(0.92652033 0 0)
(0.92649754 0 0)
(0.92647167 0 0)
(0.9264468 0 0)
(0.9264191 0 0)
(0.92638355 0 0)
(0.92634168 0 0)
(0.92629188 0 0)
(0.92623195 0 0)
(0.92615902 0 0)
(0.92606945 0 0)
(0.92595857 0 0)
(0.92582039 0 0)
(0.92564727 0 0)
(0.92542945 0 0)
(0.92515453 0 0)
(0.92480671 0 0)
(0.92436595 0 0)
(0.92380682 0 0)
(0.92309712 0 0)
(0.9221961 0 0)
(0.92105222 0 0)
(0.91960038 0 0)
(0.91775841 0 0)
(0.9154226 0 0)
(0.91246225 0 0)
(0.90871267 0 0)
(0.90396655 0 0)
(0.89796316 0 0)
(0.89037505 0 0)
(0.88079169 0 0)
(0.86869987 0 0)
(0.85346063 0 0)
(0.83428369 0 0)
(0.81020197 0 0)
(0.78005254 0 0)
(0.74247866 0 0)
(0.69598242 0 0)
(0.63908562 0 0)
(0.57069795 0 0)
(0.49082753 0 0)
(0.40168421 0 0)
(0.30877216 0 0)
(0.22070136 0 0)
(0.14637507 0 0)
(0.090797383 0 0)
(0.053427253 0 0)
(0.030265797 0 0)
(0.016717621 0 0)
(0.0090930228 0 0)
(0.0049030938 0 0)
(0.0026316484 0 0)
(0.0014091773 0 0)
(0.00075370386 0 0)
(0.00040289594 0 0)
(0.00021531147 0 0)
(0.00011504846 0 0)
(6.1469297e-05 0 0)
(3.2840412e-05 0 0)
(1.7544265e-05 0 0)
(9.372058e-06 0 0)
(5.006214e-06 0 0)
(2.6739462e-06 0 0)
(1.4281339e-06 0 0)
(7.6269001e-07 0 0)
(4.0728411e-07 0 0)
(2.1747836e-07 0 0)
(1.1607826e-07 0 0)
(6.1978592e-08 0 0)
(3.3074335e-08 0 0)
(1.7681971e-08 0 0)
(9.3942185e-09 0 0)
(5.0087706e-09 0 0)
(2.6450075e-09 0 0)
(1.380046e-09 0 0)
(7.3463816e-10 0 0)
(3.7649483e-10 0 0)
(1.9622998e-10 0 0)
(8.8835622e-11 0 0)
(5.7288187e-11 0 0)
(2.3371019e-11 0 0)
(3.8973638e-11 0 0)
(3.1280048e-11 0 0)
(2.9258615e-11 0 0)
(1.4605444e-11 0 0)
(1.0738171e-11 0 0)
(-1.6833882e-11 0 0)
(-5.8808258e-12 0 0)
(-5.1786186e-11 0 0)
(-2.6675771e-11 0 0)
(-2.516902e-11 0 0)
(-1.8620451e-12 0 0)
(1.2382e-11 0 0)
(2.6226909e-12 0 0)
(-1.900871e-11 0 0)
(4.9263834e-12 0 0)
(-5.056913e-12 0 0)
(2.3322958e-11 0 0)
(-3.5746692e-11 0 0)
(-1.8400237e-11 0 0)
(-1.8489477e-11 0 0)
(-1.8734553e-11 0 0)
(-1.5587413e-11 0 0)
(-1.3107017e-11 0 0)
(-1.5281623e-11 0 0)
(-2.2631351e-11 0 0)
(-5.9175428e-11 0 0)
(-1.1213782e-11 0 0)
(-3.3471303e-11 0 0)
(-2.7569944e-11 0 0)
(-5.3555107e-11 0 0)
(-3.5435574e-11 0 0)
(-1.1652211e-11 0 0)
(-4.412867e-11 0 0)
(-6.2679749e-12 0 0)
(-1.6617664e-11 0 0)
(3.2955401e-12 0 0)
(5.7436365e-12 0 0)
(4.2681855e-12 0 0)
(3.0378107e-12 0 0)
(2.537214e-11 0 0)
(2.9017979e-11 0 0)
(3.4856405e-11 0 0)
(2.9392142e-11 0 0)
(2.379191e-11 0 0)
(6.5818787e-11 0 0)
(2.1275774e-11 0 0)
(3.5743584e-12 0 0)
(-2.3400765e-11 0 0)
(1.4354041e-11 0 0)
(2.1984585e-11 0 0)
(5.2186543e-11 0 0)
(1.4607331e-11 0 0)
(-2.3063563e-12 0 0)
(1.0485547e-11 0 0)
(-2.1487663e-11 0 0)
(-1.7666341e-11 0 0)
(-1.9804763e-11 0 0)
(8.620949e-13 0 0)
(-1.3411808e-11 0 0)
(1.1135198e-11 0 0)
(1.5985217e-11 0 0)
(1.1347975e-11 0 0)
(1.605581e-11 0 0)
(8.2401266e-12 0 0)
(2.135791e-11 0 0)
(-2.5427526e-11 0 0)
(-1.6338402e-12 0 0)
(-1.9762141e-11 0 0)
(1.4937651e-12 0 0)
(4.8257113e-12 0 0)
(-4.3932764e-12 0 0)
(2.0270496e-11 0 0)
(-2.8437033e-11 0 0)
(-1.5152758e-11 0 0)
(8.2149308e-12 0 0)
(6.0233429e-12 0 0)
(1.9262443e-11 0 0)
(-1.5888541e-11 0 0)
(1.085083e-12 0 0)
(-3.1981423e-11 0 0)
(4.6285849e-12 0 0)
(8.3651065e-12 0 0)
(3.0759706e-11 0 0)
(-1.6934332e-11 0 0)
(-1.6399005e-11 0 0)
(-6.1391102e-12 0 0)
(1.6862296e-11 0 0)
(-5.2713545e-12 0 0)
(6.368314e-12 0 0)
(-5.7528491e-12 0 0)
(6.8750038e-13 0 0)
(-4.1817541e-11 0 0)
(-3.565157e-11 0 0)
(-7.1141088e-11 0 0)
(-1.4668156e-11 0 0)
(-3.7870796e-11 0 0)
(-2.6239785e-11 0 0)
(-5.7860031e-11 0 0)
(-5.1253967e-11 0 0)
(-6.4081499e-11 0 0)
(-4.7439416e-11 0 0)
(-7.6349064e-11 0 0)
(-2.1489883e-11 0 0)
(-7.5897982e-11 0 0)
(-2.9317886e-11 0 0)
(-6.5854416e-11 0 0)
(-2.7306442e-11 0 0)
(-9.0396094e-11 0 0)
(-3.8090787e-11 0 0)
(-5.9731844e-11 0 0)
(-2.5266473e-11 0 0)
(-1.8215653e-11 0 0)
(-5.5108809e-11 0 0)
(-6.6812078e-12 0 0)
(-3.4024833e-11 0 0)
(2.924685e-11 0 0)
(1.5071954e-12 0 0)
(-7.861746e-13 0 0)
(1.082519e-11 0 0)
(2.2334107e-11 0 0)
(-9.4076786e-12 0 0)
(1.0775243e-11 0 0)
(8.5742203e-12 0 0)
(-8.7888838e-12 0 0)
(1.5361095e-11 0 0)
(-4.158312e-11 0 0)
(3.8112653e-11 0 0)
(-1.3179274e-11 0 0)
(5.2678249e-11 0 0)
(1.0473782e-11 0 0)
(3.0172545e-11 0 0)
(3.6571493e-11 0 0)
(5.4829102e-11 0 0)
(5.3281727e-11 0 0)
(2.6503619e-11 0 0)
(4.9225652e-11 0 0)
(3.8688937e-11 0 0)
(2.8855039e-11 0 0)
(1.268435e-11 0 0)
(2.2844127e-11 0 0)
(1.9722183e-11 0 0)
(2.7687598e-11 0 0)
(2.8726063e-11 0 0)
(4.4535909e-11 0 0)
(-8.8771244e-12 0 0)
(3.9350797e-11 0 0)
(1.3343768e-11 0 0)
(5.4197099e-11 0 0)
(3.3625142e-11 0 0)
(3.3248981e-11 0 0)
(3.6772282e-11 0 0)
(4.6239232e-11 0 0)
(4.3014506e-11 0 0)
(2.1910885e-11 0 0)
(3.3664658e-13 0 0)
(4.1126489e-11 0 0)
(1.3020552e-11 0 0)
(2.9320328e-12 0 0)
(-6.6491303e-12 0 0)
(2.4352322e-11 0 0)
(1.5280846e-11 0 0)
(6.1275668e-12 0 0)
(-6.9071927e-12 0 0)
(2.0174486e-11 0 0)
(-1.5203261e-11 0 0)
(3.9161108e-11 0 0)
(1.6697692e-11 0 0)
(2.9686721e-11 0 0)
(-9.8219103e-12 0 0)
(-4.5016072e-12 0 0)
(-1.2393877e-11 0 0)
(-4.4559884e-12 0 0)
(-1.9484765e-11 0 0)
(-5.2804117e-11 0 0)
(-4.912276e-11 0 0)
(-1.3594505e-11 0 0)
(-5.1006893e-11 0 0)
(-4.4876329e-11 0 0)
(-3.1613254e-11 0 0)
(-1.683033e-11 0 0)
(-1.9872581e-11 0 0)
(-3.894933e-11 0 0)
(-1.5087493e-11 0 0)
(-2.821682e-11 0 0)
(-2.270161e-11 0 0)
(-3.7395295e-11 0 0)
(2.0977958e-14 0 0)
(-8.5652297e-12 0 0)
(-1.1182593e-11 0 0)
(-1.5268969e-11 0 0)
(-3.2201747e-11 0 0)
(-2.9130971e-11 0 0)
(-2.6408496e-11 0 0)
(-3.3664434e-11 0 0)
(-2.2676304e-11 0 0)
(-4.668876e-12 0 0)
(-2.5659505e-11 0 0)
(-7.5078954e-12 0 0)
(-4.4339338e-11 0 0)
(-1.6279131e-11 0 0)
(-1.1497152e-11 0 0)
(-5.5131008e-12 0 0)
(9.9166997e-12 0 0)
(-5.223405e-13 0 0)
(4.1154681e-11 0 0)
(1.4985933e-11 0 0)
(7.1787964e-12 0 0)
(-6.0765093e-12 0 0)
(1.4219405e-11 0 0)
(2.0402802e-11 0 0)
(1.9945726e-11 0 0)
(2.4431017e-12 0 0)
(1.8325871e-11 0 0)
(-3.3259526e-11 0 0)
(-1.8191346e-11 0 0)
(-4.5638529e-11 0 0)
(-4.8676229e-11 0 0)
(-7.7474105e-11 0 0)
(-4.0219108e-11 0 0)
(-7.0833411e-11 0 0)
(-2.0485049e-11 0 0)
(-7.6556846e-11 0 0)
(-2.5522316e-11 0 0)
(-5.0337707e-11 0 0)
(-1.0902332e-11 0 0)
(1.3706277e-11 0 0)
(4.1967048e-13 0 0)
(3.4930549e-11 0 0)
(9.3868116e-12 0 0)
(2.8699313e-11 0 0)
(8.7578053e-12 0 0)
(6.8771353e-11 0 0)
(5.5891875e-11 0 0)
(4.7051268e-11 0 0)
(3.1383495e-11 0 0)
(2.1504756e-11 0 0)
(3.1786628e-11 0 0)
(2.983723e-11 0 0)
(2.259894e-11 0 0)
(2.8149002e-11 0 0)
(2.363674e-11 0 0)
(5.3822382e-12 0 0)
(5.4087659e-12 0 0)
(-2.5022951e-11 0 0)
(-1.3238545e-11 0 0)
(-1.9450912e-11 0 0)
(1.8504128e-11 0 0)
(1.2471462e-11 0 0)
(3.5114356e-11 0 0)
(4.0978644e-11 0 0)
(1.3311691e-11 0 0)
(3.0007052e-11 0 0)
(2.0144184e-11 0 0)
(3.1715258e-11 0 0)
(5.0058666e-11 0 0)
(2.0755098e-11 0 0)
(8.0975318e-11 0 0)
(5.1098131e-11 0 0)
(6.7134294e-11 0 0)
(4.7003985e-11 0 0)
(4.21422e-11 0 0)
(1.3503712e-11 0 0)
(2.0576952e-11 0 0)
(2.6429363e-11 0 0)
(6.8620179e-12 0 0)
(2.8279865e-11 0 0)
(1.4400326e-11 0 0)
(1.6458165e-11 0 0)
(1.8725784e-11 0 0)
(2.5380354e-11 0 0)
(3.2664928e-11 0 0)
(3.6124407e-11 0 0)
(7.8863869e-11 0 0)
(6.3709002e-11 0 0)
(4.3202531e-11 0 0)
(5.1108231e-11 0 0)
(4.852461e-12 0 0)
(5.6262042e-11 0 0)
(-1.0140354e-11 0 0)
(1.3041974e-11 0 0)
(-2.9442422e-12 0 0)
(1.9197844e-11 0 0)
(3.1714148e-11 0 0)
(3.3392164e-11 0 0)
(4.3337612e-11 0 0)
(5.5425032e-11 0 0)
(8.5821009e-12 0 0)
(4.8595092e-11 0 0)
(3.1087251e-11 0 0)
(3.4435291e-11 0 0)
(4.7382809e-11 0 0)
(4.5438406e-11 0 0)
(-7.0767924e-12 0 0)
(2.2331332e-11 0 0)
(-1.7242009e-11 0 0)
(1.1291812e-11 0 0)
(4.0713922e-12 0 0)
(1.5449558e-11 0 0)
(3.8801707e-11 0 0)
(2.3759944e-11 0 0)
(5.1387826e-11 0 0)
(1.5144766e-11 0 0)
(-3.7678221e-12 0 0)
(-7.1821262e-12 0 0)
(-3.5506056e-12 0 0)
(3.4325074e-12 0 0)
(-3.8418776e-11 0 0)
(-2.6861798e-12 0 0)
(-3.4856405e-11 0 0)
(-1.5641356e-11 0 0)
(1.8688157e-12 0 0)
(-1.9646152e-11 0 0)
(1.3332669e-12 0 0)
(-3.3226005e-11 0 0)
(-2.4367195e-11 0 0)
(-2.1506421e-11 0 0)
(-1.0577785e-13 0 0)
(2.2187377e-20 0 0)
)
;

boundaryField
{
    sides
    {
        type            zeroGradient;
    }
    emptywalls
    {
        type            empty;
    }
}


// ************************************************************************* //
