/*--------------------------------*- C++ -*----------------------------------*\
| =========                 |                                                 |
| \\      /  F ield         | OpenFOAM: The Open Source CFD Toolbox           |
|  \\    /   O peration     | Version:  2112                                  |
|   \\  /    A nd           | Website:  www.openfoam.com                      |
|    \\/     M anipulation  |                                                 |
\*---------------------------------------------------------------------------*/
FoamFile
{
    version     2.0;
    format      ascii;
    arch        "LSB;label=32;scalar=64";
    class       volVectorField;
    location    "73.5";
    object      U;
}
// * * * * * * * * * * * * * * * * * * * * * * * * * * * * * * * * * * * * * //

dimensions      [0 1 -1 0 0 0 0];

internalField   nonuniform List<vector> 
8800
(
(0.980135 -0.0915199 0)
(1.00234 -0.0587303 0)
(0.999586 -0.032128 0)
(0.999989 -0.0165199 0)
(1.0001 -0.00883799 0)
(1.00012 -0.00509161 0)
(1.00007 -0.00298703 0)
(1.00003 -0.00167617 0)
(0.999998 -0.000774482 0)
(1.00007 -7.51274e-05 0)
(0.999972 0.000635135 0)
(0.999984 0.00139384 0)
(1.00003 0.0024141 0)
(1.00006 0.00400978 0)
(1.00004 0.00675344 0)
(1.00001 0.0120539 0)
(0.999816 0.0230955 0)
(0.999036 0.0431548 0)
(1.00724 0.0790244 0)
(0.775027 0.0478395 0)
(0.359002 -0.0147477 0)
(1.04651 -0.0724747 0)
(1.08848 -0.0660102 0)
(1.04945 -0.0509003 0)
(1.02557 -0.037675 0)
(1.01278 -0.0258645 0)
(1.00661 -0.0166632 0)
(1.00365 -0.0101684 0)
(1.00219 -0.00553267 0)
(1.00151 -0.00193398 0)
(1.00137 0.00128013 0)
(1.00171 0.00459306 0)
(1.0027 0.00848032 0)
(1.00476 0.0137777 0)
(1.00898 0.0214464 0)
(1.01795 0.031932 0)
(1.0358 0.0446986 0)
(1.06743 0.0581357 0)
(1.09468 0.0699466 0)
(0.845603 0.0555092 0)
(0.217828 -0.00137921 0)
(1.07571 -0.0506252 0)
(1.09944 -0.0489021 0)
(1.06442 -0.0399782 0)
(1.03995 -0.03251 0)
(1.02386 -0.0252853 0)
(1.01406 -0.0180537 0)
(1.00854 -0.0114208 0)
(1.00566 -0.00565372 0)
(1.00447 -0.000355251 0)
(1.00476 0.00475866 0)
(1.0066 0.0100474 0)
(1.01057 0.0160007 0)
(1.01789 0.0227346 0)
(1.03047 0.0298259 0)
(1.05046 0.0369014 0)
(1.08003 0.0446673 0)
(1.10563 0.0519788 0)
(0.943201 0.0410282 0)
(0.217136 0.00140722 0)
(0.176713 -0.000627326 0)
(1.0195 -0.0354286 0)
(1.10577 -0.0413558 0)
(1.07804 -0.036327 0)
(1.05253 -0.0302677 0)
(1.03531 -0.0243745 0)
(1.02343 -0.018561 0)
(1.01559 -0.0125451 0)
(1.01096 -0.00643283 0)
(1.0089 -0.000183223 0)
(1.0094 0.0059781 0)
(1.01247 0.0118917 0)
(1.01846 0.0176367 0)
(1.02804 0.0231808 0)
(1.04221 0.0287124 0)
(1.06303 0.0344752 0)
(1.09382 0.0403441 0)
(1.09436 0.0418473 0)
(0.830021 0.0228059 0)
(0.175531 0.000649882 0)
(0.154839 -0.000460981 0)
(0.958381 -0.0256463 0)
(1.10452 -0.0350395 0)
(1.08818 -0.0325713 0)
(1.06138 -0.0280458 0)
(1.04334 -0.0230613 0)
(1.03093 -0.0177353 0)
(1.0223 -0.0121691 0)
(1.01671 -0.00623575 0)
(1.01402 0.000234528 0)
(1.01462 0.00669877 0)
(1.01838 0.0125671 0)
(1.0252 0.0178523 0)
(1.03532 0.0228194 0)
(1.05002 0.027621 0)
(1.07194 0.0320366 0)
(1.10092 0.035891 0)
(1.06952 0.0340666 0)
(0.742205 0.014491 0)
(0.153066 0.000486283 0)
(0.140198 -0.000332664 0)
(0.901506 -0.0192718 0)
(1.097 -0.0301238 0)
(1.09637 -0.0292192 0)
(1.06914 -0.0254129 0)
(1.0503 -0.0213005 0)
(1.03731 -0.0165711 0)
(1.02828 -0.0112908 0)
(1.0223 -0.00553881 0)
(1.01925 0.000837996 0)
(1.01981 0.00721666 0)
(1.02377 0.0128612 0)
(1.03083 0.0178044 0)
(1.04131 0.0222246 0)
(1.05662 0.0261431 0)
(1.07941 0.029627 0)
(1.10316 0.0323119 0)
(1.0376 0.0282577 0)
(0.675194 0.0103546 0)
(0.137696 0.00036271 0)
(0.12951 -0.000250949 0)
(0.851802 -0.014865 0)
(1.08475 -0.0260018 0)
(1.10211 -0.0263116 0)
(1.07602 -0.0229615 0)
(1.05667 -0.0192746 0)
(1.04325 -0.0150422 0)
(1.03385 -0.0101417 0)
(1.02757 -0.00460654 0)
(1.02429 0.00158823 0)
(1.02471 0.00775046 0)
(1.02867 0.0131101 0)
(1.03588 0.0176251 0)
(1.04663 0.021435 0)
(1.06231 0.0247512 0)
(1.08554 0.0277501 0)
(1.1023 0.0295259 0)
(1.00272 0.0237502 0)
(0.622905 0.0079636 0)
(0.126119 0.000287476 0)
(0.121382 -0.00019184 0)
(0.809508 -0.0116693 0)
(1.06958 -0.0223842 0)
(1.10571 -0.0236487 0)
(1.08232 -0.0207455 0)
(1.06252 -0.0172807 0)
(1.04882 -0.0133249 0)
(1.03915 -0.00873978 0)
(1.0326 -0.00347265 0)
(1.02906 0.00249366 0)
(1.0293 0.00838771 0)
(1.0332 0.0133923 0)
(1.04046 0.0174436 0)
(1.05129 0.0207733 0)
(1.06721 0.0236902 0)
(1.09082 0.026365 0)
(1.09854 0.0272234 0)
(0.967356 0.0202161 0)
(0.580838 0.00640948 0)
(0.116909 0.000236192 0)
(0.115101 -0.000146892 0)
(0.773909 -0.00927412 0)
(1.05289 -0.0191941 0)
(1.10815 -0.0211812 0)
(1.08826 -0.0186537 0)
(1.06804 -0.0153445 0)
(1.05408 -0.0115509 0)
(1.04422 -0.00716049 0)
(1.03742 -0.00212523 0)
(1.03361 0.00358627 0)
(1.03361 0.00917298 0)
(1.03737 0.0137967 0)
(1.04455 0.0174375 0)
(1.05538 0.0203839 0)
(1.07153 0.0229671 0)
(1.09482 0.0252865 0)
(1.09193 0.0253295 0)
(0.932856 0.0174923 0)
(0.545977 0.0053484 0)
(0.109312 0.000200707 0)
(0.110219 -0.000111285 0)
(0.744083 -0.00741485 0)
(1.03577 -0.0163594 0)
(1.10964 -0.0188544 0)
(1.0939 -0.0166331 0)
(1.07339 -0.0134184 0)
(1.05914 -0.00971625 0)
(1.04908 -0.00544211 0)
(1.04205 -0.000569622 0)
(1.03794 0.00490012 0)
(1.03764 0.0101694 0)
(1.04116 0.0144327 0)
(1.0482 0.0177042 0)
(1.059 0.0202994 0)
(1.07535 0.0225886 0)
(1.09752 0.0245258 0)
(1.08283 0.0237928 0)
(0.899794 0.0154311 0)
(0.516246 0.00461244 0)
(0.102831 0.000176456 0)
(0.106445 -8.17833e-05 0)
(0.719212 -0.0059146 0)
(1.01904 -0.013809 0)
(1.11032 -0.0165993 0)
(1.09944 -0.0146525 0)
(1.07866 -0.0114502 0)
(1.0641 -0.00777641 0)
(1.05381 -0.00355919 0)
(1.04652 0.00120945 0)
(1.04207 0.00647763 0)
(1.04138 0.0114495 0)
(1.04459 0.015375 0)
(1.05144 0.0182926 0)
(1.06218 0.0205483 0)
(1.07872 0.0225724 0)
(1.09884 0.0240966 0)
(1.07161 0.0226108 0)
(0.868285 0.0139196 0)
(0.490163 0.00411001 0)
(0.0971158 0.000160863 0)
(0.103589 -5.61932e-05 0)
(0.698655 -0.00465496 0)
(1.00334 -0.0114763 0)
(1.11034 -0.0143791 0)
(1.10485 -0.0126268 0)
(1.08394 -0.00938782 0)
(1.06905 -0.00568278 0)
(1.05849 -0.00145865 0)
(1.05088 0.00325798 0)
(1.04602 0.00837785 0)
(1.04486 0.0130863 0)
(1.04769 0.0166888 0)
(1.0543 0.0192586 0)
(1.06495 0.0211807 0)
(1.08164 0.0229433 0)
(1.09911 0.0240723 0)
(1.05856 0.0217988 0)
(0.838159 0.0128701 0)
(0.466622 0.00378431 0)
(0.0919013 0.000152081 0)
(0.101531 -3.25797e-05 0)
(0.681941 -0.00354748 0)
(0.989123 -0.00929142 0)
(1.10991 -0.0121084 0)
(1.11008 -0.0104664 0)
(1.0893 -0.00716845 0)
(1.07406 -0.00337109 0)
(1.06317 0.000925789 0)
(1.05518 0.00564816 0)
(1.04981 0.010673 0)
(1.04808 0.0151489 0)
(1.05045 0.0184384 0)
(1.05678 0.0206569 0)
(1.06731 0.0222421 0)
(1.08406 0.0237313 0)
(1.09836 0.0244352 0)
(1.0438 0.0213682 0)
(0.809071 0.0122108 0)
(0.444745 0.00359733 0)
(0.08698 0.000148674 0)
(0.100207 -9.28589e-06 0)
(0.668764 -0.00252286 0)
(0.976752 -0.00718072 0)
(1.10935 -0.00972829 0)
(1.11528 -0.00811139 0)
(1.09484 -0.00471715 0)
(1.07921 -0.000762592 0)
(1.06794 0.00366957 0)
(1.05947 0.00846542 0)
(1.05348 0.0134469 0)
(1.05107 0.0177181 0)
(1.05289 0.020704 0)
(1.05886 0.0225611 0)
(1.06925 0.0237949 0)
(1.08601 0.025009 0)
(1.09637 0.0252484 0)
(1.02737 0.0213109 0)
(0.780577 0.0118889 0)
(0.423818 0.00352341 0)
(0.0821857 0.00014958 0)
(0.099601 1.59631e-05 0)
(0.65897 -0.00152781 0)
(0.966549 -0.00507345 0)
(1.109 -0.00717436 0)
(1.12058 -0.00548953 0)
(1.10064 -0.001949 0)
(1.08459 0.00223366 0)
(1.07285 0.00687191 0)
(1.06381 0.0118133 0)
(1.05706 0.0168053 0)
(1.05383 0.0208962 0)
(1.05499 0.0235806 0)
(1.06055 0.0250623 0)
(1.07076 0.0259336 0)
(1.08742 0.0268315 0)
(1.09309 0.0265196 0)
(1.00923 0.0216725 0)
(0.752179 0.0118779 0)
(0.403241 0.00354855 0)
(0.0773808 0.000154324 0)
(0.0997329 3.56401e-05 0)
(0.652535 -0.000518838 0)
(0.958823 -0.00289704 0)
(1.1092 -0.00437292 0)
(1.12615 -0.00251255 0)
(1.10679 0.00123902 0)
(1.09028 0.00572484 0)
(1.07799 0.0106519 0)
(1.06824 0.0158138 0)
(1.06059 0.0208727 0)
(1.05638 0.0248059 0)
(1.05674 0.0271816 0)
(1.06182 0.0282852 0)
(1.07179 0.0287659 0)
(1.08805 0.0292912 0)
(1.0882 0.0283231 0)
(0.989173 0.0224765 0)
(0.723312 0.0121612 0)
(0.382461 0.00366263 0)
(0.0724404 0.000162371 0)
(0.100669 7.21208e-05 0)
(0.649569 0.00052754 0)
(0.953892 -0.000571616 0)
(1.1103 -0.0012422 0)
(1.13219 0.000912211 0)
(1.11343 0.00495961 0)
(1.09639 0.00984189 0)
(1.08345 0.0151484 0)
(1.07285 0.0206113 0)
(1.06409 0.0257943 0)
(1.0587 0.0295882 0)
(1.05812 0.031639 0)
(1.06262 0.0323527 0)
(1.0723 0.0324187 0)
(1.08777 0.0325161 0)
(1.08144 0.0307517 0)
(0.966896 0.0237687 0)
(0.693351 0.0127323 0)
(0.36096 0.00385875 0)
(0.0672544 0.000173199 0)
(0.102579 0.000106932 0)
(0.650428 0.00171532 0)
(0.952114 0.00198756 0)
(1.11277 0.00232249 0)
(1.13892 0.00488342 0)
(1.12069 0.00936705 0)
(1.10306 0.0147511 0)
(1.08932 0.0205376 0)
(1.07768 0.0263882 0)
(1.06759 0.0317474 0)
(1.06079 0.035406 0)
(1.0591 0.0370881 0)
(1.0629 0.0374039 0)
(1.07222 0.0370205 0)
(1.0863 0.0366282 0)
(1.07253 0.0338928 0)
(0.941952 0.0255799 0)
(0.661625 0.0135818 0)
(0.33825 0.00412773 0)
(0.0617274 0.000186018 0)
(0.10554 0.000156049 0)
(0.655559 0.00318696 0)
(0.953971 0.0049382 0)
(1.11709 0.00643979 0)
(1.14657 0.00956881 0)
(1.12873 0.0146433 0)
(1.11042 0.020649 0)
(1.09571 0.0270324 0)
(1.0828 0.0333615 0)
(1.07109 0.038942 0)
(1.06263 0.0424469 0)
(1.05965 0.0437289 0)
(1.0626 0.043609 0)
(1.0715 0.0427249 0)
(1.08349 0.0418179 0)
(1.06108 0.0378607 0)
(0.913753 0.0279522 0)
(0.627405 0.0147013 0)
(0.313875 0.00446005 0)
(0.0557823 0.000199929 0)
(0.109838 0.00021968 0)
(0.665365 0.00489201 0)
(0.959909 0.00841415 0)
(1.12372 0.0112753 0)
(1.1554 0.0151688 0)
(1.13779 0.0210173 0)
(1.11864 0.0277937 0)
(1.10274 0.0349059 0)
(1.08825 0.0417997 0)
(1.07461 0.0476234 0)
(1.06417 0.0509323 0)
(1.0597 0.0517498 0)
(1.06167 0.0511547 0)
(1.07005 0.0497014 0)
(1.07944 0.0481986 0)
(1.04652 0.0427679 0)
(0.881537 0.030905 0)
(0.589909 0.0160633 0)
(0.287417 0.00483728 0)
(0.0493674 0.000213471 0)
(0.115815 0.000305348 0)
(0.680637 0.00701169 0)
(0.97057 0.0126155 0)
(1.13327 0.0170761 0)
(1.16582 0.0219564 0)
(1.14812 0.0288167 0)
(1.12792 0.0365408 0)
(1.11051 0.044516 0)
(1.09408 0.0520383 0)
(1.07809 0.0580769 0)
(1.06536 0.0610966 0)
(1.05907 0.0613352 0)
(1.06003 0.0602256 0)
(1.06788 0.0581638 0)
(1.07385 0.0559667 0)
(1.02816 0.0486876 0)
(0.844383 0.0344239 0)
(0.548342 0.0176112 0)
(0.258555 0.00522961 0)
(0.0424735 0.000224613 0)
(0.123979 0.00042843 0)
(0.702317 0.00978481 0)
(0.986833 0.0178533 0)
(1.14638 0.0241861 0)
(1.17832 0.0303229 0)
(1.16004 0.0384965 0)
(1.13845 0.0473633 0)
(1.11911 0.0563215 0)
(1.10025 0.064481 0)
(1.08146 0.0706302 0)
(1.06608 0.0732017 0)
(1.05775 0.0727228 0)
(1.05759 0.0709694 0)
(1.06485 0.0682278 0)
(1.06633 0.0650609 0)
(1.00505 0.0556648 0)
(0.801207 0.0384311 0)
(0.501967 0.0192413 0)
(0.227136 0.00559255 0)
(0.0351515 0.000230831 0)
(0.135058 0.000602694 0)
(0.731643 0.0135872 0)
(1.00986 0.0246018 0)
(1.16385 0.03316 0)
(1.19348 0.0408696 0)
(1.17391 0.0507327 0)
(1.1504 0.0609357 0)
(1.12853 0.0709315 0)
(1.10666 0.0796188 0)
(1.08455 0.0856385 0)
(1.06617 0.0874958 0)
(1.05566 0.0861262 0)
(1.0543 0.0836687 0)
(1.06062 0.0800467 0)
(1.0561 0.0757707 0)
(0.975975 0.0636566 0)
(0.750809 0.0427504 0)
(0.450225 0.0207905 0)
(0.193272 0.005866 0)
(0.0275312 0.000229329 0)
(0.150331 0.000884226 0)
(0.770676 0.0190283 0)
(1.04132 0.0336562 0)
(1.1866 0.0449509 0)
(1.21214 0.0548324 0)
(1.19005 0.0665807 0)
(1.16383 0.0782274 0)
(1.13864 0.0891299 0)
(1.11305 0.098015 0)
(1.0871 0.103462 0)
(1.06541 0.104204 0)
(1.0526 0.101685 0)
(1.05005 0.098405 0)
(1.05489 0.0940181 0)
(1.04226 0.0881139 0)
(0.939369 0.0724333 0)
(0.692014 0.0470509 0)
(0.392968 0.0220185 0)
(0.157477 0.00597534 0)
(0.0198376 0.000217198 0)
(0.172024 0.00137045 0)
(0.82271 0.0272889 0)
(1.08388 0.0466077 0)
(1.2158 0.0614426 0)
(1.23479 0.0741157 0)
(1.20856 0.0876552 0)
(1.17849 0.100546 0)
(1.149 0.111847 0)
(1.11897 0.120261 0)
(1.08869 0.124433 0)
(1.06353 0.123499 0)
(1.04842 0.119491 0)
(1.04469 0.115197 0)
(1.04768 0.109917 0)
(1.02353 0.101937 0)
(0.89329 0.0815292 0)
(0.624014 0.0508371 0)
(0.330854 0.0226418 0)
(0.120825 0.00584873 0)
(0.0124037 0.000191551 0)
(0.203599 0.00245313 0)
(0.893544 0.041124 0)
(1.14106 0.0673428 0)
(1.25182 0.0861805 0)
(1.26123 0.101545 0)
(1.22882 0.116318 0)
(1.19355 0.12949 0)
(1.1588 0.140056 0)
(1.1237 0.146884 0)
(1.08882 0.148778 0)
(1.06019 0.145433 0)
(1.04294 0.139553 0)
(1.03812 0.13406 0)
(1.03836 0.127755 0)
(0.998062 0.116781 0)
(0.835499 0.0901221 0)
(0.547099 0.0534768 0)
(0.266093 0.0224703 0)
(0.0852685 0.00548282 0)
(0.00574993 0.000154773 0)
(0.246605 0.00881072 3.89537e-20)
(0.987255 0.0687612 3.4189e-20)
(1.21058 0.102123 -1.20481e-20)
(1.29165 0.122766 0)
(1.28864 0.140746 -3.17351e-34)
(1.24868 0.154918 4.66378e-21)
(1.20743 0.166586 -8.53381e-21)
(1.16691 0.174989 0)
(1.12644 0.179134 1.78466e-34)
(1.08674 0.177942 -1.08465e-20)
(1.05448 0.17173 0)
(1.03505 0.16388 -1.30304e-20)
(1.02954 0.157538 -3.85494e-20)
(1.02556 0.15087 -1.82525e-20)
(0.96122 0.135028 -5.50982e-21)
(0.759135 0.0993764 -3.27717e-21)
(0.456016 0.0550877 0)
(0.197376 0.0218204 2.28995e-21)
(0.0508599 0.00509872 2.70311e-21)
(-0.00017394 0.000101359 4.87653e-20)
(0.276748 0.0245855 2.61083e-20)
(1.06467 0.111983 5.53184e-22)
(1.2679 0.151704 3.1022e-21)
(1.32741 0.172543 0)
(1.31275 0.19027 -1.57228e-20)
(1.2658 0.202277 -1.80596e-20)
(1.21867 0.211632 -8.51783e-21)
(1.17236 0.217574 -3.07613e-20)
(1.12636 0.218996 0)
(1.08152 0.21481 4.60097e-20)
(1.0453 0.205888 4.58858e-20)
(1.02356 0.196153 1.36727e-20)
(1.01577 0.188284 5.01901e-20)
(1.0018 0.179605 7.08486e-20)
(0.902089 0.155835 0)
(0.654333 0.108217 1.00073e-19)
(0.348882 0.0557942 1.43399e-19)
(0.126204 0.0203348 1.5917e-19)
(0.016582 0.00350292 -1.81912e-19)
(-0.00604537 -0.000512943 -3.4288e-21)
(0.277807 0.0407118 0)
(1.1137 0.167954 4.03403e-21)
(1.30665 0.212681 0)
(1.35527 0.232928 -1.89113e-20)
(1.33177 0.247488 0)
(1.27894 0.255599 -3.47555e-20)
(1.22631 0.261202 1.72119e-20)
(1.17455 0.263551 -6.1207e-20)
(1.12332 0.261346 -1.59476e-21)
(1.07366 0.25348 2.36279e-20)
(1.03377 0.24136 1.0083e-19)
(1.0099 0.229424 -1.85421e-22)
(0.999612 0.21981 -3.64294e-20)
(0.975536 0.207948 -6.65362e-20)
(0.847719 0.175237 7.88741e-20)
(0.577115 0.115479 -1.3961e-19)
(0.28428 0.0563265 -1.83963e-20)
(0.0876227 0.0186191 0)
(-0.00186941 0.00113954 -1.63044e-23)
(-0.0094087 -0.00133605 0)
(0.271197 0.054634 3.76154e-20)
(1.14019 0.227199 -2.06561e-20)
(1.33063 0.278139 -1.88693e-20)
(1.37383 0.298463 8.52157e-21)
(1.34422 0.308989 -1.45068e-20)
(1.28701 0.312526 7.22341e-20)
(1.22988 0.313673 3.56159e-20)
(1.17343 0.311746 0)
(1.11757 0.305318 -1.16854e-19)
(1.06353 0.293236 0)
(1.02031 0.27747 -5.26192e-20)
(0.994457 0.262933 -6.55301e-20)
(0.981665 0.251077 -3.95706e-20)
(0.948969 0.2351 -4.82509e-20)
(0.802963 0.193463 0)
(0.525421 0.123537 0)
(0.247193 0.0582998 -1.19441e-19)
(0.0651323 0.0170636 2.35544e-20)
(-0.0142075 -0.00170015 -1.37997e-20)
(-0.0121796 -0.00237507 -1.61442e-20)
(0.263224 0.0668841 -3.67305e-21)
(1.15174 0.286218 0)
(1.34381 0.344452 3.25174e-20)
(1.38404 0.365339 2.24915e-20)
(1.35021 0.371913 3.43898e-20)
(1.28981 0.370836 0)
(1.22916 0.367392 3.41356e-20)
(1.16887 0.360965 6.701e-20)
(1.10904 0.350044 5.93536e-20)
(1.05112 0.33344 1.11001e-19)
(1.00484 0.313708 0)
(0.977089 0.29626 -1.40942e-19)
(0.961962 0.281808 -8.51963e-20)
(0.922199 0.261373 -5.04389e-20)
(0.767175 0.211405 3.0941e-19)
(0.492661 0.132725 3.67442e-20)
(0.227206 0.061545 1.72545e-19)
(0.0525146 0.0157811 -8.14875e-19)
(-0.0228118 -0.00485392 4.81334e-19)
(-0.0146787 -0.00360934 -5.80164e-19)
(0.255432 0.0778804 1.24461e-20)
(1.15362 0.343111 2.47592e-22)
(1.34908 0.409682 -2.04033e-21)
(1.38752 0.431659 -1.81028e-20)
(1.35068 0.43452 -2.62669e-20)
(1.28792 0.428996 1.79861e-21)
(1.22449 0.421095 -3.70273e-20)
(1.16104 0.410211 6.8711e-20)
(1.09783 0.394778 -1.27594e-19)
(1.03646 0.373554 0)
(0.987364 0.349676 -6.35866e-20)
(0.957727 0.329083 -1.56693e-21)
(0.940345 0.311808 -9.32437e-20)
(0.895582 0.286956 0)
(0.73805 0.229625 -6.69217e-20)
(0.472154 0.143382 -1.5849e-19)
(0.217611 0.0661685 4.21631e-19)
(0.047354 0.015248 -4.15204e-19)
(-0.0273687 -0.00774274 5.88362e-19)
(-0.0165039 -0.00487862 -6.11485e-19)
(0.248707 0.0879673 -4.268e-22)
(1.1494 0.397194 4.25846e-21)
(1.34862 0.472821 2.01173e-21)
(1.38571 0.496216 5.04233e-21)
(1.34669 0.495763 -1.2778e-20)
(1.28215 0.486071 0)
(1.21649 0.473954 -3.33271e-20)
(1.15042 0.458797 -7.16102e-20)
(1.08426 0.438973 -6.59846e-20)
(1.0198 0.413177 0)
(0.968052 0.385115 -6.56266e-20)
(0.936516 0.361265 -8.19186e-20)
(0.917034 0.341055 1.01116e-19)
(0.869003 0.311837 -6.14846e-20)
(0.713307 0.248288 -2.91864e-19)
(0.45871 0.155527 1.72786e-19)
(0.215164 0.0722326 5.11752e-20)
(0.0477708 0.0158668 0)
(-0.0282141 -0.00979581 -5.6838e-19)
(-0.0174439 -0.00599474 -2.08636e-20)
(0.243187 0.0974592 5.07745e-21)
(1.14142 0.448277 -7.38103e-21)
(1.34394 0.533401 -2.4396e-21)
(1.37987 0.558294 2.12263e-20)
(1.33921 0.554979 -4.29241e-20)
(1.27332 0.541485 6.17372e-20)
(1.20585 0.52545 7.18763e-20)
(1.13754 0.506274 -1.14308e-19)
(1.06879 0.482269 4.15183e-20)
(1.00149 0.452042 -2.72426e-19)
(0.947213 0.419849 -7.46176e-20)
(0.913782 0.392736 0)
(0.892294 0.369596 1.09826e-19)
(0.842029 0.336238 1.319e-19)
(0.690567 0.267399 1.57394e-19)
(0.44844 0.168716 -1.87971e-19)
(0.215336 0.0795743 -5.55232e-20)
(0.0513445 0.017934 6.52515e-20)
(-0.0260169 -0.0107016 0)
(-0.0174374 -0.00677771 -4.53804e-20)
(0.238815 0.106525 -7.72405e-20)
(1.13138 0.496469 4.32793e-20)
(1.33631 0.591214 4.30278e-21)
(1.37101 0.617564 9.79575e-21)
(1.32905 0.61178 -1.67478e-20)
(1.26214 0.594853 -4.11986e-21)
(1.19319 0.575247 -7.90312e-20)
(1.12295 0.552361 -4.14851e-20)
(1.05186 0.524432 -1.14859e-19)
(0.981906 0.489979 3.25936e-22)
(0.925201 0.453771 -2.33269e-19)
(0.88988 0.423456 1.98652e-19)
(0.866438 0.39742 -1.21052e-19)
(0.814633 0.360195 1.45732e-19)
(0.668543 0.286321 0)
(0.438685 0.182475 -1.02504e-19)
(0.2161 0.0877726 3.35445e-22)
(0.0563556 0.021208 -2.85466e-19)
(-0.0219737 -0.0104849 -4.18527e-20)
(-0.0167031 -0.00722533 0)
(0.235485 0.115313 0)
(1.12028 0.542001 4.96703e-20)
(1.32666 0.646707 2.08001e-20)
(1.35999 0.673901 -5.71179e-21)
(1.31692 0.665966 -2.46235e-20)
(1.2492 0.645965 0)
(1.17903 0.623137 -3.43285e-20)
(1.10711 0.596867 -1.03938e-21)
(1.03389 0.565317 2.4644e-19)
(0.96142 0.526882 -3.72819e-20)
(0.902333 0.486816 -1.6875e-19)
(0.865138 0.453366 1.03127e-19)
(0.839865 0.424511 -2.22972e-21)
(0.786832 0.383474 1.55351e-19)
(0.646157 0.30478 9.52105e-20)
(0.427824 0.196272 -2.21459e-19)
(0.215857 0.0962232 2.61872e-19)
(0.0612138 0.025268 7.7637e-20)
(-0.0170408 -0.00937305 3.1961e-19)
(-0.0154442 -0.00735101 -8.53912e-19)
(0.233123 0.123993 -2.54832e-20)
(1.10887 0.585063 3.4574e-20)
(1.3156 0.699181 -2.34144e-20)
(1.34741 0.727297 -2.00477e-21)
(1.30339 0.717444 0)
(1.23504 0.694703 -2.48629e-20)
(1.16385 0.668998 1.17314e-19)
(1.09043 0.639681 9.05039e-20)
(1.01523 0.604828 0)
(0.940325 0.562687 -5.40021e-19)
(0.878891 0.518921 4.57839e-19)
(0.839863 0.482403 0)
(0.812816 0.450733 1.42116e-19)
(0.758666 0.405912 -2.2006e-21)
(0.622749 0.322387 -3.06583e-19)
(0.41517 0.209388 1.19601e-19)
(0.213384 0.104525 0)
(0.0647588 0.0296826 4.20023e-19)
(-0.012262 -0.00768922 0)
(-0.0139462 -0.00722593 -4.05265e-19)
(0.2316 0.132623 3.0513e-20)
(1.09757 0.625912 4.48456e-20)
(1.30374 0.748724 -2.31766e-20)
(1.33377 0.777764 0)
(1.28892 0.766204 -1.59925e-20)
(1.22009 0.741033 0)
(1.14803 0.712769 -1.13192e-19)
(1.07327 0.68074 -4.08717e-20)
(0.996201 0.642919 4.30905e-20)
(0.918914 0.597368 -2.67464e-19)
(0.855107 0.550066 4.7174e-20)
(0.814253 0.510524 0)
(0.785519 0.475983 -3.04132e-19)
(0.730214 0.427212 2.09086e-21)
(0.598073 0.33874 0)
(0.400605 0.221139 8.49397e-22)
(0.208419 0.111969 3.85125e-19)
(0.0662574 0.0337534 -3.63627e-19)
(-0.00845712 -0.00594365 1.07214e-19)
(-0.0124964 -0.00696719 0)
(0.230587 0.141122 0)
(1.08666 0.664679 5.3975e-20)
(1.29133 0.795491 3.40229e-20)
(1.3195 0.825361 -2.56728e-21)
(1.27391 0.812273 -1.30772e-21)
(1.2047 0.784958 -5.61455e-20)
(1.1319 0.754439 4.33041e-20)
(1.05592 0.720021 -4.9411e-20)
(0.977083 0.679566 1.93978e-19)
(0.89742 0.630924 -4.28615e-19)
(0.831169 0.580265 -4.26368e-21)
(0.788461 0.537697 -1.32686e-19)
(0.758063 0.500135 4.94653e-19)
(0.701564 0.447147 -2.54926e-21)
(0.572403 0.353448 -2.39236e-19)
(0.383992 0.231194 -4.23961e-19)
(0.201145 0.118031 0)
(0.0655662 0.0369553 0)
(-0.00596247 -0.00452913 1.15916e-19)
(-0.0112552 -0.00669983 -6.80111e-20)
(0.230302 0.149607 4.27187e-20)
(1.07638 0.701266 -1.22446e-19)
(1.27861 0.839626 -3.64536e-20)
(1.30494 0.870153 0)
(1.25866 0.855714 -1.49764e-21)
(1.18915 0.826508 -4.67424e-20)
(1.11574 0.794022 1.01576e-19)
(1.03864 0.757524 1.9164e-19)
(0.958107 0.714772 2.51643e-19)
(0.876055 0.663375 -3.50228e-19)
(0.807248 0.609559 -3.95885e-19)
(0.762585 0.563933 3.55418e-19)
(0.730511 0.523082 0)
(0.672737 0.46539 -1.0917e-19)
(0.545993 0.366063 -2.58748e-19)
(0.365768 0.23909 -3.05377e-19)
(0.191761 0.122343 -3.60042e-19)
(0.0630597 0.038901 1.0632e-19)
(-0.00468652 -0.00368613 -6.24684e-20)
(-0.0102721 -0.006493 3.20426e-22)
(0.230196 0.158008 0)
(1.06684 0.735944 0)
(1.26586 0.881224 2.45551e-21)
(1.2903 0.912255 0)
(1.24339 0.89662 -9.13753e-21)
(1.17367 0.865748 2.77883e-20)
(1.09975 0.83155 0)
(1.02163 0.793266 2.22235e-20)
(0.939476 0.748548 4.1965e-19)
(0.855016 0.694751 -8.0694e-19)
(0.783491 0.638016 0)
(0.736685 0.589269 -2.29493e-19)
(0.702804 0.544744 -2.99238e-21)
(0.643653 0.481695 -2.20237e-21)
(0.51902 0.376262 2.7762e-19)
(0.346175 0.244441 2.94961e-23)
(0.180737 0.124615 -7.76476e-19)
(0.0590646 0.0395412 2.28879e-19)
(-0.00443107 -0.00342972 6.76604e-20)
(-0.00952701 -0.00635403 0)
(0.230214 0.166273 -1.70587e-19)
(1.05781 0.768973 -8.25451e-20)
(1.25318 0.920378 -1.07303e-19)
(1.27579 0.951804 1.03989e-19)
(1.22831 0.935065 -3.1197e-20)
(1.15845 0.902741 0)
(1.0841 0.867071 5.95215e-20)
(1.00507 0.827275 -5.02087e-20)
(0.921356 0.780916 3.93338e-21)
(0.83448 0.725094 5.98206e-20)
(0.760034 0.665715 5.14498e-19)
(0.710783 0.613798 -8.05256e-20)
(0.674856 0.565123 -3.06315e-19)
(0.614227 0.495829 -1.27538e-19)
(0.491582 0.383603 1.50579e-19)
(0.325643 0.246912 1.77568e-22)
(0.168718 0.124651 2.09302e-19)
(0.0540809 0.0388929 -4.93024e-19)
(-0.00482254 -0.00366109 5.82786e-19)
(-0.00894635 -0.00626459 8.49554e-20)
(0.230232 0.174309 6.47186e-20)
(1.04929 0.800427 -4.64481e-20)
(1.24071 0.957191 6.2618e-21)
(1.26152 0.988936 6.70103e-20)
(1.21355 0.971163 1.3384e-20)
(1.14362 0.937563 -4.50539e-20)
(1.06893 0.900638 1.57951e-20)
(0.989077 0.859576 -2.08672e-19)
(0.903892 0.811883 -4.62551e-19)
(0.81459 0.754419 -4.81842e-19)
(0.737019 0.692743 0)
(0.684909 0.637665 -3.55319e-19)
(0.646539 0.584297 4.42598e-19)
(0.584189 0.50759 0)
(0.463689 0.387627 -3.23012e-19)
(0.305046 0.246042 1.91602e-19)
(0.156696 0.122267 -2.25256e-19)
(0.0491188 0.0371696 -2.6543e-19)
(-0.00544517 -0.00415593 -4.69477e-19)
(-0.00851051 -0.00621736 -3.66186e-19)
(0.230584 0.182219 -7.32086e-20)
(1.04113 0.830307 4.97022e-20)
(1.22853 0.991742 1.12961e-19)
(1.24758 1.02374 9.82031e-20)
(1.19922 1.00501 -2.41695e-20)
(1.12927 0.970304 -1.93876e-20)
(1.05434 0.932304 5.40976e-20)
(0.973754 0.890214 -2.13189e-19)
(0.887178 0.841473 -2.74317e-19)
(0.795479 0.782753 5.05071e-19)
(0.714574 0.719183 1.13428e-18)
(0.659117 0.661054 0)
(0.617705 0.602431 0)
(0.553163 0.516907 -1.46991e-19)
(0.435076 0.387826 0)
(0.284811 0.240827 4.11753e-19)
(0.146435 0.116562 4.84272e-19)
(0.0463054 0.0341451 0)
(-0.00513047 -0.00473973 0)
(-0.00824487 -0.00623513 3.93724e-19)
(0.230662 0.189713 8.32327e-20)
(1.03336 0.858615 6.71069e-20)
(1.21668 1.02416 8.20653e-20)
(1.23405 1.05635 -9.48109e-20)
(1.18539 1.03672 -3.28356e-20)
(1.11549 1.00104 1.25451e-20)
(1.04039 0.962132 -7.34526e-20)
(0.959173 0.919216 -7.86007e-22)
(0.871305 0.869695 -5.12918e-21)
(0.777252 0.810099 -4.24091e-21)
(0.692848 0.7451 5.85131e-19)
(0.633509 0.684149 0)
(0.588253 0.619786 4.504e-19)
(0.52068 0.52391 3.14567e-19)
(0.404968 0.383855 7.55124e-19)
(0.26459 0.229647 2.22156e-19)
(0.139704 0.104368 -2.60581e-19)
(0.0507803 0.0260992 -1.53003e-19)
(0.00310208 -0.00673405 0)
(-0.00583087 -0.00553723 4.23284e-19)
(0.231088 0.197232 -1.87671e-19)
(1.02592 0.885442 0)
(1.20517 1.05449 9.66784e-20)
(1.22097 1.08683 -8.04491e-20)
(1.17212 1.06638 4.59173e-20)
(1.10232 1.02986 -2.06817e-22)
(1.02714 0.990179 1.36501e-19)
(0.945377 0.946619 -1.76769e-20)
(0.856324 0.896558 0)
(0.759996 0.836437 -5.57984e-19)
(0.671984 0.770525 -1.27438e-18)
(0.608231 0.707131 5.26701e-20)
(0.558184 0.636697 6.24083e-19)
(0.486345 0.529038 0)
(0.37201 0.375996 5.10767e-19)
(0.241933 0.21099 0)
(0.13425 0.0785251 0)
(0.0678608 -0.00299245 -1.65449e-19)
(0.0422797 -0.0202366 0)
(0.0258526 0.00918125 1.13531e-19)
(0.23118 0.204183 -2.09732e-19)
(1.01879 0.911136 0)
(1.19399 1.08296 1.61137e-19)
(1.2083 1.11542 0)
(1.15937 1.09427 -2.83116e-20)
(1.08969 1.05705 0)
(1.01453 1.01676 5.57282e-21)
(0.93227 0.972757 2.93146e-20)
(0.842112 0.922418 3.45797e-20)
(0.743541 0.862145 -6.12074e-19)
(0.651786 0.795897 3.81252e-20)
(0.583024 0.730658 4.25798e-19)
(0.527001 0.65402 6.09948e-19)
(0.449158 0.53292 8.23017e-20)
(0.333994 0.36554 4.01464e-19)
(0.211165 0.185732 0)
(0.117095 0.0338454 5.4939e-19)
(0.0645684 -0.0439874 -3.20477e-19)
(0.0406618 0.0386602 3.73001e-19)
(-0.0690883 0.439279 -4.39343e-19)
(0.231287 0.210956 1.73729e-19)
(1.01169 0.935472 2.67315e-19)
(1.18305 1.10987 0)
(1.1959 1.14257 4.85388e-21)
(1.14694 1.12095 8.45326e-20)
(1.07734 1.08329 -3.71455e-20)
(1.00222 1.04265 4.35859e-20)
(0.919431 0.998556 0)
(0.828123 0.94835 2.26418e-19)
(0.727201 0.88851 -3.16501e-20)
(0.631319 0.822684 0)
(0.556577 0.756378 0)
(0.492596 0.673168 5.48288e-19)
(0.40655 0.536011 -2.55067e-19)
(0.287493 0.354195 -4.08432e-19)
(0.166901 0.156827 0)
(0.0694336 0.047824 2.77652e-19)
(0.00236283 0.435289 -3.19831e-19)
(0.0320998 1.8974 -1.74188e-19)
(0.0611805 2.81523 -2.23464e-19)
(0.231255 0.216937 -1.30425e-19)
(1.00483 0.958638 -3.43085e-19)
(1.17235 1.13521 9.57059e-20)
(1.18376 1.16814 7.86972e-20)
(1.13485 1.1462 0)
(1.06535 1.1083 -3.65523e-20)
(0.990435 1.06756 5.35752e-20)
(0.90706 1.02359 -1.39255e-20)
(0.814636 0.973845 3.40432e-20)
(0.71137 0.914935 5.83391e-19)
(0.611195 0.850279 6.46976e-19)
(0.52981 0.783958 4.79933e-19)
(0.455757 0.694449 5.53654e-19)
(0.359936 0.537483 -6.02538e-19)
(0.237502 0.345747 -6.19297e-19)
(0.113672 0.20392 0)
(0.0406206 0.83692 0)
(0.0978922 2.55569 1.52788e-19)
(0.0992835 3.20474 0)
(0.102751 3.38927 3.61945e-19)
(0.233756 0.222502 0)
(0.998827 0.98084 0)
(1.16168 1.15884 0)
(1.17168 1.19198 2.38319e-20)
(1.12275 1.16976 7.72517e-20)
(1.05349 1.13193 -3.93079e-20)
(0.979051 1.09138 3.22499e-20)
(0.895115 1.04776 -1.34229e-20)
(0.801621 0.99877 2.80318e-19)
(0.696087 0.941288 -8.61688e-21)
(0.591584 0.878604 1.27966e-18)
(0.503031 0.813282 -5.56581e-20)
(0.416661 0.719187 6.71551e-20)
(0.311807 0.535054 8.75286e-20)
(0.17391 0.356962 -6.10841e-21)
(0.0943951 0.962371 1.84294e-21)
(0.135898 2.72842 -8.15788e-19)
(0.143615 3.29362 -3.04071e-19)
(0.133398 3.42533 1.5552e-19)
(0.121636 3.44747 -1.72663e-19)
(0.152685 0.180059 7.7238e-20)
(0.987385 1.00481 0)
(1.15062 1.18094 -1.91411e-19)
(1.16018 1.2146 -2.13574e-19)
(1.11155 1.19248 1.83341e-19)
(1.04272 1.1549 4.62806e-20)
(0.968008 1.1142 -3.01393e-20)
(0.883711 1.07119 1.4009e-19)
(0.789254 1.0233 -2.28058e-19)
(0.681657 0.967758 0)
(0.572926 0.907883 6.28853e-19)
(0.476808 0.844272 -3.92933e-19)
(0.377787 0.750353 0)
(0.256477 0.529202 8.21918e-20)
(0.137 0.716913 1.95513e-19)
(0.151697 2.50422 -2.25337e-19)
(0.207514 3.32163 2.51721e-19)
(0.188463 3.43671 1.34218e-19)
(0.157129 3.45854 1.49436e-19)
(0.135924 3.46904 2.34988e-19)
(0.276334 0.259925 -1.41036e-19)
(0.971607 1.01412 0)
(1.13211 1.20606 2.08658e-19)
(1.14479 1.24496 2.33607e-19)
(1.09392 1.22544 -2.03729e-19)
(1.02431 1.18822 -6.90262e-20)
(0.948667 1.14916 1.2106e-20)
(0.863829 1.10737 1.11879e-20)
(0.767985 1.06166 2.14424e-19)
(0.657479 1.01006 5.00946e-19)
(0.543122 0.956702 3.52123e-20)
(0.435138 0.897368 3.50115e-19)
(0.305204 0.782898 6.3385e-20)
(0.209281 0.896571 -8.09518e-20)
(0.226498 2.35182 -1.81943e-19)
(0.288188 3.32249 1.71208e-19)
(0.271011 3.46389 -1.87266e-19)
(0.235933 3.48642 -1.07282e-19)
(0.199249 3.51456 -8.72365e-20)
(0.147944 3.50931 -1.0228e-20)
(0.264073 0.25671 0)
(0.968938 1.03649 6.05057e-20)
(1.12353 1.22939 -4.30896e-20)
(1.13394 1.26853 -2.79291e-20)
(1.0829 1.24859 -1.41166e-19)
(1.01324 1.21159 7.19501e-20)
(0.937257 1.17266 7.53747e-23)
(0.852189 1.13168 9.78428e-21)
(0.755759 1.08747 -2.21576e-19)
(0.643835 1.03878 -1.34644e-20)
(0.526408 0.990371 -1.13593e-18)
(0.412686 0.935284 5.01725e-20)
(0.284871 0.84738 -5.97148e-20)
(0.252914 1.46967 -7.45712e-20)
(0.329016 3.0994 1.82215e-20)
(0.347682 3.4604 3.49805e-24)
(0.307609 3.51708 2.62182e-19)
(0.270427 3.54483 1.24135e-19)
(0.221956 3.56885 -2.37314e-20)
(0.163135 3.56541 -4.49655e-20)
(0.247913 0.255189 1.53393e-19)
(0.964676 1.06151 4.12933e-19)
(1.11455 1.25481 -1.23446e-19)
(1.12251 1.29352 -1.05327e-19)
(1.07124 1.27308 0)
(1.00173 1.23614 1.31098e-19)
(0.925715 1.19745 1.49425e-20)
(0.840699 1.15726 8.26212e-21)
(0.744008 1.11465 -2.49337e-20)
(0.631203 1.06916 -4.488e-19)
(0.511565 1.02611 -5.22315e-19)
(0.393763 0.97441 -4.0814e-19)
(0.285846 0.977592 -4.52444e-19)
(0.324037 2.19994 4.66535e-19)
(0.417372 3.36969 3.83548e-19)
(0.392791 3.51724 0)
(0.34764 3.5635 0)
(0.30965 3.60531 -1.75574e-20)
(0.259056 3.66594 0)
(0.176062 3.64254 -9.51419e-21)
(0.23728 0.257042 -2.29743e-19)
(0.958501 1.08761 -3.50654e-19)
(1.10411 1.2814 0)
(1.1097 1.31921 5.82233e-21)
(1.05829 1.29817 -1.53142e-19)
(0.989071 1.26117 2.13197e-19)
(0.913369 1.22277 1.81807e-20)