/*--------------------------------*- C++ -*----------------------------------*\
| =========                 |                                                 |
| \\      /  F ield         | OpenFOAM: The Open Source CFD Toolbox           |
|  \\    /   O peration     | Version:  2112                                  |
|   \\  /    A nd           | Website:  www.openfoam.com                      |
|    \\/     M anipulation  |                                                 |
\*---------------------------------------------------------------------------*/
FoamFile
{
    version     2.0;
    format      ascii;
    arch        "LSB;label=32;scalar=64";
    class       volScalarField;
    location    "5";
    object      T;
}
// * * * * * * * * * * * * * * * * * * * * * * * * * * * * * * * * * * * * * //

dimensions      [0 0 0 1 0 0 0];

internalField   nonuniform List<scalar> 
10000
(
6.86351e-40
6.16399e-40
5.78855e-40
5.90588e-40
6.40016e-40
7.20158e-40
8.31536e-40
9.81254e-40
1.18443e-39
1.39748e-39
7.05088e-39
6.25778e-39
5.86119e-39
5.9713e-39
6.46931e-39
7.27702e-39
8.3995e-39
9.92651e-39
1.20167e-38
1.43538e-38
5.97728e-38
5.26582e-38
4.90995e-38
4.98907e-38
5.40146e-38
6.07199e-38
7.00465e-38
8.29779e-38
1.00943e-37
1.21534e-37
4.97372e-37
4.376e-37
4.06814e-37
4.12597e-37
4.46406e-37
5.01381e-37
5.78017e-37
6.85778e-37
8.37139e-37
1.00991e-36
4.08873e-36
3.60397e-36
3.34879e-36
3.39524e-36
3.67252e-36
4.12063e-36
4.74496e-36
5.62922e-36
6.87793e-36
8.28867e-36
3.3309e-35
2.94533e-35
2.74201e-35
2.7838e-35
3.01229e-35
3.37635e-35
3.88045e-35
4.59539e-35
5.60647e-35
6.73875e-35
2.69311e-34
2.39069e-34
2.23453e-34
2.27536e-34
2.46487e-34
2.75986e-34
3.16324e-34
3.733e-34
4.53832e-34
5.4356e-34
2.1626e-33
1.92839e-33
1.81257e-33
1.85387e-33
2.01198e-33
2.25037e-33
2.57025e-33
3.01796e-33
3.64986e-33
4.35317e-33
1.7256e-32
1.54646e-32
1.46361e-32
1.5054e-32
1.63786e-32
1.82999e-32
2.08139e-32
2.42844e-32
2.91734e-32
3.46287e-32
1.36859e-31
1.2333e-31
1.17654e-31
1.21813e-31
1.32935e-31
1.48375e-31
1.67962e-31
1.94509e-31
2.31816e-31
2.73686e-31
1.07905e-30
9.78233e-31
9.41532e-31
9.82048e-31
1.07549e-30
1.1992e-30
1.35051e-30
1.55085e-30
1.83152e-30
2.14932e-30
8.4577e-30
7.71753e-30
7.50046e-30
7.88654e-30
8.67087e-30
9.65903e-30
1.0818e-29
1.23087e-29
1.43879e-29
1.67715e-29
6.58996e-29
6.05554e-29
5.94702e-29
6.30759e-29
6.96447e-29
7.75159e-29
8.63161e-29
9.72361e-29
1.12377e-28
1.30019e-28
5.10354e-28
4.72507e-28
4.69236e-28
5.02318e-28
5.57143e-28
6.19696e-28
6.85936e-28
7.64481e-28
8.72617e-28
1.00115e-27
3.92758e-27
3.66581e-27
3.68389e-27
3.98251e-27
4.43836e-27
4.93424e-27
5.42835e-27
5.98147e-27
6.73574e-27
7.65521e-27
3.00265e-26
2.827e-26
2.87722e-26
3.14285e-26
3.52029e-26
3.91234e-26
4.27752e-26
4.65723e-26
5.16775e-26
5.81123e-26
2.27944e-25
2.16642e-25
2.23521e-25
2.46832e-25
2.77954e-25
3.08845e-25
3.35574e-25
3.60845e-25
3.94007e-25
4.3782e-25
1.71736e-24
1.64925e-24
1.72668e-24
1.92876e-24
2.18442e-24
2.42687e-24
2.62056e-24
2.78207e-24
2.98501e-24
3.27245e-24
1.28338e-23
1.24664e-23
1.32569e-23
1.49902e-23
1.70826e-23
1.89811e-23
2.03713e-23
2.13428e-23
2.24704e-23
2.42568e-23
9.50635e-23
9.35022e-23
1.01108e-22
1.15824e-22
1.3288e-22
1.47743e-22
1.57644e-22
1.62932e-22
1.68071e-22
1.78274e-22
6.97278e-22
6.95258e-22
7.65529e-22
8.8922e-22
1.02767e-21
1.14414e-21
1.21431e-21
1.23795e-21
1.2493e-21
1.29879e-21
5.05747e-21
5.12029e-21
5.74964e-21
6.77858e-21
7.89872e-21
8.81268e-21
9.31046e-21
9.36549e-21
9.23253e-21
9.37967e-21
3.62188e-20
3.73046e-20
4.27942e-20
5.12672e-20
6.03029e-20
6.75009e-20
7.10732e-20
7.06009e-20
6.79018e-20
6.71805e-20
2.55622e-19
2.68437e-19
3.15189e-19
3.84249e-19
4.56898e-19
5.1398e-19
5.40339e-19
5.30864e-19
4.97853e-19
4.77709e-19
1.77357e-18
1.90381e-18
2.29285e-18
2.84923e-18
3.43118e-18
3.88805e-18
4.0922e-18
3.98726e-18
3.64894e-18
3.37979e-18
1.20605e-17
1.32726e-17
1.64329e-17
2.08535e-17
2.54916e-17
2.91872e-17
3.08765e-17
2.99727e-17
2.68527e-17
2.38938e-17
8.00981e-17
9.0662e-17
1.15663e-16
1.50181e-16
1.86855e-16
2.17033e-16
2.32036e-16
2.26004e-16
1.99726e-16
1.70117e-16
5.17472e-16
6.04437e-16
7.96261e-16
1.05985e-15
1.34611e-15
1.5937e-15
1.73465e-15
1.71318e-15
1.51685e-15
1.23976e-15
3.23824e-15
3.91565e-15
5.33537e-15
7.29087e-15
9.47946e-15
1.14994e-14
1.28569e-14
1.30544e-14
1.18817e-14
9.51142e-15
1.95448e-14
2.45292e-14
3.45977e-14
4.85771e-14
6.47976e-14
8.09388e-14
9.39074e-14
9.98202e-14
9.76474e-14
8.28394e-14
5.95719e-40
5.41564e-40
5.14695e-40
5.2999e-40
5.77009e-40
6.49863e-40
7.47916e-40
8.76308e-40
1.04562e-39
1.2181e-39
6.046e-39
5.45019e-39
5.17626e-39
5.3249e-39
5.79703e-39
6.52741e-39
7.50972e-39
8.80949e-39
1.05252e-38
1.23693e-38
5.08485e-38
4.56619e-38
4.32745e-38
4.443e-38
4.83467e-38
5.43992e-38
6.25638e-38
7.35272e-38
8.80964e-38
1.04013e-37
4.22185e-37
3.79477e-37
3.59336e-37
3.68644e-37
4.01018e-37
4.50848e-37
5.18141e-37
6.09267e-37
7.31007e-37
8.6355e-37
3.47411e-36
3.13136e-36
2.96938e-36
3.04911e-36
3.31772e-36
3.72695e-36
4.277e-36
5.02359e-36
6.02298e-36
7.1035e-36
2.83724e-35
2.56657e-35
2.44224e-35
2.51411e-35
2.7382e-35
3.07337e-35
3.51921e-35
4.12234e-35
4.92944e-35
5.79805e-35
2.30164e-34
2.09065e-34
1.99935e-34
2.06633e-34
2.25432e-34
2.52816e-34
2.88642e-34
3.36697e-34
4.00918e-34
4.70014e-34
1.85554e-33
1.6932e-33
1.62938e-33
1.69271e-33
1.85111e-33
2.07432e-33
2.35981e-33
2.73772e-33
3.24168e-33
3.78571e-33
1.48708e-32
1.36384e-32
1.32209e-32
1.382e-32
1.5158e-32
1.69733e-32
1.92306e-32
2.21658e-32
2.60679e-32
3.03065e-32
1.18507e-31
1.09289e-31
1.06821e-31
1.12445e-31
1.23757e-31
1.38488e-31
1.56204e-31
1.78724e-31
2.08535e-31
2.41203e-31
9.39238e-31
8.71397e-31
8.59463e-31
9.11664e-31
1.00726e-30
1.12651e-30
1.26458e-30
1.43524e-30
1.65981e-30
1.90876e-30
7.40365e-30
6.91363e-30
6.88582e-30
7.36457e-30
8.17098e-30
9.13436e-30
1.0203e-29
1.14791e-29
1.31453e-29
1.5019e-29
5.8042e-29
5.45806e-29
5.49301e-29
5.92699e-29
6.60533e-29
7.38217e-29
8.20382e-29
9.14399e-29
1.03592e-28
1.17498e-28
4.52503e-28
4.28726e-28
4.36298e-28
4.75174e-28
5.32077e-28
5.94574e-28
6.57329e-28
7.25486e-28
8.12311e-28
9.13876e-28
3.50762e-27
3.3502e-27
3.44997e-27
3.79441e-27
4.27023e-27
4.77195e-27
5.24813e-27
5.73292e-27
6.3377e-27
7.06554e-27
2.7027e-26
2.60391e-26
2.71553e-26
3.01752e-26
3.41412e-26
3.81597e-26
4.17494e-26
4.51218e-26
4.91961e-26
5.42898e-26
2.06933e-25
2.0125e-25
2.12728e-25
2.38946e-25
2.719e-25
3.04005e-25
3.30902e-25
3.53729e-25
3.79924e-25
4.14479e-25
1.57375e-24
1.54619e-24
1.65804e-24
1.88371e-24
2.15655e-24
2.41281e-24
2.61331e-24
2.76203e-24
2.91899e-24
3.14343e-24
1.18822e-23
1.18055e-23
1.2855e-23
1.47811e-23
1.70316e-23
1.90766e-23
2.05655e-23
2.14854e-23
2.23142e-23
2.36789e-23
8.90121e-23
8.95316e-23
9.91029e-23
1.15408e-22
1.33906e-22
1.50227e-22
1.61261e-22
1.66533e-22
1.69747e-22
1.77129e-22
6.61103e-22
6.73967e-22
7.59342e-22
8.96262e-22
1.04792e-21
1.17822e-21
1.26015e-21
1.2867e-21
1.28544e-21
1.31577e-21
4.86349e-21
5.03251e-21
5.77912e-21
6.91998e-21
8.16042e-21
9.20326e-21
9.81631e-21
9.91576e-21
9.69768e-21
9.70766e-21
3.53933e-20
3.72358e-20
4.36452e-20
5.30796e-20
6.31976e-20
7.15855e-20
7.6247e-20
7.62706e-20
7.2967e-20
7.11664e-20
2.54345e-19
2.72606e-19
3.26688e-19
4.04049e-19
4.86393e-19
5.54294e-19
5.90703e-19
5.86229e-19
5.4851e-19
5.18916e-19
1.8011e-18
1.97126e-18
2.4196e-18
3.0479e-18
3.71638e-18
4.27069e-18
4.56633e-18
4.50972e-18
4.13132e-18
3.77102e-18
1.25351e-17
1.40472e-17
1.7693e-17
2.27374e-17
2.81444e-17
3.27128e-17
3.52323e-17
3.47925e-17
3.1315e-17
2.74185e-17
8.54683e-17
9.83551e-17
1.27356e-16
1.6726e-16
2.1072e-16
2.48694e-16
2.71264e-16
2.69801e-16
2.40409e-16
2.00877e-16
5.688e-16
6.74188e-16
8.9889e-16
1.2084e-15
1.55381e-15
1.87073e-15
2.0812e-15
2.10686e-15
1.88786e-15
1.50648e-15
3.67945e-15
4.50438e-15
6.19066e-15
8.52852e-15
1.12215e-14
1.38504e-14
1.58497e-14
1.65596e-14
1.52947e-14
1.18868e-14
2.30336e-14
2.91864e-14
4.13565e-14
5.84029e-14
7.87687e-14
1.00106e-13
1.18954e-13
1.30447e-13
1.30537e-13
1.06617e-13
5.18896e-40
4.77731e-40
4.61981e-40
4.82227e-40
5.28765e-40
5.9599e-40
6.82474e-40
7.91441e-40
9.31954e-40
1.07352e-39
5.25176e-39
4.80399e-39
4.64955e-39
4.85281e-39
5.32302e-39
5.999e-39
6.86674e-39
7.96751e-39
9.38087e-39
1.08836e-38
4.39618e-38
4.01519e-38
3.88602e-38
4.05295e-38
4.4462e-38
5.00857e-38
5.72978e-38
6.65483e-38
7.84202e-38
9.12204e-38
3.63868e-37
3.33274e-37
3.23085e-37
3.37215e-37
3.70088e-37
4.16689e-37
4.76208e-37
5.5279e-37
6.50955e-37
7.56092e-37
2.99178e-36
2.75261e-36
2.67819e-36
2.80225e-36
3.0787e-36
3.46457e-36
3.95276e-36
4.57824e-36
5.37756e-36
6.22599e-36
2.44673e-35
2.26264e-35
2.21288e-35
2.32444e-35
2.55833e-35
2.87757e-35
3.27523e-35
3.77974e-35
4.42177e-35
5.09981e-35
1.99142e-34
1.85112e-34
1.82183e-34
1.92346e-34
2.12226e-34
2.38607e-34
2.70769e-34
3.10982e-34
3.61924e-34
4.1576e-34
1.61325e-33
1.50753e-33
1.49436e-33
1.58727e-33
1.75667e-33
1.97438e-33
2.23282e-33
2.54983e-33
2.94938e-33
3.37372e-33
1.30082e-32
1.22231e-32
1.22126e-32
1.306e-32
1.45046e-32
1.62986e-32
1.83633e-32
2.08364e-32
2.3934e-32
2.72504e-32
1.04409e-31
9.86809e-32
9.94434e-32
1.07128e-31
1.1944e-31
1.34202e-31
1.50609e-31
1.69704e-31
1.93432e-31
2.19107e-31
8.34193e-31
7.93311e-31
8.0678e-31
8.75967e-31
9.80756e-31
1.10202e-30
1.23176e-30
1.37765e-30
1.55703e-30
1.75373e-30
6.63416e-30
6.35054e-30
6.52128e-30
7.13947e-30
8.02946e-30
9.02416e-30
1.00453e-29
1.11473e-29
1.24835e-29
1.39728e-29
5.25125e-29
5.06189e-29
5.25159e-29
5.79974e-29
6.55379e-29
7.36843e-29
8.16872e-29
8.99082e-29
9.96894e-29
1.10812e-28
4.13667e-28
4.01712e-28
4.21311e-28
4.69549e-28
5.33268e-28
5.99887e-28
6.62349e-28
7.22837e-28
7.92919e-28
8.74643e-28
3.24252e-27
3.17369e-27
3.36687e-27
3.7883e-27
4.32525e-27
4.86929e-27
5.35501e-27
5.79297e-27
6.28152e-27
6.87001e-27
2.52857e-26
2.49572e-26
2.67987e-26
3.0455e-26
3.49667e-26
3.94046e-26
4.31696e-26
4.62812e-26
4.95625e-26
5.36909e-26
1.96116e-25
1.95313e-25
2.12427e-25
2.43934e-25
2.81734e-25
3.17905e-25
3.47023e-25
3.68625e-25
3.89495e-25
4.17439e-25
1.51236e-24
1.52082e-24
1.67666e-24
1.94642e-24
2.26215e-24
2.55683e-24
2.78176e-24
2.92752e-24
3.04889e-24
3.22826e-24
1.15912e-23
1.1779e-23
1.31744e-23
1.54696e-23
1.8099e-23
2.04993e-23
2.22374e-23
2.31863e-23
2.37756e-23
2.48293e-23
8.82544e-23
9.07095e-23
1.03024e-22
1.22435e-22
1.44275e-22
1.63832e-22
1.77298e-22
1.83189e-22
1.84748e-22
1.89903e-22
6.67141e-22
6.94241e-22
8.01493e-22
9.64687e-22
1.14563e-21
1.30518e-21
1.41011e-21
1.44437e-21
1.43112e-21
1.4443e-21
5.0027e-21
5.27714e-21
6.19978e-21
7.56351e-21
9.05919e-21
1.03638e-20
1.11897e-20
1.1371e-20
1.10589e-20
1.09241e-20
3.71703e-20
3.98038e-20
4.76461e-20
5.89704e-20
7.13066e-20
8.20131e-20
8.86141e-20
8.94518e-20
8.53398e-20
8.21973e-20
2.73244e-19
2.97559e-19
3.63405e-19
4.5679e-19
5.5832e-19
6.46617e-19
7.0053e-19
7.0388e-19
6.58773e-19
6.15804e-19
1.98358e-18
2.20122e-18
2.74675e-18
3.51065e-18
4.34415e-18
5.07683e-18
5.52967e-18
5.54775e-18
5.10043e-18
4.60145e-18
1.41855e-17
1.60797e-17
2.05306e-17
2.67168e-17
3.35336e-17
3.96535e-17
4.35834e-17
4.38676e-17
3.97646e-17
3.44148e-17
9.96426e-17
1.15671e-16
1.51318e-16
2.0075e-16
2.56138e-16
3.07524e-16
3.42772e-16
3.48542e-16
3.13977e-16
2.59379e-16
6.85006e-16
8.16504e-16
1.09548e-15
1.48329e-15
1.92821e-15
2.3599e-15
2.68451e-15
2.78486e-15
2.53264e-15
2.00102e-15
4.58985e-15
5.63081e-15
7.75099e-15
1.07172e-14
1.42219e-14
1.78165e-14
2.0838e-14
2.2334e-14
2.10166e-14
1.623e-14
2.98369e-14
3.77363e-14
5.32622e-14
7.51786e-14
1.01946e-13
1.31171e-13
1.58996e-13
1.7871e-13
1.82657e-13
1.4943e-13
4.74806e-40
4.41585e-40
4.33187e-40
4.57668e-40
5.05172e-40
5.69822e-40
6.49554e-40
7.46739e-40
8.70685e-40
9.96324e-40
4.79912e-39
4.43685e-39
4.35991e-39
4.60862e-39
5.09055e-39
5.74215e-39
6.54257e-39
7.52305e-39
8.76486e-39
1.00985e-38
4.00792e-38
3.70218e-38
3.64219e-38
3.85059e-38
4.25589e-38
4.79965e-38
5.465e-38
6.287e-38
7.32449e-38
8.45621e-38
3.31223e-37
3.07129e-37
3.03089e-37
3.21016e-37
3.55165e-37
4.00448e-37
4.55452e-37
5.23333e-37
6.08594e-37
7.00907e-37
2.72328e-36
2.53941e-36
2.51883e-36
2.6774e-36
2.96729e-36
3.3449e-36
3.79756e-36
4.35093e-36
5.04112e-36
5.7811e-36
2.23064e-35
2.09283e-35
2.08935e-35
2.23183e-35
2.4795e-35
2.79463e-35
3.16515e-35
3.61125e-35
4.16307e-35
4.75155e-35
1.82124e-34
1.71909e-34
1.72883e-34
1.85765e-34
2.07012e-34
2.3331e-34
2.63479e-34
2.9908e-34
3.42751e-34
3.89358e-34
1.48214e-33
1.40734e-33
1.42651e-33
1.54294e-33
1.72548e-33
1.94482e-33
2.18931e-33
2.47089e-33
2.81325e-33
3.18067e-33
1.20204e-32
1.14819e-32
1.17355e-32
1.27836e-32
1.43515e-32
1.61793e-32
1.81527e-32
2.03611e-32
2.30193e-32
2.5898e-32
9.71365e-32
9.33491e-32
9.62448e-32
1.05628e-31
1.19076e-31
1.34291e-31
1.50161e-31
1.67337e-31
1.87761e-31
2.10145e-31
7.82014e-31
7.56226e-31
7.86793e-31
8.70271e-31
9.85405e-31
1.11189e-30
1.2391e-30
1.37153e-30
1.52658e-30
1.69907e-30
6.27108e-30
6.10366e-30
6.4108e-30
7.1489e-30
8.13232e-30
9.18263e-30
1.01992e-29
1.12104e-29
1.2371e-29
1.36859e-29
5.00839e-29
4.90772e-29
5.20594e-29
5.85462e-29
6.69254e-29
7.56364e-29
8.3737e-29
9.13771e-29
9.99151e-29
1.09807e-28
3.983e-28
3.93069e-28
4.21295e-28
4.77972e-28
5.49183e-28
6.21348e-28
6.85741e-28
7.4278e-28
8.04225e-28
8.77447e-28
3.15359e-27
3.13547e-27
3.39732e-27
3.88973e-27
4.49331e-27
5.09054e-27
5.60138e-27
6.02144e-27
6.451e-27
6.98179e-27
2.48541e-26
2.4907e-26
2.72965e-26
3.15511e-26
3.66532e-26
4.15915e-26
4.56382e-26
4.86831e-26
5.15668e-26
5.53089e-26
1.94933e-25
1.96994e-25
2.18498e-25
2.55062e-25
2.98071e-25
3.38876e-25
3.70915e-25
3.92582e-25
4.10781e-25
4.36141e-25
1.52108e-24
1.55099e-24
1.74218e-24
2.05476e-24
2.41631e-24
2.75334e-24
3.00713e-24
3.15797e-24
3.26117e-24
3.42282e-24
1.18045e-23
1.21527e-23
1.38343e-23
1.64928e-23
1.95239e-23
2.23071e-23
2.43214e-23
2.53449e-23
2.58055e-23
2.67295e-23
9.1072e-23
9.47335e-23
1.09378e-22
1.31874e-22
1.57218e-22
1.80208e-22
1.96255e-22
2.02996e-22
2.03574e-22
2.07671e-22
6.98114e-22
7.34368e-22
8.60725e-22
1.0501e-21
1.26147e-21
1.45153e-21
1.58018e-21
1.62311e-21
1.60165e-21
1.60505e-21
5.31305e-21
5.65794e-21
6.73824e-21
8.32396e-21
1.00825e-20
1.16561e-20
1.26972e-20
1.29624e-20
1.25751e-20
1.23404e-20
4.01042e-20
4.32907e-20
5.24413e-20
6.56441e-20
8.02394e-20
9.32998e-20
1.01835e-19
1.03462e-19
9.86221e-20
9.44015e-20
2.99825e-19
3.28588e-19
4.05332e-19
5.14564e-19
6.3539e-19
7.44151e-19
8.15345e-19
8.2606e-19
7.73781e-19
7.18975e-19
2.21622e-18
2.47054e-18
3.107e-18
4.00394e-18
5.0011e-18
5.9105e-18
6.51721e-18
6.60464e-18
6.08793e-18
5.45987e-18
1.61596e-17
1.83633e-17
2.35718e-17
3.08665e-17
3.90591e-17
4.66942e-17
5.19925e-17
5.29464e-17
4.82059e-17
4.14762e-17
1.15895e-16
1.3458e-16
1.76497e-16
2.35067e-16
3.01889e-16
3.66147e-16
4.13552e-16
4.26012e-16
3.86183e-16
3.17262e-16
8.14694e-16
9.6909e-16
1.29927e-15
1.7612e-15
2.29964e-15
2.83929e-15
3.27157e-15
3.44093e-15
3.15462e-15
2.4812e-15
5.59025e-15
6.82611e-15
9.3552e-15
1.29088e-14
1.71609e-14
2.16429e-14
2.56068e-14
2.78191e-14
2.64369e-14
2.0373e-14
3.72649e-14
4.67744e-14
6.54592e-14
9.18782e-14
1.24424e-13
1.60723e-13
1.96614e-13
2.23724e-13
2.31168e-13
1.89398e-13
4.53024e-40
4.23565e-40
4.18662e-40
4.45206e-40
4.9324e-40
5.56593e-40
6.32872e-40
7.24297e-40
8.40392e-40
9.58614e-40
4.58002e-39
4.25729e-39
4.21663e-39
4.48788e-39
4.97659e-39
5.61647e-39
6.38306e-39
7.30515e-39
8.46759e-39
9.72494e-39
3.82568e-38
3.55277e-38
3.52493e-38
3.75415e-38
4.16668e-38
4.7021e-38
5.34008e-38
6.1127e-38
7.08217e-38
8.15172e-38
3.16219e-37
2.94893e-37
2.9364e-37
3.13447e-37
3.4834e-37
3.93069e-37
4.45905e-37
5.09702e-37
5.89276e-37
6.7637e-37
2.60179e-36
2.44094e-36
2.44438e-36
2.61991e-36
2.91746e-36
3.29193e-36
3.72779e-36
4.2478e-36
4.89087e-36
5.58789e-36
2.13416e-35
2.01525e-35
2.03233e-35
2.19002e-35
2.44545e-35
2.75947e-35
3.11739e-35
3.5367e-35
4.04999e-35
4.60372e-35
1.74622e-34
1.65949e-34
1.68662e-34
1.82892e-34
2.04906e-34
2.31255e-34
2.60518e-34
2.94021e-34
3.34599e-34
3.78439e-34
1.42516e-33
1.3628e-33
1.39648e-33
1.5247e-33
1.71464e-33
1.93569e-33
2.17406e-33
2.43965e-33
2.75776e-33
3.10358e-33
1.15986e-32
1.11592e-32
1.15325e-32
1.26825e-32
1.43201e-32
1.61734e-32
1.81091e-32
2.01993e-32
2.26719e-32
2.5386e-32
9.41038e-32
9.10971e-32
9.49697e-32
1.05225e-31
1.1932e-31
1.34844e-31
1.50519e-31
1.66851e-31
1.85888e-31
2.07049e-31
7.60956e-31
7.4126e-31
7.79744e-31
8.70655e-31
9.91715e-31
1.1216e-30
1.24822e-30
1.37483e-30
1.51976e-30
1.68342e-30
6.13148e-30
6.01111e-30
6.3821e-30
7.18339e-30
8.22064e-30
9.30612e-30
1.03265e-29
1.12997e-29
1.23881e-29
1.36409e-29
4.92195e-29
4.85719e-29
5.20683e-29
5.90922e-29
6.7957e-29
7.70187e-29
8.52238e-29
9.26332e-29
1.00667e-28
1.10136e-28
3.9354e-28
3.91022e-28
4.2339e-28
4.84635e-28
5.60202e-28
6.35769e-28
7.0163e-28
7.57426e-28
8.15423e-28
8.85847e-28
3.1335e-27
3.13576e-27
3.43105e-27
3.96234e-27
4.60481e-27
5.23436e-27
5.76227e-27
6.17724e-27
6.58368e-27
7.09651e-27
2.48406e-26
2.50466e-26
2.77073e-26
3.2293e-26
3.77404e-26
4.29807e-26
4.72088e-26
5.02514e-26
5.29817e-26
5.66108e-26
1.96011e-25
1.99228e-25
2.2294e-25
2.62326e-25
3.08389e-25
3.51977e-25
3.85838e-25
4.07785e-25
4.24964e-25
4.49608e-25
1.53912e-24
1.57783e-24
1.78707e-24
2.12373e-24
2.51218e-24
2.87454e-24
3.146e-24
3.30136e-24
3.39753e-24
3.55434e-24
1.20231e-23
1.24384e-23
1.42683e-23
1.71324e-23
2.03992e-23
2.34108e-23
2.5592e-23
2.66689e-23
2.70773e-23
2.7963e-23
9.33999e-23
9.75718e-23
1.13441e-22
1.37691e-22
1.65092e-22
1.90122e-22
2.07718e-22
2.15014e-22
2.15161e-22
2.18887e-22
7.21155e-22
7.61335e-22
8.97853e-22
1.10217e-21
1.33138e-21
1.53952e-21
1.68232e-21
1.73068e-21
1.70523e-21
1.7045e-21
5.53029e-21
5.90584e-21
7.07091e-21
8.78359e-21
1.0696e-20
1.24287e-20
1.35976e-20
1.39138e-20
1.34868e-20
1.32032e-20
4.20787e-20
4.55102e-20
5.5373e-20
6.96507e-20
8.55643e-20
1.00013e-19
1.09694e-19
1.11792e-19
1.06544e-19
1.01746e-19
3.17242e-19
3.4805e-19
4.3078e-19
5.49074e-19
6.81116e-19
8.01901e-19
8.83309e-19
8.98359e-19
8.41898e-19
7.80426e-19
2.36602e-18
2.63795e-18
3.32468e-18
4.29758e-18
5.38936e-18
6.40211e-18
7.09948e-18
7.22738e-18
6.66917e-18
5.9664e-18
1.74172e-17
1.97751e-17
2.54058e-17
3.33321e-17
4.23151e-17
5.08308e-17
5.69313e-17
5.82729e-17
5.31443e-17
4.56044e-17
1.26188e-16
1.46252e-16
1.91691e-16
2.55449e-16
3.28791e-16
4.00473e-16
4.54956e-16
4.71256e-16
4.28149e-16
3.50751e-16
8.9669e-16
1.06345e-15
1.4226e-15
1.92649e-15
2.51777e-15
3.11912e-15
3.61351e-15
3.82206e-15
3.51355e-15
2.75569e-15
6.22384e-15
7.56879e-15
1.03311e-14
1.42162e-14
1.88867e-14
2.38709e-14
2.8373e-14
3.09893e-14
2.95386e-14
2.27053e-14
4.19921e-14
5.24318e-14
7.29319e-14
1.01887e-13
1.37637e-13
1.77904e-13
2.18354e-13
2.49564e-13
2.58627e-13
2.11352e-13
4.46944e-40
4.17961e-40
4.1315e-40
4.39288e-40
4.86557e-40
5.48905e-40
6.23952e-40
7.13781e-40
8.27818e-40
9.43997e-40
4.51884e-39
4.20159e-39
4.16158e-39
4.42843e-39
4.90944e-39
5.5393e-39
6.29366e-39
7.20035e-39
8.34261e-39
9.5774e-39
3.77519e-38
3.50764e-38
3.47973e-38
3.70508e-38
4.11122e-38
4.63843e-38
5.26648e-38
6.02688e-38
6.98087e-38
8.02969e-38
3.12179e-37
2.91199e-37
2.8993e-37
3.09429e-37
3.43803e-37
3.87865e-37
4.39891e-37
5.0268e-37
5.80986e-37
6.66559e-37
2.5695e-36
2.41083e-36
2.41398e-36
2.58691e-36
2.88019e-36
3.24924e-36
3.67855e-36
4.19043e-36
4.82331e-36
5.50905e-36
2.10834e-35
1.99085e-35
2.00745e-35
2.16288e-35
2.41479e-35
2.72438e-35
3.07703e-35
3.4899e-35
3.99519e-35
4.54032e-35
1.72563e-34
1.63977e-34
1.66628e-34
1.80662e-34
2.02382e-34
2.28369e-34
2.57212e-34
2.90208e-34
3.30168e-34
3.73349e-34
1.40879e-33
1.34692e-33
1.3799e-33
1.50641e-33
1.69388e-33
1.91199e-33
2.14702e-33
2.40867e-33
2.72202e-33
3.06282e-33
1.1469e-32
1.10315e-32
1.13978e-32
1.25329e-32
1.41499e-32
1.59792e-32
1.78885e-32
1.99483e-32
2.23847e-32
2.50606e-32
9.30798e-32
9.00704e-32
9.38801e-32
1.04006e-31
1.17929e-31
1.33258e-31
1.48725e-31
1.64824e-31
1.83588e-31
2.04461e-31
7.52838e-31
7.33062e-31
7.70971e-31
8.60759e-31
9.8038e-31
1.10869e-30
1.23367e-30
1.35853e-30
1.50142e-30
1.66291e-30
6.06732e-30
5.94623e-30
6.31171e-30
7.10334e-30
8.12858e-30
9.20128e-30
1.02089e-29
1.1169e-29
1.22424e-29
1.3479e-29
4.87172e-29
4.80601e-29
5.15051e-29
5.84466e-29
6.72115e-29
7.61699e-29
8.42764e-29
9.15886e-29
9.95134e-29
1.08864e-28
3.89642e-28
3.86998e-28
4.18898e-28
4.79443e-28
5.54182e-28
6.28917e-28
6.94017e-28
7.49103e-28
8.06332e-28
8.75894e-28
3.10347e-27
3.10419e-27
3.39532e-27
3.92072e-27
4.55633e-27
5.17919e-27
5.70125e-27
6.11113e-27
6.51227e-27
7.01898e-27
2.46096e-26
2.47983e-26
2.74242e-26
3.19603e-26
3.73511e-26
4.25376e-26
4.67209e-26
4.97276e-26
5.24229e-26
5.60097e-26
1.9422e-25
1.9728e-25
2.20708e-25
2.59676e-25
3.05272e-25
3.48426e-25
3.81947e-25
4.03648e-25
4.20607e-25
4.44971e-25
1.52517e-24
1.5627e-24
1.76955e-24
2.1027e-24
2.48729e-24
2.84616e-24
3.11503e-24
3.26876e-24
3.36369e-24
3.51875e-24
1.19152e-23
1.23217e-23
1.4131e-23
1.69659e-23
2.02009e-23
2.31844e-23
2.53459e-23
2.64125e-23
2.68154e-23
2.76912e-23
9.25728e-23
9.66735e-23
1.12371e-22
1.36377e-22
1.63516e-22
1.88321e-22
2.05766e-22
2.13002e-22
2.1314e-22
2.16824e-22
7.14852e-22
7.54448e-22
8.89539e-22
1.09183e-21
1.3189e-21
1.52521e-21
1.66687e-21
1.71491e-21
1.68969e-21
1.68893e-21
5.48245e-21
5.85341e-21
7.00666e-21
8.7026e-21
1.05973e-20
1.23152e-20
1.34754e-20
1.37903e-20
1.33676e-20
1.30865e-20
4.17191e-20
4.51153e-20
5.48786e-20
6.90186e-20
8.4787e-20
9.91148e-20
1.08728e-19
1.10826e-19
1.05632e-19
1.00878e-19
3.14585e-19
3.45088e-19
4.26997e-19
5.44165e-19
6.75015e-19
7.9481e-19
8.7568e-19
8.90794e-19
8.34938e-19
7.74028e-19
2.34663e-18
2.61586e-18
3.29596e-18
4.25969e-18
5.3417e-18
6.34628e-18
7.03923e-18
7.16804e-18
6.61607e-18
5.91979e-18
1.72776e-17
1.96132e-17
2.51897e-17
3.30419e-17
4.19451e-17
5.03927e-17
5.64555e-17
5.78057e-17
5.27389e-17
4.52699e-17
1.25205e-16
1.4508e-16
1.90084e-16
2.53251e-16
3.25944e-16
3.97053e-16
4.51199e-16
4.67558e-16
4.25038e-16
3.48388e-16
8.89927e-16
1.05511e-15
1.41085e-15
1.9101e-15
2.49616e-15
3.09267e-15
3.58388e-15
3.79251e-15
3.48961e-15
2.73967e-15
6.17852e-15
7.51069e-15
1.0247e-14
1.40968e-14
1.87261e-14
2.36698e-14
2.81422e-14
3.07556e-14
2.93522e-14
2.2591e-14
4.16963e-14
5.20377e-14
7.23493e-14
1.01044e-13
1.36481e-13
1.76416e-13
2.1658e-13
2.47641e-13
2.57114e-13
2.10904e-13
4.56101e-40
4.24603e-40
4.16429e-40
4.39566e-40
4.84767e-40
5.46357e-40
6.22315e-40
7.14849e-40
8.32707e-40
9.51743e-40
4.61189e-39
4.26794e-39
4.19281e-39
4.42815e-39
4.88714e-39
5.50834e-39
6.27132e-39
7.20538e-39
8.38684e-39
9.65086e-39
3.85435e-38
3.56322e-38
3.50451e-38
3.70214e-38
4.08867e-38
4.60765e-38
5.24237e-38
6.02596e-38
7.01371e-38
8.08778e-38
3.18804e-37
2.95762e-37
2.91789e-37
3.0884e-37
3.41456e-37
3.84727e-37
4.37241e-37
5.01983e-37
5.83208e-37
6.7099e-37
2.62339e-36
2.44686e-36
2.42623e-36
2.57741e-36
2.85473e-36
3.21598e-36
3.6485e-36
4.1766e-36
4.83465e-36
5.53949e-36
2.15061e-35
2.01775e-35
2.01357e-35
2.1497e-35
2.387e-35
2.68882e-35
3.04316e-35
3.46914e-35
3.99574e-35
4.55719e-35
1.75732e-34
1.65839e-34
1.66698e-34
1.79029e-34
1.99414e-34
2.24631e-34
2.53506e-34
2.87524e-34
3.29235e-34
3.73774e-34
1.43123e-33
1.35846e-33
1.37621e-33
1.48784e-33
1.6632e-33
1.87376e-33
2.10799e-33
2.37723e-33
2.70451e-33
3.05615e-33
1.16163e-32
1.10899e-32
1.13282e-32
1.23345e-32
1.38424e-32
1.5599e-32
1.74914e-32
1.96047e-32
2.2148e-32
2.49068e-32
9.39405e-32
9.02203e-32
9.29614e-32
1.01981e-31
1.1493e-31
1.29567e-31
1.44803e-31
1.61253e-31
1.8081e-31
2.02288e-31
7.56831e-31
7.31371e-31
7.60439e-31
8.40772e-31
9.51744e-31
1.07358e-30
1.19584e-30
1.32278e-30
1.47137e-30
1.63707e-30
6.07356e-30
5.9071e-30
6.20011e-30
6.91117e-30
7.86002e-30
8.87285e-30
9.85107e-30
1.08214e-29
1.19344e-29
1.31987e-29
4.85422e-29
4.75288e-29
5.03809e-29
5.66369e-29
6.47296e-29
7.31395e-29
8.09446e-29
8.82832e-29
9.64767e-29
1.05998e-28
3.86327e-28
3.80919e-28
4.0797e-28
4.62687e-28
5.31529e-28
6.0128e-28
6.63408e-28
7.18254e-28
7.77258e-28
8.47795e-28
3.06108e-27
3.04052e-27
3.29194e-27
3.76776e-27
4.3518e-27
4.92972e-27
5.42328e-27
5.82763e-27
6.24033e-27
6.75208e-27
2.41423e-26
2.41684e-26
2.64666e-26
3.05812e-26
3.55222e-26
4.03062e-26
4.42218e-26
4.71564e-26
4.99276e-26
5.35381e-26
1.89478e-25
1.91277e-25
2.11989e-25
2.47376e-25
2.8906e-25
3.28632e-25
3.59679e-25
3.80591e-25
3.98078e-25
4.22559e-25
1.47945e-24
1.50695e-24
1.69132e-24
1.99406e-24
2.34474e-24
2.67191e-24
2.91821e-24
3.06406e-24
3.1631e-24
3.31919e-24
1.14888e-23
1.1815e-23
1.34383e-23
1.6015e-23
1.89571e-23
2.16614e-23
2.36193e-23
2.46112e-23
2.50511e-23
2.59427e-23
8.86938e-23
9.21539e-23
1.06307e-22
1.28126e-22
1.52741e-22
1.751e-22
1.90724e-22
1.97275e-22
1.97791e-22
2.0173e-22
6.80282e-22
7.14745e-22
8.37021e-22
1.02079e-21
1.22621e-21
1.41121e-21
1.53667e-21
1.57858e-21
1.55744e-21
1.56043e-21
5.17978e-21
5.50974e-21
6.55625e-21
8.09579e-21
9.80566e-21
1.13386e-20
1.23554e-20
1.26161e-20
1.22379e-20
1.2007e-20
3.91159e-20
4.21806e-20
5.10515e-20
6.38757e-20
7.80733e-20
9.08047e-20
9.9153e-20
1.0077e-19
9.60543e-20
9.19235e-20
2.92588e-19
3.20336e-19
3.94786e-19
5.00933e-19
6.18514e-19
7.24596e-19
7.94319e-19
8.05125e-19
7.54229e-19
7.00651e-19
2.16395e-18
2.40977e-18
3.02761e-18
3.89956e-18
4.87027e-18
5.75768e-18
6.35241e-18
6.4415e-18
5.93872e-18
5.32484e-18
1.57878e-17
1.79212e-17
2.29801e-17
3.00741e-17
3.80515e-17
4.55041e-17
5.07005e-17
5.16695e-17
4.70601e-17
4.04816e-17
1.133e-16
1.31409e-16
1.72143e-16
2.29118e-16
2.94198e-16
3.56928e-16
4.03422e-16
4.15954e-16
3.77272e-16
3.09885e-16
7.96968e-16
9.46766e-16
1.26778e-15
1.71726e-15
2.24172e-15
2.76853e-15
3.19228e-15
3.36103e-15
3.08374e-15
2.42526e-15
5.47217e-15
6.67251e-15
9.13255e-15
1.25913e-14
1.67338e-14
2.11086e-14
2.49914e-14
2.71807e-14
2.58543e-14
1.99258e-14
3.65013e-14
4.57476e-14
6.39323e-14
8.96556e-14
1.21371e-13
1.568e-13
1.9193e-13
2.18617e-13
2.26123e-13
1.85321e-13
4.86177e-40
4.48185e-40
4.33066e-40
4.51222e-40
4.93968e-40
5.55982e-40
6.35909e-40
7.36625e-40
8.66341e-40
9.96366e-40
4.9239e-39
4.51006e-39
4.36138e-39
4.54389e-39
4.9763e-39
5.6005e-39
6.4032e-39
7.42165e-39
8.7274e-39
1.01077e-38
4.12631e-38
3.77269e-38
3.64811e-38
3.79856e-38
4.16089e-38
4.6811e-38
5.34889e-38
6.20553e-38
7.30338e-38
8.48066e-38
3.41968e-37
3.13365e-37
3.03517e-37
3.16325e-37
3.46683e-37
3.89859e-37
4.45028e-37
5.15985e-37
6.06828e-37
7.03786e-37
2.81528e-36
2.5902e-36
2.51776e-36
2.63084e-36
2.88677e-36
3.24488e-36
3.69785e-36
4.27773e-36
5.01815e-36
5.80262e-36
2.30523e-35
2.13088e-35
2.0818e-35
2.18402e-35
2.4011e-35
2.69787e-35
3.0672e-35
3.53523e-35
4.1306e-35
4.7592e-35
1.87846e-34
1.74481e-34
1.7152e-34
1.80875e-34
1.99368e-34
2.23934e-34
2.53838e-34
2.9117e-34
3.38467e-34
3.88502e-34
1.52345e-33
1.42222e-33
1.40804e-33
1.49391e-33
1.65183e-33
1.8549e-33
2.09548e-33
2.39003e-33
2.76146e-33
3.15671e-33
1.22978e-32
1.15425e-32
1.15174e-32
1.23032e-32
1.36526e-32
1.53288e-32
1.72533e-32
1.95536e-32
2.24367e-32
2.55317e-32
9.88171e-32
9.3279e-32
9.38721e-32
1.0102e-31
1.12542e-31
1.26357e-31
1.41673e-31
1.59454e-31
1.81565e-31
2.05567e-31
7.90391e-31
7.5066e-31
7.62345e-31
8.26878e-31
9.25125e-31
1.03881e-30
1.16011e-30
1.29612e-30
1.46347e-30
1.64763e-30
6.29273e-30
6.01546e-30
6.16848e-30
6.74653e-30
7.5825e-30
8.51661e-30
9.47296e-30
1.05016e-29
1.17494e-29
1.31458e-29
4.9865e-29
4.79983e-29
4.97259e-29
5.48636e-29
6.19594e-29
6.96231e-29
7.71311e-29
8.48153e-29
9.39575e-29
1.04401e-28
3.9325e-28
3.81305e-28
3.99331e-28
4.44646e-28
5.04714e-28
5.67501e-28
6.2621e-28
6.82816e-28
7.48369e-28
8.25199e-28
3.08595e-27
3.01553e-27
3.19446e-27
3.59116e-27
4.09819e-27
4.61193e-27
5.06936e-27
5.47971e-27
5.93692e-27
6.49081e-27
2.40911e-26
2.37382e-26
2.54529e-26
2.89008e-26
3.31677e-26
3.73663e-26
4.09197e-26
4.38385e-26
4.69098e-26
5.07993e-26
1.87048e-25
1.85972e-25
2.01973e-25
2.31734e-25
2.67534e-25
3.01816e-25
3.29356e-25
3.49651e-25
3.69172e-25
3.95516e-25
1.44396e-24
1.44964e-24
1.59583e-24
1.85104e-24
2.15049e-24
2.43024e-24
2.64346e-24
2.78064e-24
2.89391e-24
3.06302e-24
1.10791e-23
1.12393e-23
1.25519e-23
1.47269e-23
1.72244e-23
1.95067e-23
2.11584e-23
2.2053e-23
2.25989e-23
2.35912e-23
8.4448e-23
8.66411e-23
9.82539e-23
1.16675e-22
1.37446e-22
1.56074e-22
1.68904e-22
1.7447e-22
1.7585e-22
1.80681e-22
6.39031e-22
6.63768e-22
7.65138e-22
9.20194e-22
1.09249e-21
1.24471e-21
1.34495e-21
1.37743e-21
1.36406e-21
1.37601e-21
4.79659e-21
5.05056e-21
5.92437e-21
7.22153e-21
8.64722e-21
9.8938e-21
1.0685e-20
1.08581e-20
1.0555e-20
1.04212e-20
3.56737e-20
3.81332e-20
4.55741e-20
5.63572e-20
6.81282e-20
7.83723e-20
8.47126e-20
8.55277e-20
8.15621e-20
7.85162e-20
2.62507e-19
2.85357e-19
3.47938e-19
4.36954e-19
5.33926e-19
6.18515e-19
6.70428e-19
6.73869e-19
6.30476e-19
5.89003e-19
1.90763e-18
2.11307e-18
2.63234e-18
3.36122e-18
4.158e-18
4.86069e-18
5.29764e-18
5.31789e-18
4.88807e-18
4.40706e-18
1.36571e-17
1.54514e-17
1.96938e-17
2.56016e-17
3.2123e-17
3.79978e-17
4.17956e-17
4.21007e-17
3.81616e-17
3.30064e-17
9.60367e-17
1.11263e-16
1.45282e-16
1.92527e-16
2.4555e-16
2.9491e-16
3.29e-16
3.34881e-16
3.01733e-16
2.49126e-16
6.60953e-16
7.86188e-16
1.05273e-15
1.42365e-15
1.84979e-15
2.26465e-15
2.57856e-15
2.67841e-15
2.43716e-15
1.9249e-15
4.43371e-15
5.42732e-15
7.45525e-15
1.02943e-14
1.36528e-14
1.71082e-14
2.00286e-14
2.14998e-14
2.02498e-14
1.56355e-14
2.88551e-14
3.64113e-14
5.12782e-14
7.22712e-14
9.79356e-14
1.26038e-13
1.52905e-13
1.72142e-13
1.76198e-13
1.44161e-13
5.47825e-40
4.9775e-40
4.7226e-40
4.84954e-40
5.26736e-40
5.92142e-40
6.80629e-40
7.96659e-40
9.4963e-40
1.1047e-39
5.56478e-39
5.01474e-39
4.75366e-39
4.87669e-39
5.29676e-39
5.95292e-39
6.8406e-39
8.01653e-39
9.56834e-39
1.12264e-38
4.6872e-38
4.20652e-38
3.9779e-38
4.07347e-38
4.42276e-38
4.96769e-38
5.70586e-38
6.69876e-38
8.01801e-38
9.45149e-38
3.89886e-37
3.49851e-37
3.30565e-37
3.38315e-37
3.67261e-37
4.12222e-37
4.73095e-37
5.55658e-37
6.65966e-37
7.8574e-37
3.21361e-36
2.88939e-36
2.73399e-36
2.801e-36
3.04182e-36
3.41166e-36
3.90979e-36
4.58657e-36