/*--------------------------------*- C++ -*----------------------------------*\
| =========                 |                                                 |
| \\      /  F ield         | OpenFOAM: The Open Source CFD Toolbox           |
|  \\    /   O peration     | Version:  2112                                  |
|   \\  /    A nd           | Website:  www.openfoam.com                      |
|    \\/     M anipulation  |                                                 |
\*---------------------------------------------------------------------------*/
FoamFile
{
    version     2.0;
    format      ascii;
    arch        "LSB;label=32;scalar=64";
    class       volScalarField;
    location    "1";
    object      p;
}
// * * * * * * * * * * * * * * * * * * * * * * * * * * * * * * * * * * * * * //

dimensions      [1 -1 -2 0 0 0 0];

internalField   nonuniform List<scalar> 
5250
(
1
1.00001
1.00003
1.00009
1.00018
1.00052
1.00107
1.00306
1.00616
1.01832
1.03515
1.11781
1.21957
1.81723
2.97436
7.25482
12.5529
11.5848
11.2395
11.3735
11.6807
11.8987
12.0269
12.1189
12.1777
1
1.00001
1.00003
1.00009
1.00018
1.00052
1.00105
1.00302
1.00608
1.01805
1.03478
1.11562
1.21659
1.80022
2.93347
7.12061
12.5523
11.5894
11.2366
11.3692
11.6737
11.8894
12.0169
12.1095
12.1693
1
1.00001
1.00003
1.00008
1.00018
1.0005
1.00103
1.00294
1.00593
1.01751
1.0341
1.11114
1.21088
1.76508
2.84804
6.828
12.5396
11.5919
11.2201
11.3453
11.6376
11.8462
11.9692
12.0597
12.1189
1
1.00001
1.00003
1.00008
1.00017
1.00048
1.00099
1.00283
1.00572
1.01677
1.033
1.10526
1.20242
1.71814
2.72947
6.40759
12.4853
11.5856
11.1878
11.2985
11.5684
11.767
11.8829
11.9694
12.0285
1
1.00001
1.00003
1.00008
1.00016
1.00046
1.00094
1.00269
1.00545
1.01593
1.03142
1.09932
1.19159
1.66911
2.59716
5.9227
12.3327
11.5513
11.1386
11.2292
11.4662
11.6543
11.762
11.843
11.9011
1
1.00001
1.00002
1.00007
1.00015
1.00043
1.00089
1.00253
1.00513
1.01497
1.0296
1.09304
1.17991
1.62231
2.47926
5.55894
11.9582
11.4511
11.0666
11.1328
11.3245
11.501
11.5978
11.6706
11.7284
1
1.00001
1.00002
1.00007
1.00014
1.0004
1.00081
1.00233
1.00472
1.01379
1.0273
1.0862
1.16466
1.57663
2.35769
5.18929
11.446
11.2768
10.9685
11.0048
11.1415
11.3019
11.3816
11.4376
11.4835
1
1.00001
1.00002
1.00006
1.00012
1.00035
1.00072
1.00206
1.00416
1.0124
1.02349
1.07961
1.14272
1.52831
2.21568
4.80653
10.799
11.0488
10.8832
10.8531
10.9231
11.0542
11.1031
11.1249
11.1364
1
1.00001
1.00002
1.00005
1.0001
1.0003
1.00061
1.00178
1.00353
1.01096
1.0198
1.07192
1.12241
1.47769
2.05345
4.40563
9.9577
10.8994
10.7562
10.6477
10.6801
10.7507
10.7435
10.6953
10.5934
1
1.00001
1.00001
1.00004
1.00009
1.00025
1.00051
1.0015
1.0029
1.00939
1.01625
1.06217
1.10239
1.41906
1.88855
3.95208
8.92239
10.7915
10.6319
10.4186
10.4059
10.3905
10.3039
10.0909
9.68079
1
1
1.00001
1.00003
1.00009
1.00018
1.00052
1.00104
1.0032
1.00584
1.02068
1.03478
1.1357
1.2404
1.95328
3.26121
7.76929
10.7259
10.529
10.198
10.1078
9.99749
9.73447
9.12326
7.5459
1
1
1.00001
1.00003
1.00006
1.00018
1.00037
1.00106
1.00208
1.00661
1.01155
1.04353
1.07163
1.28572
1.58656
2.94976
6.2976
10.5985
10.4153
10.0169
9.80832
9.60057
9.17879
8.34523
6.70218
1
1
1.00001
1.00003
1.00006
1.00016
1.00032
1.00092
1.00188
1.00545
1.01092
1.03336
1.06264
1.21573
1.43936
2.47023
4.80706
10.2304
10.1775
9.88766
9.52255
9.20761
8.69822
7.835
6.49792
1
1
1.00001
1.00002
1.00004
1.00013
1.00026
1.00075
1.00152
1.00439
1.00881
1.02677
1.05001
1.1752
1.32894
2.21503
3.94666
9.17646
9.85281
9.66093
9.25483
8.85454
8.32265
7.5246
6.45299
1
1
1.00001
1.00002
1.00004
1.0001
1.00021
1.00059
1.0012
1.00347
1.00683
1.02133
1.03822
1.14063
1.24832
1.97075
3.26199
7.59213
9.57107
9.42586
9.04732
8.56825
8.03553
7.32296
6.42886
1
1
1
1.00001
1.00003
1.00008
1.00017
1.00047
1.00096
1.00276
1.00559
1.0165
1.03213
1.10479
1.19708
1.70923
2.66519
5.91068
9.33432
9.24265
8.90974
8.35943
7.82078
7.17665
6.40383
1
1
1
1.00001
1.00002
1.00006
1.00013
1.00036
1.00074
1.0021
1.00427
1.01243
1.02482
1.0763
1.15088
1.49778
2.15741
4.34587
8.77589
8.99296
8.76184
8.23802
7.6708
7.06897
6.3859
1
1
1
1.00001
1.00002
1.00005
1.00009
1.00026
1.00053
1.00153
1.00307
1.00913
1.01738
1.05792
1.10316
1.37804
1.81482
3.55673
7.49155
8.68043
8.53573
8.13909
7.55913
6.98728
6.3771
1
1
1
1.00001
1.00001
1.00003
1.00007
1.00019
1.00039
1.00111
1.00225
1.00661
1.01264
1.04184
1.0728
1.27372
1.55369
2.81331
5.64451
8.35559
8.31462
8.06194
7.52115
6.93944
6.36721
1
1
1
1
1.00001
1.00002
1.00006
1.00012
1.00034
1.00068
1.00196
1.00398
1.01161
1.02317
1.07061
1.1428
1.45008
2.05173
3.91884
7.6614
8.11534
7.9489
7.51688
6.92796
6.36831
1
1
1
1
1.00001
1.00001
1.00004
1.00008
1.00024
1.00048
1.00137
1.00279
1.00805
1.01605
1.04905
1.09357
1.3121
1.69189
3.06486
6.19513
7.84239
7.77033
7.49317
6.93804
6.37651
1
1
1
1
1
1.00001
1.00002
1.00007
1.00013
1.00038
1.00077
1.00222
1.00446
1.01313
1.02581
1.08012
1.16035
1.51219
2.19901
4.2884
7.34233
7.5658
7.41124
6.99028
6.40383
1
1
1
1
1
1.00001
1.00002
1.00004
1.0001
1.00021
1.00059
1.0012
1.00346
1.00668
1.02128
1.03745
1.13599
1.24363
1.89466
3.00767
6.24245
7.34624
7.2681
6.99895
6.46477
1
1
1
1
1
1
1.00001
1.00003
1.00006
1.00016
1.00033
1.00093
1.00188
1.0055
1.01048
1.03428
1.05967
1.2185
1.42912
2.37821
4.33848
6.8701
7.09285
6.95925
6.60009
1
1
1
1
1
1
1.00001
1.00002
1.00004
1.00011
1.00022
1.0006
1.00123
1.0035
1.00696
1.02106
1.03872
1.13465
1.24438
1.8586
2.92364
5.84011
6.88199
6.84214
6.63455
1
1
1
1
1
1
1
1.00001
1.00002
1.00007
1.00014
1.00038
1.00078
1.00221
1.00447
1.01293
1.02561
1.07879
1.15485
1.49876
2.12769
3.99985
6.39603
6.69523
6.59242
1
1
1
1
1
1
1
1.00001
1.00002
1.00003
1.0001
1.0002
1.00055
1.00112
1.00319
1.00627
1.01924
1.03471
1.12157
1.21919
1.76966
2.69938
5.30297
6.46319
6.45477
1
1
1
1
1
1
1
1
1.00001
1.00002
1.00006
1.00012
1.00035
1.00071
1.00198
1.00402
1.01144
1.02303
1.06714
1.1387
1.40829
1.92791
3.34366
5.90766
6.3199
1
1
1
1
1
1
1
1
1.00001
1.00001
1.00004
1.00007
1.0002
1.00042
1.00117
1.00237
1.00675
1.01343
1.04024
1.07741
1.24537
1.52734
2.4938
4.57168
5.99623
1
1
1
1
1
1
1
1
1
1.00001
1.00002
1.00005
1.0001
1.00028
1.00058
1.00163
1.00331
1.00938
1.0191
1.05455
1.11535
1.32808
1.74844
2.90779
5.21952
1
1
1
1
1
1
1
1
1
1
1.00001
1.00003
1.00006
1.00016
1.00032
1.00091
1.00184
1.00519
1.01038
1.03057
1.05882
1.18544
1.37754
2.11018
3.57968
1
1
1
1
1
1
1
1
1
1
1.00001
1.00002
1.00003
1.00009
1.00018
1.0005
1.00101
1.00284
1.00567
1.01678
1.03095
1.10446
1.18757
1.63609
2.35999
1
1
1
1
1
1
1
1
1
1
1
1.00001
1.00002
1.00004
1.00011
1.00023
1.00064
1.0013
1.00366
1.00738
1.02143
1.04139
1.12949
1.25715
1.7572
1
1
1
1
1
1
1
1
1
1
1
1
1.00001
1.00003
1.00005
1.00014
1.00029
1.00081
1.00164
1.00463
1.00922
1.02716
1.0518
1.16227
1.32839
1
1
1
1
1
1
1
1
1
1
1
1
1
1.00001
1.00003
1.00008
1.00016
1.00043
1.00088
1.00244
1.00492
1.01411
1.02686
1.0863
1.15649
1
1
1
1
1
1
1
1
1
1
1
1
1
1.00001
1.00001
1.00004
1.00008
1.00022
1.00046
1.00128
1.0026
1.0073
1.01486
1.04221
1.08837
1
1
1
1
1
1
1
1
1
1
1
1
1
1
1.00001
1.00002
1.00005
1.0001
1.00027
1.00055
1.00152
1.00307
1.00862
1.01753
1.04943
1
1
1
1
1
1
1
1
1
1
1
1
1
1
1
1.00001
1.00002
1.00005
1.00013
1.00027
1.00074
1.00152
1.00418
1.0085
1.02358
1
1
1
1
1
1
1
1
1
1
1
1
1
1
1
1
1.00001
1.00003
1.00005
1.00015
1.0003
1.00084
1.0017
1.00473
1.00956
1
1
1
1
1
1
1
1
1
1
1
1
1
1
1
1
1
1.00001
1.00003
1.00007
1.00015
1.0004
1.00082
1.00225
1.00455
1
1
1
1
1
1
1
1
1
1
1
1
1
1
1
1
1
1.00001
1.00001
1.00003
1.00007
1.00019
1.00038
1.00105
1.00214
1
1
1
1
1
1
1
1
1
1
1
1
1
1
1
1
1
1
1.00001
1.00001
1.00004
1.00007
1.0002
1.00041
1.00114
1
1
1
1
1
1
1
1
1
1
1
1
1
1
1
1
1
1
1
1.00001
1.00002
1.00003
1.00009
1.00019
1.00051
1
1
1
1
1
1
1
1
1
1
1
1
1
1
1
1
1
1
1
1
1.00001
1.00001
1.00004
1.00008
1.00023
1
1
1
1
1
1
1
1
1
1
1
1
1
1
1
1
1
1
1
1
1
1.00001
1.00001
1.00004
1.00008
1
1
1
1
1
1
1
1
1
1
1
1
1
1
1
1
1
1
1
1
1
1
1.00001
1.00002
1.00004
1
1
1
1
1
1
1
1
1
1
1
1
1
1
1
1
1
1
1
1
1
1
1
1.00001
1.00001
1
1
1
1
1
1
1
1
1
1
1
1
1
1
1
1
1
1
1
1
1
1
1
1
1.00001
1
1
1
1
1
1
1
1
1
1
1
1
1
1
1
1
1
1
1
1
1
1
1
1
1
1
1
1
1
1
1
1
1
1
1
1
1
1
1
1
1
1
1
1
1
1
1
1
1
1
3.10671
1.58676
1.06744
0.930601
0.947701
1.00573
1.13006
1.24854
1.29106
1.28851
1.27942
1.26053
1.24786
1.2435
1.24283
1.24142
1.23835
1.23209
1.22376
1.21469
1.20558
1.19668
1.18789
1.17901
1.16987
1.16038
1.15054
1.14037
1.12994
1.1193
1.10855
1.09773
1.08691
1.07613
1.06542
1.05482
1.04434
1.03402
1.02386
1.01389
1.00412
0.994572
0.985254
0.976181
0.967354
0.958792
0.950496
0.942446
0.93467
0.927162
0.919963
0.913043
0.906378
0.900017
0.893959
0.888209
0.882774
0.877635
0.872802
0.868289
0.8641
0.860227
0.856616
0.853267
0.850219
0.847488
0.84508
0.842951
0.84116
0.839638
0.838485
0.837675
0.837022
0.836707
0.836687
0.836729
0.836885
0.837271
0.838082
0.839146
0.840306
0.84153
0.842868
0.844575
0.846124
0.847687
0.849485
0.851485
0.853717
0.855524
0.857517
0.859891
0.861556
0.864984
0.866454
0.870287
0.871966
0.876875
0.88034
0.889241
3.78938
2.36753
1.74438
1.46994
1.33451
1.24686
1.19773
1.19919
1.20761
1.22675
1.2577
1.27187
1.27042
1.26581
1.25609
1.24488
1.23579
1.22834
1.22156
1.21462
1.20692
1.19844
1.18942
1.18002
1.17037
1.16051
1.15045
1.1402
1.12976
1.11915
1.10843
1.09765
1.08686
1.0761
1.0654
1.05481
1.04434
1.03403
1.02388
1.01392
1.00417
0.994637
0.985339
0.976287
0.967458
0.958916
0.950625
0.942562
0.934757
0.927262
0.920032
0.91308
0.906401
0.900019
0.893941
0.888164
0.882721
0.877572
0.872719
0.868105
0.8639
0.860017
0.856415
0.853134
0.850195
0.847557
0.845197
0.843111
0.841383
0.839757
0.83868
0.837788
0.837112
0.836792
0.836774
0.836816
0.836966
0.83734
0.83813
0.839201
0.84036
0.841598
0.84298
0.844536
0.846145
0.847723
0.849454
0.851508
0.853455
0.855447
0.85754
0.859865
0.862138
0.864748
0.86668
0.870179
0.872198
0.876638
0.879798
0.887436
4.61304
3.28505
2.44735
1.91202
1.56738
1.3471
1.2148
1.16368
1.16619
1.17682
1.20062
1.2314
1.25197
1.25211
1.25073
1.2466
1.23794
1.22802
1.21922
1.21108
1.203
1.1947
1.1861
1.17716
1.16789
1.15829
1.14838
1.13822
1.12785
1.11734
1.10674
1.09611
1.08548
1.07488
1.06432
1.05384
1.04347
1.03325
1.02317
1.01325
1.00356
0.994077
0.984811
0.975808
0.967031
0.958464
0.950171
0.942152
0.934373
0.926862
0.919626
0.912676
0.905994
0.899619
0.893552
0.88779
0.882354
0.877207
0.872374
0.867862
0.863644
0.859833
0.856273
0.852832
0.849699
0.846884
0.844566
0.842476
0.84066
0.839212
0.837955
0.83712
0.836558
0.836251
0.83624
0.836287
0.836445
0.836837
0.83765
0.83875
0.839922
0.841231
0.842625
0.844198
0.845814
0.847527
0.849331
0.851308
0.853408
0.855482
0.857528
0.859808
0.861952
0.864724
0.866637
0.870186
0.872193
0.876499
0.879389
0.886021
5.05636
3.85396
2.96415
2.34376
1.9249
1.6394
1.45322
1.33302
1.25565
1.21722
1.21148
1.21401
1.22123
1.23585
1.2457
1.24561
1.24415
1.23988
1.23084
1.21929
1.2083
1.19801
1.18831
1.17889
1.16938
1.15962
1.14954
1.13922
1.12872
1.11812
1.10748
1.09684
1.08624
1.07567
1.06513
1.05467
1.04431
1.03411
1.02401
1.01405
1.00431
0.994802
0.985551
0.976497
0.967596
0.959024
0.950801
0.942712
0.934871
0.927339
0.920084
0.913112
0.906393
0.899953
0.893882
0.8881
0.882617
0.877438
0.872555
0.867985
0.863777
0.859791
0.85612
0.852875
0.849907
0.847225
0.84485
0.842755
0.84099
0.83947
0.838288
0.837432
0.836698
0.83649
0.836473
0.836512
0.836656
0.83702
0.837784
0.838899
0.840038
0.841425
0.842718
0.84443
0.845877
0.847782
0.849488
0.851539
0.853495
0.85555
0.857682
0.860126
0.862164
0.865096
0.866992
0.870528
0.872527
0.876674
0.879349
0.885177
5.3209
4.27131
3.41713
2.76922
2.2937
1.94623
1.69261
1.50589
1.37539
1.28215
1.22664
1.20141
1.20136
1.20311
1.20779
1.21711
1.22152
1.2213
1.21981
1.2158
1.20748
1.19683
1.18609
1.17551
1.16515
1.15493
1.14479
1.13469
1.12456
1.11441
1.1042
1.09392
1.08363
1.07338
1.06303
1.05271
1.04254
1.03244
1.02247
1.01267
1.00294
0.993445
0.984286
0.975256
0.966418
0.957882
0.949604
0.941556
0.933797
0.926267
0.919055
0.912133
0.905469
0.8991
0.893032
0.887265
0.881801
0.876632
0.871776
0.867247
0.863008
0.859117
0.855532
0.852141
0.849067
0.846328
0.843897
0.841794
0.840012
0.838493
0.83734
0.836468
0.835809
0.835564
0.835562
0.835622
0.835798
0.836227
0.837059
0.838134
0.83936
0.840806
0.842081
0.843881
0.845356
0.847409
0.849151
0.851294
0.853264
0.855569
0.857586
0.860208
0.86212
0.865251
0.867118
0.870776
0.872756
0.876893
0.879411
0.884893
5.49042
4.58635
3.79519
3.15158
2.64778
2.25954
1.9629
1.73667
1.56586
1.43686
1.34393
1.27567
1.23407
1.21154
1.20399
1.20453
1.20625
1.2099
1.21151
1.211
1.20899
1.20427
1.1945
1.18248
1.17018
1.1583
1.14701
1.13626
1.12588
1.11566
1.10552
1.09543
1.08525
1.07496
1.0647
1.05447
1.04429
1.03416
1.02409
1.01422
1.00454
0.994972
0.985628
0.976541
0.967672
0.959061
0.950692
0.942623
0.934823
0.927291
0.920048
0.913084
0.906398
0.899999
0.893896
0.888091
0.882585
0.877376
0.872473
0.86788
0.863594
0.8596
0.855905
0.852541
0.849484
0.846747
0.844306
0.84219
0.840386
0.838855
0.83768
0.836794
0.836123
0.835852
0.835851
0.8359
0.836071
0.836485
0.837339
0.83844
0.839692
0.841196
0.842561
0.844353
0.845895
0.848094
0.849849
0.852187
0.85412
0.856685
0.85861
0.861445
0.863316
0.866606
0.868478
0.872188
0.874142
0.878221
0.880609
0.885799
5.61166
4.82472
4.10195
3.4823
2.9717
2.56028
2.23231
1.97258
1.76705
1.60451
1.47693
1.37783
1.30312
1.24949
1.21694
1.19951
1.19192
1.19025
1.19033
1.19036
1.19008
1.18883
1.18554
1.17859
1.1682
1.15683
1.14527
1.13394
1.12297
1.11237
1.10207
1.09197
1.08197
1.07202
1.06207
1.05212
1.04216
1.03222
1.02233
1.01254
1.00291
0.993412
0.984098
0.975077
0.966294
0.957731
0.949369
0.941351
0.933607
0.926128
0.918919
0.911982
0.90532
0.898938
0.892842
0.887034
0.881516
0.876297
0.871386
0.866782
0.862482
0.858504
0.854829
0.851436
0.848387
0.845659
0.843209
0.841082
0.839274
0.837741
0.836576
0.835703
0.835049
0.834841
0.83485
0.834931
0.835163
0.835666
0.836576
0.837885
0.839295
0.840933
0.842609
0.84461
0.846377
0.848908
0.850951
0.853717
0.855802
0.85866
0.860746
0.864023
0.865983
0.869594
0.871509
0.875364
0.877259
0.881339
0.883634
0.888791
5.7011
5.00588
4.34866
3.76298
3.26023
2.83977
2.49295
2.20923
1.97826
1.79061
1.63877
1.5165
1.41848
1.34202
1.28245
1.23783
1.20941
1.1922
1.18332
1.17943
1.17768
1.17708
1.17586
1.17327
1.16799
1.15979
1.14977
1.1387
1.12723
1.1158
1.10468
1.09395
1.08358
1.07348
1.06354
1.05369
1.04386
1.03405
1.02425
1.0145
1.00487
0.995371
0.986019
0.976897
0.968099
0.959518
0.951138
0.942977
0.935211
0.927711
0.920466
0.913484
0.906775
0.900347
0.894203
0.888342
0.882768
0.877493
0.872517
0.867845
0.86348
0.859413
0.855645
0.852187
0.849061
0.846284
0.843779
0.841606
0.83977
0.838221
0.837049
0.836175
0.835558
0.835429
0.835466
0.835615
0.835987
0.836757
0.838066
0.839733
0.841768
0.843943
0.846395
0.849169
0.851806
0.855007
0.857736
0.861486
0.86426
0.868266
0.870836
0.874961
0.877148
0.881224
0.883117
0.886986
0.888603
0.892251
0.894224
0.899133
5.76231
5.14231
4.5439
3.99544
3.51024
3.09182
2.73665
2.43819
2.18885
1.98124
1.8086
1.66561
1.54713
1.44958
1.36959
1.30601
1.25563
1.21758
1.19269
1.17697
1.16767
1.16267
1.15949
1.15707
1.15433
1.14991
1.14355
1.13533
1.12565
1.11505
1.10408
1.0931
1.08233
1.07187
1.06168
1.05172
1.04193
1.03225
1.02264
1.01309
1.00363
0.994276
0.985019
0.975942
0.96717
0.95862
0.950244
0.942081
0.934289
0.926811
0.91958
0.912603
0.905892
0.899462
0.893312
0.887436
0.881835
0.876531
0.87153
0.866835
0.862436
0.858334
0.854561
0.851109
0.847973
0.845155
0.842661
0.840506
0.838701
0.837204
0.836114
0.835335
0.835053
0.835134
0.835404
0.836005
0.837205
0.839075
0.841529
0.844571
0.848119
0.852325
0.856943
0.862187
0.867506
0.873516
0.879097
0.885568
0.890587
0.897132
0.901099
0.906841
0.909495
0.914179
0.915785
0.919169
0.92001
0.922248
0.923218
0.927417
5.80547
5.24527
4.70008
4.18935
3.72625
3.31647
2.96021
2.65384
2.39234
2.17008
1.9816
1.82182
1.68661
1.57264
1.47683
1.3972
1.33106
1.27802
1.23501
1.20184
1.1787
1.16311
1.15314
1.14705
1.14284
1.13937
1.13561
1.13062
1.12408
1.11599
1.10663
1.0964
1.08573
1.07495
1.0643
1.05391
1.0438
1.03394
1.02428
1.01475
1.00536
0.996077
0.986869
0.977796
0.96901
0.960427
0.951967
0.943726
0.935895
0.928359
0.9211
0.914097
0.907354
0.900917
0.894777
0.888881
0.88324
0.877896
0.872857
0.868105
0.863627
0.859453
0.855616
0.852103
0.848925
0.846087
0.843582
0.841505
0.839787
0.838535
0.837685
0.837767
0.838119
0.838896
0.840563
0.843534
0.847698
0.853176
0.86007
0.868459
0.878224
0.889312
0.901215
0.914083
0.926831
0.940176
0.952093
0.964559
0.973956
0.984771
0.990948
0.99855
1.00132
1.00529
1.00551
1.00542
1.00428
1.00239
0.998159
1.0015
5.8482
5.33171
4.82862
4.35287
3.91347
3.51627
3.16358
2.8542
2.58521
2.35248
2.15183
1.97912
1.83057
1.70303
1.59353
1.49982
1.4198
1.35232
1.29559
1.24921
1.21155
1.18225
1.16094
1.14607
1.13587
1.12896
1.12372
1.11911
1.11442
1.10884
1.10206
1.09406
1.08495
1.07505
1.06473
1.05429
1.04393
1.03375
1.0238
1.0141
1.00462
0.995347
0.986235
0.977282
0.96856
0.960076
0.951712
0.943526
0.935667
0.928101
0.920826
0.913818
0.906995
0.900432
0.894323
0.888465
0.882711
0.877339
0.872299
0.867497
0.862937
0.85869
0.85486
0.851356
0.848216
0.845475
0.843182
0.841489
0.840352
0.840512
0.841271
0.842839
0.84623
0.851927
0.860187
0.871274
0.885536
0.902986
0.923466
0.946769
0.972394
0.999554
1.02726
1.05524
1.08111
1.10645
1.12783
1.14906
1.16437
1.17925
1.18729
1.1939
1.19497
1.19402
1.19062
1.18562
1.17426
1.16595
1.14816
1.1548
5.89182
5.41245
4.94781
4.49872
4.0793
3.69552
3.34902
3.03997
2.76689
2.527
2.31724
2.13418
1.97469
1.83581
1.71495
1.60989
1.51868
1.43983
1.37192
1.31395
1.26482
1.2241
1.19081
1.16439
1.14431
1.12976
1.11927
1.11174
1.10585
1.10074
1.09562
1.08987
1.08316
1.07541
1.06667
1.05715
1.04708
1.03677
1.02647
1.01636
1.00654
0.997025
0.987816
0.978907
0.970283
0.961896
0.9537
0.945706
0.937935
0.930399
0.923102
0.916026
0.909165
0.902591
0.896338
0.890306
0.884464
0.878997
0.87394
0.869069
0.86442
0.860118
0.856376
0.853083
0.850355
0.848391
0.847489
0.848077
0.849975
0.853742
0.860855
0.872407
0.888995
0.911197
0.939553
0.973765
1.01426
1.05983
1.10868
1.16185
1.21791
1.27239
1.32096
1.36267
1.39658
1.42282
1.44189
1.45567
1.46265
1.46751
1.46732
1.46565
1.46175
1.45779
1.44881
1.44104
1.42349
1.4131
1.38997
1.40054
5.95408
5.49085
5.0521
4.63092
4.23023
3.85827
3.51874
3.21205
2.93742
2.69302
2.47666
2.2856
2.1173
1.96914
1.83881
1.72421
1.62346
1.535
1.45744
1.38967
1.33072
1.27986
1.23639
1.19986
1.16982
1.14558
1.12665
1.11246
1.10188
1.09386
1.08744
1.08177
1.07618
1.07013
1.06328
1.05552
1.04693
1.03765
1.02791
1.01794
1.008
0.998169
0.988716
0.97961
0.970851
0.962404
0.954232
0.946303
0.938597
0.931108
0.923828
0.916737
0.909833
0.903179
0.896818
0.890683
0.884733
0.879191
0.874123
0.86926
0.864704
0.860655
0.857598
0.85534
0.855415
0.856648
0.860324
0.86801
0.881567
0.902739
0.933249
0.973082
1.02355
1.08407
1.15558
1.2401
1.32516
1.40219
1.46565
1.51164
1.54003
1.55708
1.56495
1.56865
1.56821
1.5666
1.56342
1.55988
1.55429
1.55022
1.54384
1.53961
1.53251
1.52852
1.52081
1.51621
1.5066
1.50303
1.49575
1.49978
6.06163
5.5847
5.1527
4.74988
4.36786
4.00838
3.67575
3.37235
3.09778
2.85079
2.62976
2.43259
2.25719
2.10135
1.96303
1.8403
1.73138
1.63474
1.54903
1.47306
1.40588
1.34665
1.29472
1.24952
1.21062
1.17762
1.15028
1.12783
1.11003
1.09615
1.0855
1.07723
1.07047
1.06451
1.05866
1.05264
1.04576
1.03804
1.0296
1.02061
1.01124
1.00177
0.992216
0.982806
0.973658
0.96484
0.956406
0.948288
0.940474
0.932938
0.925658
0.918582
0.911704
0.905078
0.89873
0.8926
0.886676
0.881279
0.876471
0.872116
0.868668
0.866802
0.867847
0.87128
0.878367
0.892321
0.916502
0.953598
1.00401
1.07068
1.15225
1.25697
1.37076
1.46936
1.54559
1.58963
1.61185
1.62219
1.62535
1.62419
1.62115
1.61651
1.60979
1.60392
1.5961
1.58981
1.58205
1.57584
1.56825
1.56277
1.55532
1.55058
1.54339
1.53904
1.53184
1.52773
1.52002
1.51636
1.50997
1.51105
6.18907
5.68873
5.25286
4.85901
4.49159
4.14568
3.82158
3.52239
3.24897
3.00076
2.77659
2.57486
2.39384
2.2317
2.08664
1.95694
1.84097
1.73725
1.64446
1.56142
1.48714
1.42076
1.36157
1.30899
1.26257
1.22187
1.18657
1.15645
1.1311
1.11024
1.09337
1.07994
1.06926
1.06068
1.05354
1.04703
1.04091
1.03456
1.02768
1.02012
1.01194
1.00324
0.994217
0.985035
0.975864
0.966851
0.95807
0.94963
0.941536
0.933783
0.926349
0.919225
0.912388
0.905892
0.899728
0.893834
0.888349
0.88396
0.88047
0.879677
0.881524
0.887388
0.899611
0.922304
0.962162
1.01924
1.09717
1.19828
1.3318
1.46515
1.57096
1.63386
1.66304
1.67641
1.6793
1.67735
1.67129
1.66317
1.65351
1.64365
1.63338
1.62449
1.61492
1.60682
1.59794
1.59069
1.58235
1.57574
1.56784
1.5621
1.55449
1.54953
1.54245
1.5381
1.53121
1.52723
1.52
1.51649
1.50994
1.51089
6.31064
5.81353
5.36779
4.97147
4.60975
4.27283
3.9584
3.66413
3.39256
3.144
2.91774
2.71258
2.5271
2.35978
2.20905
2.07338
1.95128
1.84135
1.74232
1.65304
1.57252
1.49988
1.43441
1.37549
1.32264
1.27541
1.23351
1.19656
1.16432
1.13663
1.11314
1.09351
1.07745
1.06437
1.05378
1.04499
1.03755
1.03092
1.02454
1.01802
1.01109
1.00365
0.995767
0.987511
0.979002
0.970382
0.961779
0.953313
0.94506
0.937108
0.929523
0.922221
0.915401
0.909051
0.903329
0.898577
0.895487
0.896385
0.900186
0.908933
0.927737
0.964862
1.0237
1.10743
1.21978
1.37432
1.52841
1.64328
1.70017
1.72595
1.73556
1.7344
1.7283
1.71771
1.7047
1.69143
1.67856
1.66661
1.65495
1.64401
1.63291
1.62252
1.61181
1.602
1.59203
1.58302
1.57377
1.56587
1.55738
1.55086
1.54307
1.53759
1.53079
1.52629
1.52001
1.5164
1.51005
1.50702
1.5012
1.50157
6.30965
5.97025
5.49929
5.09079
4.72856
4.39501
4.085
3.79738
3.52894
3.28094
3.05352
2.8459
2.65694
2.48538
2.32987
2.18906
2.06158
1.94616
1.84156
1.74671
1.66062
1.58244
1.51142
1.44696
1.3885
1.33563
1.28796
1.24518
1.20703
1.17323
1.14357
1.11791
1.09592
1.07732
1.06183
1.04904
1.03843
1.0295
1.02178
1.01481
1.0082
1.00159
0.994766
0.987584
0.980066
0.972249
0.96422
0.956088
0.947968
0.940003
0.932323
0.925085
0.918712
0.913498
0.910934
0.912644
0.918655
0.931609
0.959048
1.01221
1.09382
1.20704
1.3748
1.55366
1.69378
1.75783
1.78761
1.79766
1.7943
1.78377
1.76905
1.75244
1.73601
1.72054
1.70558
1.69101
1.6762
1.6617
1.64705
1.63296
1.61892
1.60569
1.59263
1.58071
1.56893
1.55848
1.54805
1.53922
1.53011
1.5229
1.51513
1.50924
1.50265
1.49817
1.49259
1.48928
1.48403
1.4815
1.47732
1.47683
6.26019
6.05755
5.64284
5.21672
4.84533
4.51338
4.20718
3.92224
3.65815
3.41221
3.18451
2.97523
2.78362
2.60863
2.44908
2.30382
2.17158
2.05125
1.94166
1.84178
1.75065
1.66746
1.59145
1.522
1.45857
1.4007
1.348
1.30013
1.2568
1.21778
1.18282
1.15169
1.12421
1.10024
1.0795
1.06175
1.04672
1.03415
1.0236
1.01463
1.00679
0.999694
0.993004
0.986452
0.979797
0.972935
0.965861
0.958594
0.951258
0.944178
0.937589
0.932499
0.930624
0.932911
0.941062
0.958263
0.996027
1.06577
1.17168
1.33258
1.53754
1.72154
1.80899
1.84878
1.86402
1.86031
1.8486
1.83051
1.80967
1.78991
1.77099
1.75258
1.73388
1.71502
1.6958
1.67683
1.65787
1.63964
1.62173
1.60491
1.58854
1.57347
1.55886
1.54572
1.53297
1.52179
1.51085
1.50153
1.49234
1.48473
1.47713
1.47104
1.4648
1.46024
1.45528
1.45182
1.44787
1.44465
1.44346
1.44065
6.12972
6.03383
5.78826
5.36009
4.97306
4.63528
4.32825
4.04512
3.7822
3.53822
3.31178
3.10152
2.90774
2.7298
2.56674
2.41756
2.28113
2.15639
2.04227
1.9378
1.84207
1.75427
1.67369
1.5997
1.53175
1.46938
1.41219
1.35982
1.31196
1.26833
1.2287
1.19285
1.16059
1.13171
1.10604
1.08344
1.06373
1.04667
1.03205
1.01966
1.00917
1.00018
0.9923
0.985184
0.97857
0.972201
0.966004
0.959978
0.95472
0.950231
0.950607
0.953864
0.963892
0.984777
1.03297
1.12051
1.24723
1.46629
1.69355
1.84877
1.90529
1.93411
1.93327
1.92419
1.90314
1.87874
1.85498
1.83212
1.80938
1.78632
1.76264
1.73869
1.71462
1.69105
1.66785
1.64562
1.62404
1.6038
1.58434
1.5664
1.54921
1.53362
1.51868
1.50536
1.49256
1.48135
1.4705
1.4612
1.45228
1.44461
1.43726
1.4311
1.42528
1.42042
1.41604
1.41203
1.40925
1.40558
1.40438
1.40179
5.93936
5.93057
5.80868
5.5282
5.12578
4.76749
4.45357
4.16643
3.90274
3.65937
3.43363
3.22435
3.02946
2.84918
2.68307
2.53035
2.3901
2.26134
2.14309
2.03441
1.93445
1.84242
1.75763
1.67946
1.60737
1.54089
1.47961
1.42317
1.37123
1.32351
1.27975
1.23973
1.20325
1.17009
1.1401
1.11309
1.08893
1.0675
1.04867
1.03221
1.018
1.00584
0.995499
0.986631
0.979005
0.972341
0.96744
0.96464
0.965904
0.971358
0.982168
1.01152
1.06431
1.17086
1.32317
1.58408
1.83571
1.94899
1.99913
2.01476
2.00607
1.98563
1.96077
1.93268
1.90569
1.87896
1.85142
1.82287
1.79373
1.76462
1.73579
1.70774
1.68052
1.65463
1.62978
1.60654
1.58435
1.56387
1.54438
1.5266
1.50966
1.49439
1.47981
1.46682
1.45442
1.44345
1.43303
1.42388
1.41522
1.40764
1.40059
1.39439
1.38882
1.38378
1.37964
1.37555
1.37267
1.36925
1.36789
1.36507
5.46417
5.80401
5.76574
5.61429
5.29564
4.91614
4.58314
4.29163
4.02649
3.78049
3.55228
3.34143
3.1465
2.96529
2.79713
2.64162
2.49811
2.36579
2.24381
2.13131
2.02745
1.93152
1.84283
1.7608
1.68488
1.61461
1.54959
1.48941
1.43374
1.38235
1.3349
1.29118
1.25092
1.21396
1.18011
1.14922
1.12114
1.09573
1.07286
1.05246
1.03443
1.01862
1.00493
0.993347
0.984368
0.97851
0.979968
0.984781
0.999499
1.02581
1.08939
1.20698
1.37701
1.66759
1.9412
2.03698
2.08854
2.09002
2.07862
2.05232
2.02092
1.99125
1.96102
1.92952
1.89638
1.86228
1.82785
1.79385
1.76064
1.72863
1.69792
1.66884
1.64119
1.61534
1.59081
1.56809
1.54649
1.52668
1.50779
1.49062
1.47421
1.45941
1.44526
1.4326
1.42052
1.40977
1.39957
1.39053
1.38204
1.37452
1.36756
1.36138
1.35585
1.35083
1.34664
1.34259
1.33971
1.33623
1.33483
1.3319
4.37667
5.49961
5.65619
5.59012
5.4129
5.05835
4.71441
4.41279
4.14345
3.89808
3.67126
3.45964
3.26189
3.07824
2.90799
2.75012
2.60392
2.46862
2.34344
2.22765
2.1204
2.02103
1.92886
1.84334
1.76393
1.69019
1.6217
1.55811
1.49907
1.44423
1.39338
1.34624
1.30261
1.26225
1.22498
1.19063
1.15904
1.13008
1.10365
1.07964
1.05803
1.03889
1.0222
1.0092
1.00469
1.0078
1.01834
1.04895
1.10565
1.22875
1.40804
1.71582
2.01448
2.11501
2.17165
2.167
2.14844
2.11927
2.08522
2.05193
2.01708
1.97976
1.94101
1.90187
1.86305
1.82519
1.78862
1.75367
1.72038
1.68889
1.65909
1.63111
1.60462
1.5799
1.55638
1.53459
1.51374
1.49457
1.47618
1.45939
1.44327
1.42864
1.41464
1.40201
1.38998
1.37917
1.36896
1.35984
1.3513
1.34369
1.3367
1.33045
1.32489
1.31984
1.31566
1.31159
1.30874
1.30529
1.30387
1.30083
2.65541
4.77318
5.44822
5.49099
5.40808
5.207
4.86107
4.54346
4.26525
4.01573
3.78677
3.57413
3.37639
3.19174
3.01962
2.85895
2.70951
2.57107
2.44284
2.32394
2.21356
2.11101
2.01565
1.92692
1.8443
1.76736
1.69566
1.62884
1.5666
1.50862
1.45463
1.40436
1.3576
1.31412
1.27374
1.23627
1.20156
1.16949
1.13996
1.11293
1.08864
1.06777
1.05082
1.05173
1.06011
1.08089
1.13898
1.25047
1.43205
1.75144
2.07916
2.19164
2.25691
2.25001
2.22511
2.18961
2.15057
2.11135
2.06944
2.0258
1.9819
1.93882
1.89699
1.85678
1.81828
1.78167
1.74689
1.71396
1.68272
1.65317
1.62511
1.59863
1.57338
1.54965
1.5269
1.50566
1.4852
1.46625
1.44799
1.43118
1.41501
1.40023
1.38608
1.37321
1.36098
1.3499
1.33948
1.3301
1.32138
1.31355
1.30642
1.30001
1.29437
1.28924
1.28502
1.28095
1.2781
1.27472
1.27328
1.27012
1.93425
3.12289
4.91034
5.35243
5.34539
5.25034
5.03203
4.70084
4.40255
4.14173
3.90724
3.69163
3.49136
3.3045
3.12987
2.96722
2.81599
2.67494
2.54347
2.42112
2.30745
2.2017
2.10321
2.01143
1.9258
1.84585
1.77113
1.70132
1.63606
1.57509
1.51812
1.46494
1.41528
1.36896
1.32576
1.28552
1.24807
1.2134
1.18161
1.15253
1.12935
1.11544
1.11973
1.14154
1.18246
1.29188
1.4711
1.79763
2.16004
2.29317
2.36358
2.35492
2.32386
2.2761
2.22569
2.17646
2.12589
2.07516
2.0258
1.97849
1.93358
1.89122
1.85116
1.81326
1.77722
1.74309
1.7106
1.67972
1.6502
1.6221
1.59519
1.56961
1.54503
1.52178
1.49936
1.47829
1.45792
1.43892
1.4206
1.4036
1.38728
1.37223
1.35786
1.34468
1.33219
1.3208
1.31013
1.30043
1.2915
1.28339
1.2761
1.2695
1.26374
1.25851
1.25422
1.25013
1.24725
1.24394
1.24243
1.23912
1.51569
2.08861
3.67925
4.98281
5.23424
5.21081
5.10479
4.8715
4.56032
4.28049
4.03454
3.81291
3.60894
3.41924
3.2421
3.07666
2.92204
2.77784
2.64385
2.51887
2.40218
2.29334
2.19179
2.09694
2.00828
1.92537
1.84774
1.77508
1.70701
1.64326
1.58352
1.52759
1.47521
1.42621
1.38042
1.33779
1.2981
1.26207
1.23088
1.20485
1.20598
1.21811
1.26001
1.34395
1.52208
1.85873
2.26381
2.43603
2.51077
2.49884
2.46023
2.39828
2.33029
2.26704
2.20433
2.14371
2.08626
2.03247
1.98225
1.9353
1.89179
1.85136
1.81327
1.77696
1.74243
1.70974
1.67845
1.64859
1.61987
1.59245
1.56605
1.54087
1.5166
1.49355
1.47129
1.45026
1.42998
1.41092
1.39259
1.37545
1.35906
1.34381
1.3293
1.31589
1.30323
1.29158
1.28073
1.27077
1.26166
1.25332
1.24588
1.2391
1.23322
1.22788
1.22352
1.2194
1.21647
1.21322
1.21161
1.20813
1.24851
1.54913
2.37554
4.05904
4.95085
5.1136
5.07811
4.96275
4.72122
4.43144
4.16951
3.93794
3.7282
3.53482
3.35489
3.18687
3.02974
2.88273
2.74538
2.61722
2.49773
2.38605
2.28147
2.18358
2.09195
2.00613
1.92568
1.85028
1.77952
1.71313
1.6508
1.59231
1.53746
1.48612
1.43821
1.39434
1.35429
1.32194
1.30877
1.31737
1.34945
1.43263
1.59441
1.92163
2.38107
2.62233
2.70481
2.6884
2.64195
2.56411
2.48346
2.40444
2.32727
2.25545
2.18848
2.1256
2.06658
2.01143
1.95965
1.91131
1.86586
1.82334
1.78359
1.74645
1.71201
1.67959
1.64851
1.61889
1.59037
1.56314
1.53689
1.51184
1.48768
1.46468
1.44252
1.4215
1.40129
1.38219
1.3639
1.34668
1.33028
1.31492
1.30036
1.2868
1.27405
1.26223
1.25126
1.24113
1.2319
1.22339
1.21586
1.20894
1.203
1.19759
1.1932
1.18906
1.18612
1.18296
1.18127
1.17767
1.10362
1.286
1.63185
2.51104
4.23466
4.88914
4.99309
4.94787
4.82608
4.57848
4.31073
4.06741
3.84907
3.65071
3.46748
3.29692
3.13742
2.98804
2.84798
2.71673
2.59382
2.47886
2.37149
2.27088
2.17643
2.0878
2.00463
1.92658
1.85325
1.78437
1.71966
1.65893
1.60211
1.54952
1.5008
1.46178
1.43191
1.43706
1.46605
1.52764
1.68731
1.98619
2.50383
2.845
2.94291
2.92579
2.87036
2.77509
2.67843
2.58404
2.49191
2.40552
2.32531
2.2518
2.18304
2.11889
2.05883
2.00276
1.94992
1.90061
1.85378
1.80967
1.76764
1.72831
1.69101
1.65641
1.62398
1.59337