/*--------------------------------*- C++ -*----------------------------------*\
| =========                 |                                                 |
| \\      /  F ield         | OpenFOAM: The Open Source CFD Toolbox           |
|  \\    /   O peration     | Version:  2112                                  |
|   \\  /    A nd           | Website:  www.openfoam.com                      |
|    \\/     M anipulation  |                                                 |
\*---------------------------------------------------------------------------*/
FoamFile
{
    version     2.0;
    format      ascii;
    arch        "LSB;label=32;scalar=64";
    class       surfaceScalarField;
    location    "1";
    object      phi;
}
// * * * * * * * * * * * * * * * * * * * * * * * * * * * * * * * * * * * * * //

dimensions      [1 0 -1 0 0 0 0];

oriented        oriented;

internalField   nonuniform List<scalar> 
10325
(
0.00840003
1.93431e-11
0.00840003
1.52557e-10
0.00840003
4.6821e-10
0.00840002
1.4359e-09
0.00840001
3.40523e-09
0.00839997
9.2869e-09
0.00839991
2.10042e-08
0.00839964
5.68634e-08
0.0083993
1.25484e-07
0.00839744
3.72291e-07
0.00839592
6.94247e-07
0.00838307
2.83968e-06
0.00836794
5.6159e-06
0.00829815
2.72036e-05
0.00810169
7.93777e-05
0.00720667
0.000483989
0.00662511
0.000710327
0.00602439
0.000644895
0.00535083
0.000685726
0.00461074
0.000752591
0.00378401
0.000838673
0.00289314
0.000896572
0.00197036
0.000933269
0.00100057
0.000964598
0.000952631
0.00840003
3.9181e-11
0.00840003
3.07267e-10
0.00840003
9.42053e-10
0.00840002
2.87631e-09
0.00840001
6.79839e-09
0.00839997
1.84818e-08
0.00839992
4.15624e-08
0.00839965
1.12667e-07
0.00839932
2.45681e-07
0.00839753
7.38543e-07
0.0083961
1.33665e-06
0.00838365
5.64279e-06
0.00836918
1.07582e-05
0.00830165
5.31329e-05
0.00811226
0.000153187
0.00728486
0.000910946
0.00668569
0.00142635
0.00606659
0.00130608
0.00537894
0.00138498
0.00463063
0.00151276
0.00378945
0.00168897
0.00288609
0.00180321
0.00195329
0.00187535
0.000983055
0.00192936
0.00188798
0.00840003
5.92997e-11
0.00840003
4.61009e-10
0.00840003
1.41909e-09
0.00840002
4.28944e-09
0.00840001
1.01477e-08
0.00839998
2.71668e-08
0.00839993
6.09463e-08
0.00839969
1.62645e-07
0.00839937
3.55911e-07
0.00839779
1.0295e-06
0.00839626
2.05618e-06
0.00838551
7.52693e-06
0.00837164
1.53603e-05
0.00831451
7.04866e-05
0.00815207
0.00020362
0.00750604
0.00117863
0.00686897
0.00214755
0.00617898
0.00203157
0.0054587
0.00211747
0.0046931
0.00228986
0.00383913
0.0025471
0.00292478
0.0027165
0.00198147
0.00282589
0.000998607
0.00290691
0.00284024
0.00840003
7.95403e-11
0.00840003
6.16154e-10
0.00840003
1.90517e-09
0.00840002
5.72921e-09
0.00840001
1.35718e-08
0.00839998
3.59291e-08
0.00839993
8.06508e-08
0.00839973
2.10329e-07
0.00839945
4.64499e-07
0.00839823
1.25643e-06
0.0083963
2.72984e-06
0.00838832
8.43241e-06
0.00837569
1.89584e-05
0.00833232
7.5816e-05
0.00822273
0.000220299
0.00786088
0.00120074
0.00712009
0.00288257
0.00632921
0.00283719
0.00557321
0.00288717
0.00479218
0.00308159
0.00393221
0.00340984
0.00301124
0.00363413
0.00205006
0.00379166
0.00103813
0.00391367
0.00383364
0.00840003
1.04421e-10
0.00840003
7.97825e-10
0.00840003
2.47923e-09
0.00840002
7.3759e-09
0.00840001
1.74995e-08
0.00839998
4.56788e-08
0.00839993
1.02535e-07
0.00839975
2.62584e-07
0.00839948
5.79187e-07
0.00839839
1.52757e-06
0.00839681
3.31174e-06
0.00839034
9.80849e-06
0.00838107
2.16142e-05
0.00834904
8.12138e-05
0.00831066
0.000219805
0.0081894
0.00111138
0.00732773
0.00359763
0.00646127
0.00369836
0.00569414
0.00367646
0.00491531
0.00387064
0.00405947
0.00426469
0.00313595
0.00454926
0.00216446
0.00476646
0.00111213
0.00496269
0.00490354
0.00840003
1.35158e-10
0.00840003
1.03511e-09
0.00840003
3.18858e-09
0.00840002
9.52183e-09
0.00840001
2.25501e-08
0.00839998
5.91696e-08
0.00839992
1.3277e-07
0.00839972
3.40294e-07
0.0083994
7.49272e-07
0.00839829
1.94501e-06
0.00839639
4.29524e-06
0.00839075
1.14339e-05
0.00837937
2.81428e-05
0.00835484
8.65348e-05
0.00830495
0.000242313
0.00811822
0.00114102
0.00738167
0.0041639
0.00654408
0.0045066
0.00581469
0.0044254
0.00505443
0.00462889
0.00422271
0.0050891
0.00331875
0.00545207
0.0023225
0.00576592
0.00121548
0.00606494
0.00608066
0.00840003
1.54732e-10
0.00840003
1.19493e-09
0.00840003
3.66843e-09
0.00840002
1.10488e-08
0.00840001
2.62353e-08
0.00839997
6.98289e-08
0.00839992
1.57864e-07
0.00839969
4.08483e-07
0.00839934
9.34859e-07
0.00839823
2.26349e-06
0.00839578
5.85783e-06
0.00839095
1.23473e-05
0.00837741
3.4555e-05
0.00834741
9.58625e-05
0.00831836
0.000273403
0.00816208
0.00118168
0.00737401
0.0047655
0.00663201
0.00520556
0.00596744
0.00510291
0.00521485
0.00537046
0.00444016
0.00585005
0.00355891
0.00632481
0.00256513
0.00675962
0.00139233
0.00723591
0.0074423
0.00840003
1.5941e-10
0.00840003
1.25241e-09
0.00840003
3.83888e-09
0.00840002
1.16674e-08
0.00840001
2.78449e-08
0.00839998
7.44348e-08
0.00839994
1.70003e-07
0.00839977
4.33933e-07
0.00839953
1.02234e-06
0.0083987
2.38272e-06
0.00839755
5.98218e-06
0.00839249
1.35825e-05
0.00838679
3.48081e-05
0.0083645
9.8091e-05
0.00833025
0.000309122
0.0082059
0.00120216
0.00743024
0.00533816
0.00686071
0.00576205
0.00617291
0.00578198
0.0054307
0.00609255
0.00472358
0.00654537
0.00390658
0.00714249
0.00290785
0.00776927
0.00166623
0.00849108
0.00908696
0.00840003
1.272e-10
0.00840003
1.20894e-09
0.00840003
3.60477e-09
0.00840002
1.11163e-08
0.00840002
2.60527e-08
0.0084
7.07538e-08
0.00839998
1.5896e-07
0.00839982
4.19315e-07
0.00839976
9.33778e-07
0.0083989
2.46031e-06
0.00839853
5.12159e-06
0.00839296
1.56794e-05
0.00839002
3.04588e-05
0.00835866
0.000113568
0.00833829
0.000305137
0.0082159
0.00125501
0.00757474
0.0057471
0.00696091
0.00638083
0.00638465
0.00635756
0.00576983
0.00669357
0.00512807
0.00718611
0.00439026
0.00789665
0.00349743
0.00867359
0.00217599
0.00982397
0.0112503
0.00840003
3.56012e-11
0.00840003
1.41096e-09
0.00840003
1.94608e-09
0.00840003
1.22297e-08
0.00840003
1.44949e-08
0.00840001
7.74197e-08
0.00840006
8.61438e-08
0.00839989
4.81353e-07
0.00840024
4.35976e-07
0.00839874
3.32002e-06
0.00840124
1.9044e-06
0.00838962
2.36229e-05
0.00840358
1.19347e-05
0.00832675
0.000172505
0.00841125
0.000199006
0.00826639
0.00132646
0.00792077
0.00580623
0.00729243
0.00702983
0.00672869
0.00692888
0.00623979
0.00717002
0.00571219
0.00770649
0.00514239
0.00846828
0.00431563
0.00950436
0.00302555
0.0111221
0.0142691
0.00840003
2.2505e-10
0.00840003
4.53076e-10
0.00840003
3.62747e-09
0.00840003
4.844e-09
0.00840002
2.55844e-08
0.00840005
3.17049e-08
0.00839995
1.58812e-07
0.00840019
1.8494e-07
0.00839936
1.0265e-06
0.00840153
9.85458e-07
0.00839454
7.26125e-06
0.00841111
5.89872e-06
0.00836238
5.2497e-05
0.00847138
5.09495e-05
0.0082055
0.000432586
0.00854746
0.000924874
0.00858946
0.00547147
0.00792508
0.00773964
0.00726297
0.0076001
0.00680395
0.00761486
0.00639951
0.00811046
0.00603082
0.00886708
0.00571384
0.00986888
0.00577633
0.0111038
0.0115299
0.00852231
0.00840003
1.13427e-10
0.00840003
6.46596e-10
0.00840003
2.18258e-09
0.00840003
6.17122e-09
0.00840004
1.54835e-08
0.00840002
3.90145e-08
0.00840007
9.24506e-08
0.00839996
2.33626e-07
0.00840032
5.34766e-07
0.00839912
1.54277e-06
0.00840282
3.24461e-06
0.00839373
1.12388e-05
0.00841684
2.47987e-05
0.00836407
8.66543e-05
0.00851451
0.000250072
0.00842866
0.000986876
0.00960022
0.0039533
0.00891634
0.00847228
0.00809186
0.00846626
0.00761911
0.00810094
0.00725627
0.00848799
0.00699591
0.00915056
0.00696614
0.00993106
0.00743441
0.0106604
0.0106176
0.00836761
0.00840003
9.41059e-11
0.00840003
7.3465e-10
0.00840003
2.22963e-09
0.00840003
6.79294e-09
0.00840002
1.60809e-08
0.00840001
4.34756e-08
0.00839999
9.81959e-08
0.00839988
2.60506e-07
0.00839975
5.78783e-07
0.00839927
1.55652e-06
0.0083985
3.42521e-06
0.00839756
9.62978e-06
0.00839614
2.17562e-05
0.00840648
6.54466e-05
0.00843571
0.000188785
0.0087578
0.000631631
0.0101054
0.00235995
0.00966234
0.00883062
0.00917741
0.00890206
0.00844222
0.00880995
0.0080561
0.00884574
0.0079026
0.00929136
0.00803086
0.00980705
0.00856691
0.0101374
0.00999721
0.00918091
0.00840003
8.06141e-11
0.00840003
6.38197e-10
0.00840003
1.95393e-09
0.00840003
5.97744e-09
0.00840003
1.42103e-08
0.00840002
3.85017e-08
0.00840002
8.74802e-08
0.00839997
2.31916e-07
0.00839995
5.22867e-07
0.00839969
1.38006e-06
0.00839958
3.14372e-06
0.00839883
8.26496e-06
0.00839794
1.90944e-05
0.00839745
5.50343e-05
0.00842637
0.000141155
0.00849699
0.00051313
0.00905184
0.00166984
0.00969102
0.00790257
0.00938456
0.00914328
0.00894934
0.00920728
0.00867671
0.0090985
0.00862487
0.00932463
0.00878117
0.00964382
0.00919915
0.0097221
0.00947774
0.00972111
0.00840003
6.85198e-11
0.00840003
5.33474e-10
0.00840003
1.64711e-09
0.00840003
4.96852e-09
0.00840003
1.18245e-08
0.00840003
3.14407e-08
0.00840003
7.10487e-08
0.00840003
1.84985e-07
0.00840007
4.11548e-07
0.00840004
1.0951e-06
0.00840047
2.31308e-06
0.00839981
7.10046e-06
0.00840377
1.30139e-05
0.00839823
5.11306e-05
0.00842385
0.000101969
0.00843718
0.000465175
0.00873046
0.0013101
0.00972334
0.00662852
0.0096217
0.00924129
0.00934666
0.00946931
0.00912306
0.00929984
0.00912478
0.0093103
0.00929727
0.00946501
0.00962624
0.00938964
0.00906726
0.0100363
0.00840003
6.13279e-11
0.00840003
4.79978e-10
0.00840003
1.47056e-09
0.00840003
4.46822e-09
0.00840003
1.06071e-08
0.00840002
2.84981e-08
0.00840002
6.44881e-08
0.00839999
1.69445e-07
0.00839997
3.78961e-07
0.00839981
9.9916e-07
0.00839961
2.21087e-06
0.00839914
6.05245e-06
0.00839797
1.29805e-05
0.00839938
4.07501e-05
0.00840465
8.83357e-05
0.00848811
0.000348572
0.00875075
0.000988457
0.0103676
0.00470279
0.0101563
0.00945802
0.00990342
0.00975427
0.00960252
0.0096303
0.00956944
0.0093469
0.00969726
0.00932174
0.00992106
0.00915112
0.00876088
0.0102239
0.00840003
5.21837e-11
0.00840003
4.09428e-10
0.00840003
1.25163e-09
0.00840003
3.81182e-09
0.00840003
9.0431e-09
0.00840003
2.43904e-08
0.00840003
5.52571e-08
0.00840002
1.45848e-07
0.00840003
3.27401e-07
0.00839994
8.60154e-07
0.00839995
1.94854e-06
0.00839975
4.99327e-06
0.00839934
1.19254e-05
0.00840431
2.96627e-05
0.00840339
7.73277e-05
0.0084991
0.000224635
0.00880976
0.000687882
0.0105862
0.00277835
0.010721
0.00922134
0.0105782
0.00988764
0.0102236
0.00998051
0.0100128
0.00956076
0.010066
0.00927879
0.0102036
0.00902649
0.0085887
0.0103801
0.00840003
3.89089e-11
0.00840003
3.13969e-10
0.00840003
9.73256e-10
0.00840003
2.91584e-09
0.00840003
6.9837e-09
0.00840003
1.84306e-08
0.00840004
4.20027e-08
0.00840005
1.08418e-07
0.0084001
2.43973e-07
0.00840015
6.33499e-07
0.00840049
1.40122e-06
0.00840061
3.80322e-06
0.00840239
8.08523e-06
0.00840363
2.41999e-05
0.00841313
5.25712e-05
0.00844685
0.000175496
0.00859601
0.000490717
0.00927207
0.00204455
0.0107451
0.00746554
0.0108176
0.00978895
0.0106398
0.0101364
0.0103858
0.00980601
0.0103773
0.00928554
0.0104785
0.00893693
0.00850556
0.0105804
0.00840003
1.56913e-11
0.00840003
3.0209e-10
0.00840003
5.92903e-10
0.00840003
2.66895e-09
0.00840003
4.35293e-09
0.00840003
1.66912e-08
0.00840004
2.61598e-08
0.00840004
9.76589e-08
0.00840011
1.5001e-07
0.00840007
5.66524e-07
0.00840049
8.43416e-07
0.00840023
3.39637e-06
0.00840291
4.53585e-06
0.00840054
2.25388e-05
0.0084203
2.65544e-05
0.00841609
0.00016254
0.00858969
0.000286788
0.00920436
0.00136461
0.0111631
0.00517251
0.0112115
0.00970554
0.011166
0.0101785
0.0108965
0.0100863
0.0107044
0.00950493
0.0107146
0.00894636
0.00846388
0.010774
0.00840003
2.78192e-11
0.00840003
1.59103e-10
0.00840003
5.94779e-10
0.00840003
1.52767e-09
0.00840003
4.26687e-09
0.00840004
9.77649e-09
0.00840003
2.59109e-08
0.00840006
5.79565e-08
0.00840002
1.5246e-07
0.0084002
3.38852e-07
0.00839995
8.95205e-07
0.0084011
1.99016e-06
0.00839928
5.31388e-06
0.00840831
1.20757e-05
0.00839667
3.28977e-05
0.00846855
8.17837e-05
0.00847833
0.000250969
0.009081
0.000734713
0.0111725
0.00294372
0.0117442
0.00901184
0.0117223
0.0102027
0.0115048
0.0103108
0.0111468
0.00988377
0.0110173
0.00909553
0.00851695
0.0109827
0.00840003
3.03786e-11
0.00840003
9.68734e-11
0.00840003
5.29895e-10
0.00840003
9.83536e-10
0.00840003
3.72823e-09
0.00840003
6.37468e-09
0.00840003
2.25591e-08
0.00840005
3.79854e-08
0.00840004
1.32864e-07
0.00840012
2.22386e-07
0.00840009
7.81763e-07
0.00840061
1.29544e-06
0.0084005
4.66584e-06
0.00840406
7.49207e-06
0.00840347
2.94027e-05
0.00843431
4.58559e-05
0.00845979
0.000203335
0.00871699
0.000447965
0.00979371
0.00180512
0.0117883
0.00671568
0.0119807
0.00998379
0.0119077
0.0103668
0.0115736
0.0102328
0.0113991
0.0092887
0.0086656
0.0112654
0.00840003
1.06496e-11
0.00840003
1.10698e-10
0.00840003
2.64283e-10
0.00840003
1.00961e-09
0.00840003
1.93061e-09
0.00840003
6.42613e-09
0.00840004
1.18162e-08
0.00840003
3.81974e-08
0.00840009
6.97163e-08
0.00840005
2.24365e-07
0.00840037
4.07989e-07
0.00840011
1.32361e-06
0.00840213
2.37125e-06
0.0084001
8.01674e-06
0.00841458
1.378e-05
0.00840036
5.08212e-05
0.00850383
9.00173e-05
0.00853078
0.000378526
0.00932677
0.000912496
0.0121598
0.00351678
0.0124129
0.00964072
0.01238
0.0103899
0.0122374
0.0103791
0.0117777
0.00977151
0.00891406
0.0115538
0.00840003
1.30277e-11
0.00840003
4.95288e-11
0.00840003
2.45051e-10
0.00840003
4.93636e-10
0.00840003
1.73406e-09
0.00840003
3.18843e-09
0.00840003
1.04668e-08
0.00840005
1.89441e-08
0.00840005
6.11935e-08
0.00840015
1.10347e-07
0.00840014
3.5631e-07
0.00840075
6.38158e-07
0.00840066
2.11108e-06
0.0084047
3.6106e-06
0.00840289
1.3359e-05
0.00843091
2.04063e-05
0.00841945
9.09508e-05
0.00862896
0.00014568
0.00877452
0.000731921
0.0101768
0.00199909
0.0125426
0.00704843
0.0127643
0.0101527
0.0126391
0.0104676
0.0121276
0.0102756
0.00920629
0.011855
0.00840003
6.22994e-12
0.00840003
4.25945e-11
0.00840003
1.33606e-10
0.00840003
4.02308e-10
0.00840003
9.63868e-10
0.00840003
2.57226e-09
0.00840003
5.85073e-09
0.00840004
1.52201e-08
0.00840006
3.41933e-08
0.00840006
8.84304e-08
0.0084002
1.97664e-07
0.00840024
5.11991e-07
0.00840108
1.14017e-06
0.00840105
3.00843e-06
0.00840735
6.61768e-06
0.00840419
1.8679e-05
0.00845159
4.11196e-05
0.00844828
0.000127279
0.00882208
0.000334553
0.009514
0.00121557
0.0123611
0.00386298
0.0130037
0.00943451
0.013166
0.0103037
0.0129154
0.0105185
0.00976052
0.012375
0.00840003
3.76897e-12
0.00840003
2.97751e-11
0.00840003
9.22038e-11
0.00840003
2.76933e-10
0.00840003
6.63397e-10
0.00840003
1.75357e-09
0.00840003
4.00281e-09
0.00840004
1.02974e-08
0.00840004
2.32428e-08
0.00840006
5.94478e-08
0.00840011
1.33484e-07
0.0084002
3.42041e-07
0.00840049
7.64026e-07
0.00840104
1.98923e-06
0.00840282
4.33424e-06
0.00840652
1.21943e-05
0.00841984
2.46524e-05
0.00844945
8.2151e-05
0.00858955
0.000176865
0.00904525
0.000700592
0.0107413
0.00203553
0.0129645
0.00695213
0.0131935
0.010037
0.0133865
0.0103096
0.0102465
0.0129081
0.00840003
1.69488e-12
0.00840003
2.32363e-11
0.00840003
5.32064e-11
0.00840003
2.08495e-10
0.00840003
3.90098e-10
0.00840003
1.31133e-09
0.00840003
2.36868e-09
0.00840003
7.6954e-09
0.00840004
1.38146e-08
0.00840005
4.4512e-08
0.00840009
7.97136e-08
0.00840013
2.57035e-07
0.00840038
4.57915e-07
0.00840059
1.49306e-06
0.00840198
2.60741e-06
0.00840346
8.94504e-06
0.00841123
1.45693e-05
0.00842514
5.74309e-05
0.0084966
9.31806e-05
0.00873819
0.000411672
0.00965571
0.00103662
0.0126044
0.003621
0.0134168
0.00915588
0.0136331
0.0101172
0.0104495
0.0134521
0.00840003
1.87693e-12
0.00840003
1.11904e-11
0.00840003
4.10899e-11
0.00840003
1.07036e-10
0.00840003
2.93648e-10
0.00840003
6.80756e-10
0.00840003
1.76305e-09
0.00840003
3.99252e-09
0.00840004
1.01916e-08
0.00840005
2.29652e-08
0.00840006
5.83495e-08
0.00840018
1.31273e-07
0.00840023
3.33506e-07
0.00840089
7.49457e-07
0.00840116
1.93263e-06
0.0084053
4.26543e-06
0.00840558
1.18405e-05
0.00843509
2.47563e-05
0.00843722
7.90127e-05
0.0086529
0.000171666
0.00898265
0.000667995
0.0106128
0.00186909
0.0132342
0.00627396
0.0135603
0.00976229
0.0100938
0.013898
0.00840003
1.33371e-12
0.00840003
7.18868e-12
0.00840003
2.67214e-11
0.00840003
6.89663e-11
0.00840003
1.90183e-10
0.00840003
4.40017e-10
0.00840003
1.14368e-09
0.00840003
2.587e-09
0.00840003
6.6278e-09
0.00840004
1.49096e-08
0.00840005
3.80299e-08
0.00840009
8.53259e-08
0.00840016
2.17495e-07
0.00840037
4.86694e-07
0.00840082
1.24553e-06
0.00840201
2.77921e-06
0.00840528
7.20631e-06
0.00841213
1.62618e-05
0.0084401
4.33603e-05
0.00849631
0.00010582
0.00881839
0.000313663
0.00968034
0.000927673
0.0126551
0.00308947
0.013841
0.00845101
0.00994356
0.0139626
0.00840003
1.01601e-12
0.00840003
3.74904e-12
0.00840003
1.81928e-11
0.00840003
3.76287e-11
0.00840003
1.2809e-10
0.00840003
2.42029e-10
0.00840003
7.68363e-10
0.00840003
1.42708e-09
0.00840003
4.45786e-09
0.00840004
8.25147e-09
0.00840004
2.56538e-08
0.00840008
4.73989e-08
0.00840012
1.47185e-07
0.0084003
2.70817e-07
0.00840055
8.44421e-07
0.00840159
1.54079e-06
0.00840299
4.89577e-06
0.00840937
8.78564e-06
0.00841765
2.94527e-05
0.00846752
5.3186e-05
0.00856528
0.000190893
0.00902233
0.000452104
0.0103657
0.0016258
0.013304
0.00517688
0.00919018
0.0139748
0.00840003
4.04872e-13
0.00840003
2.80594e-12
0.00840003
8.81834e-12
0.00840003
2.64663e-11
0.00840003
6.34608e-11
0.00840003
1.68512e-10
0.00840003
3.83352e-10
0.00840003
9.9293e-10
0.00840003
2.23282e-09
0.00840003
5.75916e-09
0.00840004
1.29083e-08
0.00840005
3.33081e-08
0.00840011
7.44916e-08
0.00840015
1.92525e-07
0.0084005
4.29556e-07
0.00840071
1.11358e-06
0.00840279
2.483e-06
0.00840394
6.46648e-06
0.00841672
1.46901e-05
0.00842538
3.83904e-05
0.00851101
9.37774e-05
0.00867563
0.000260813
0.00948343
0.000772312
0.0120178
0.0025401
0.00702829
0.0139724
0.00840003
2.14278e-13
0.00840003
1.69385e-12
0.00840003
5.22894e-12
0.00840003
1.57972e-11
0.00840003
3.76574e-11
0.00840003
9.99151e-11
0.00840003
2.26757e-10
0.00840003
5.85301e-10
0.00840003
1.31442e-09
0.00840003
3.37054e-09
0.00840004
7.54974e-09
0.00840005
1.932e-08
0.00840007
4.32032e-08
0.00840013
1.1054e-07
0.00840027
2.46525e-07
0.00840059
6.32834e-07
0.00840147
1.40699e-06
0.00840331
3.6481e-06
0.00840881
8.09659e-06
0.00841965
2.14663e-05
0.00846157
4.88728e-05
0.00855402
0.000136163
0.0089484
0.000359818
0.0101004
0.00122987
0.00344056
0.0132588
0.00840003
9.74856e-14
0.00840003
1.10008e-12
0.00840003
2.75001e-12
0.00840003
9.96055e-12
0.00840003
2.00073e-11
0.00840003
6.2518e-11
0.00840003
1.2062e-10
0.00840003
3.64785e-10
0.00840003
6.98365e-10
0.00840003
2.09463e-09
0.00840003
4.00506e-09
0.00840004
1.19767e-08
0.00840006
2.28879e-08
0.00840008
6.83283e-08
0.00840018
1.3027e-07
0.00840034
3.88996e-07
0.0084009
7.37177e-07
0.00840187
2.22229e-06
0.00840513
4.12742e-06
0.00841038
1.31892e-05
0.00843319
2.29605e-05
0.00846815
8.51346e-05
0.00865337
0.000154278
0.00918478
0.000634902
0.00173781
0.010771
0.00840003
9.85173e-14
0.00840003
4.3976e-13
0.00840003
1.93258e-12
0.00840003
4.30871e-12
0.00840003
1.36606e-11
0.00840003
2.74808e-11
0.00840003
8.15979e-11
0.00840003
1.6084e-10
0.00840003
4.70212e-10
0.00840003
9.23313e-10
0.00840003
2.68799e-09
0.00840004
5.27693e-09
0.00840004
1.5341e-08
0.00840007
3.01242e-08
0.00840009
8.75784e-08
0.00840028
1.71867e-07
0.00840039
5.00764e-07
0.00840147
9.81663e-07
0.00840203
2.8799e-06
0.00840867
5.64983e-06
0.00841122
1.69956e-05
0.00845679
3.32913e-05
0.00848506
0.000108841
0.00885134
0.000234508
0.00084247
0.00969116
0.00840003
4.11581e-14
0.00840003
2.85215e-13
0.00840003
8.96899e-13
0.00840003
2.68392e-12
0.00840003
6.44078e-12
0.00840003
1.70032e-11
0.00840003
3.86786e-11
0.00840003
9.93502e-11
0.00840003
2.2328e-10
0.00840003
5.69934e-10
0.00840003
1.27701e-09
0.00840003
3.25422e-09
0.00840004
7.28391e-09
0.00840005
1.85452e-08
0.00840009
4.14741e-08
0.00840013
1.05531e-07
0.00840036
2.35734e-07
0.00840059
6.00432e-07
0.00840194
1.34062e-06
0.00840327
3.43921e-06
0.00841149
7.69659e-06
0.00841841
2.02134e-05
0.00847968
4.60643e-05
0.00855045
0.000126005
0.000332446
0.00903702
0.00840003
1.99511e-14
0.00840003
1.58864e-13
0.00840003
4.90348e-13
0.00840003
1.48334e-12
0.00840003
3.53106e-12
0.00840003
9.35468e-12
0.00840003
2.11781e-11
0.00840003
5.44876e-11
0.00840003
1.21972e-10
0.00840003
3.1151e-10
0.00840003
6.95395e-10
0.00840003
1.77182e-09
0.00840003
3.95185e-09
0.00840004
1.00564e-08
0.00840006
2.24153e-08
0.00840009
5.69855e-08
0.00840018
1.26871e-07
0.00840036
3.22442e-07
0.00840088
7.16311e-07
0.00840199
1.82741e-06
0.00840508
4.02903e-06
0.00841177
1.05822e-05
0.00843265
2.24929e-05
0.00847455
6.60947e-05
0.000141525
0.00864476
0.00840003
8.5411e-15
0.00840003
9.36606e-14
0.00840003
2.42512e-13
0.00840003
8.52713e-13
0.00840003
1.76206e-12
0.00840003
5.34119e-12
0.00840003
1.05803e-11
0.00840003
3.10031e-11
0.00840003
6.08664e-11
0.00840003
1.76827e-10
0.00840003
3.46411e-10
0.00840003
1.00413e-09
0.00840003
1.96559e-09
0.00840004
5.69643e-09
0.00840004
1.11427e-08
0.00840006
3.23238e-08
0.00840011
6.3141e-08
0.0084002
1.83645e-07
0.00840049
3.57744e-07
0.00840098
1.04682e-06
0.0084026
2.02849e-06
0.00840552
6.01543e-06
0.0084142
1.16381e-05
0.00843623
3.52085e-05
7.23195e-05
0.00849308
0.00840003
6.78689e-15
0.00840003
3.96787e-14
0.00840003
1.44667e-13
0.00840003
3.79425e-13
0.00840003
1.03354e-12
0.00840003
2.40491e-12
0.00840003
6.17811e-12
0.00840003
1.40096e-11
0.00840003
3.54988e-11
0.00840003
7.99908e-11
0.00840003
2.02038e-10
0.00840003
4.54412e-10
0.00840003
1.14734e-09
0.00840003
2.57861e-09
0.00840004
6.51556e-09
0.00840005
1.46355e-08
0.00840007
3.7033e-08
0.00840015
8.31171e-08
0.00840024
2.1079e-07
0.00840073
4.72654e-07
0.00840124
1.20374e-06
0.00840411
2.69814e-06
0.0084071
6.92909e-06
0.00842396
1.56815e-05
4.08571e-05
0.00844621
0.00840003
4.36459e-15
0.00840003
1.79627e-14
0.00840003
8.02509e-14
0.00840003
1.79276e-13
0.00840003
5.65111e-13
0.00840003
1.14613e-12
0.00840003
3.36553e-12
0.00840003
6.69204e-12
0.00840003
1.9315e-11
0.00840003
3.82425e-11
0.00840003
1.09846e-10
0.00840003
2.1739e-10
0.00840003
6.23206e-10
0.00840003
1.23441e-09
0.00840003
3.53301e-09
0.00840004
7.00875e-09
0.00840005
2.00196e-08
0.00840009
3.97774e-08
0.00840015
1.13365e-07
0.00840036
2.25375e-07
0.00840076
6.41547e-07
0.00840196
1.27403e-06
0.00840438
3.63576e-06
0.00841143
7.24288e-06
2.08284e-05
0.00842667
0.00840003
1.5358e-15
0.00840003
1.07324e-14
0.00840003
3.39722e-14
0.00840003
1.00407e-13
0.00840003
2.44074e-13
0.00840003
6.34431e-13
0.00840003
1.46207e-12
0.00840003
3.69414e-12
0.00840003
8.40679e-12
0.00840003
2.10935e-11
0.00840003
4.7849e-11
0.00840003
1.19838e-10
0.00840003
2.71599e-10
0.00840003
6.79705e-10
0.00840003
1.53992e-09
0.00840003
3.85076e-09
0.00840004
8.72083e-09
0.00840006
2.17853e-08
0.00840011
4.92962e-08
0.00840018
1.23044e-07
0.00840049
2.78007e-07
0.00840086
6.94565e-07
0.00840266
1.56559e-06
0.00840479
3.93664e-06
8.87185e-06
0.00841495
0.00840003
7.72006e-16
0.00840003
5.17492e-15
0.00840003
1.6389e-14
0.00840003
4.95739e-14
0.00840003
1.18478e-13
0.00840003
3.14201e-13
0.00840003
7.10963e-13
0.00840003
1.82961e-12
0.00840003
4.08819e-12
0.00840003
1.04375e-11
0.00840003
2.32513e-11
0.00840003
5.9201e-11
0.00840003
1.31778e-10
0.00840003
3.34947e-10
0.00840003
7.45338e-10
0.00840003
1.8911e-09
0.00840004
4.20643e-09
0.00840004
1.06519e-08
0.00840007
2.36741e-08
0.00840011
5.98447e-08
0.00840023
1.32823e-07
0.00840048
3.35508e-07
0.00840116
7.43224e-07
0.00840259
1.88303e-06
4.14863e-06
0.00840652
0.00840003
1.73771e-16
0.00840003
2.65201e-15
0.00840003
7.1962e-15
0.00840003
2.49994e-14
0.00840003
5.36052e-14
0.00840003
1.58854e-13
0.00840003
3.25186e-13
0.00840003
9.24436e-13
0.00840003
1.87266e-12
0.00840003
5.26554e-12
0.00840003
1.0648e-11
0.00840003
2.9806e-11
0.00840003
6.02837e-11
0.00840003
1.68219e-10
0.00840003
3.40384e-10
0.00840003
9.47229e-10
0.00840003
1.91682e-09
0.00840004
5.32271e-09
0.00840005
1.07627e-08
0.00840007
2.98613e-08
0.00840013
6.02629e-08
0.00840024
1.67426e-07
0.00840057
3.36836e-07
0.00840118
9.40613e-07
1.88175e-06
0.00840302
0.00840003
1.05899e-16
0.00840003
1.02313e-15
0.00840003
3.92099e-15
0.00840003
1.03762e-14
0.00840003
2.79698e-14
0.00840003
6.58922e-14
0.00840003
1.67183e-13
0.00840003
3.83371e-13
0.00840003
9.6021e-13
0.00840003
2.18709e-12
0.00840003
5.45309e-12
0.00840003
1.23918e-11
0.00840003
3.08285e-11
0.00840003
6.99689e-11
0.00840003
1.73801e-10
0.00840003
3.94046e-10
0.00840003
9.77613e-10
0.00840003
2.21394e-09
0.00840004
5.4891e-09
0.00840005
1.24155e-08
0.00840007
3.07946e-08
0.00840015
6.95716e-08
0.00840025
1.72938e-07
0.00840071
3.90398e-07
9.75666e-07
0.00840125
0.00840003
1.30402e-16
0.00840003
5.50178e-16
0.00840003
2.03288e-15
0.00840003
4.91214e-15
0.00840003
1.33528e-14
0.00840003
3.02615e-14
0.00840003
7.83356e-14
0.00840003
1.75016e-13
0.00840003
4.4673e-13
0.00840003
9.9501e-13
0.00840003
2.53249e-12
0.00840003
5.63352e-12
0.00840003
1.43006e-11
0.00840003
3.1783e-11
0.00840003
8.05181e-11
0.00840003
1.7881e-10
0.00840003
4.52257e-10
0.00840003
1.00358e-09
0.00840003
2.53543e-09
0.00840004
5.62259e-09
0.00840005
1.41966e-08
0.00840008
3.14678e-08
0.00840014
7.9462e-08
0.00840032
1.7607e-07
4.45215e-07
0.00840068
0.00840003
9.49761e-17
0.00840003
3.23499e-16
0.00840003
9.03899e-16
0.00840003
2.17575e-15
0.00840003
6.327e-15
0.00840003
1.31615e-14
0.00840003
3.6804e-14
0.00840003
7.549e-14
0.00840003
2.09903e-13
0.00840003
4.30434e-13
0.00840003
1.18884e-12
0.00840003
2.43655e-12
0.00840003
6.70587e-12
0.00840003
1.37418e-11
0.00840003
3.77154e-11
0.00840003
7.72669e-11
0.00840003
2.11632e-10
0.00840003
4.33332e-10
0.00840003
1.1858e-09
0.00840003
2.42616e-09
0.00840004
6.64115e-09
0.00840005
1.35765e-08
0.00840008
3.72088e-08
0.00840016
7.60002e-08
2.08655e-07
0.00840032
0.00840003
-8.4622e-17
0.00840003
-6.05527e-17
0.00840003
1.57914e-16
0.00840003
9.01839e-16
0.00840003
2.139e-15
0.00840003
5.91674e-15
0.00840003
1.38909e-14
0.00840003
3.56295e-14
0.00840003
8.19429e-14
0.00840003
2.04315e-13
0.00840003
4.67327e-13
0.00840003
1.15777e-12
0.00840003
2.64198e-12
0.00840003
6.52744e-12
0.00840003
1.48733e-11
0.00840003
3.66834e-11
0.00840003
8.34814e-11
0.00840003
2.05669e-10
0.00840003
4.67583e-10
0.00840003
1.15151e-09
0.00840004
2.61653e-09
0.00840004
6.44618e-09
0.00840006
1.46476e-08
0.00840008
3.61199e-08
8.21089e-08
0.00840019
0.00840003
1.15278e-16
0.00840003
2.16732e-16
0.00840003
2.65331e-16
0.00840003
5.47387e-16
0.00840003
1.25334e-15
0.00840003
2.84671e-15
0.00840003
6.18806e-15
0.00840003
1.55448e-14
0.00840003
3.45815e-14
0.00840003
8.86492e-14
0.00840003
1.97784e-13
0.00840003
5.03197e-13
0.00840003
1.11927e-12
0.00840003
2.83919e-12
0.00840003
6.30545e-12
0.00840003
1.59578e-11
0.00840003
3.54039e-11
0.00840003
8.94399e-11
0.00840003
1.98242e-10
0.00840003
5.00329e-10
0.00840003
1.10817e-09
0.00840003
2.79665e-09
0.00840004
6.1924e-09
0.00840005
1.56369e-08
3.46299e-08
0.00840009
0.00840003
-7.45931e-17
0.00840003
-5.0822e-17
0.00840003
3.277e-17
0.00840003
7.14218e-17
0.00840003
2.9577e-16
0.00840003
8.12501e-16
0.00840003
2.26633e-15
0.00840003
6.28699e-15
0.00840003
1.39554e-14
0.00840003
3.85554e-14
0.00840003
8.05994e-14
0.00840003
2.19623e-13
0.00840003
4.55433e-13
0.00840003
1.23782e-12
0.00840003
2.56699e-12
0.00840003
6.95587e-12
0.00840003
1.44261e-11
0.00840003
3.89803e-11
0.00840003
8.0818e-11
0.00840003
2.17899e-10
0.00840003
4.51601e-10
0.00840003
1.21623e-09
0.00840004
2.51998e-09
0.00840004
6.78648e-09
1.40604e-08
0.00840006
0.00840003
8.91214e-17
0.00840003
1.59269e-16
0.00840003
1.63308e-16
0.00840003
1.36826e-16
0.00840003
1.99141e-16
0.00840003
4.30889e-16
0.00840003
9.2103e-16
0.00840003
2.44553e-15
0.00840003
6.46442e-15
0.00840003
1.36506e-14
0.00840003
3.62075e-14
0.00840003
7.69229e-14
0.00840003
2.05366e-13
0.00840003
4.35209e-13
0.00840003
1.15705e-12
0.00840003
2.45353e-12
0.00840003
6.50161e-12
0.00840003
1.37839e-11
0.00840003
3.64276e-11
0.00840003
7.71815e-11
0.00840003
2.03493e-10
0.00840003
4.30951e-10
0.00840003
1.13434e-09
0.00840004
2.40206e-09
6.31807e-09
0.00840004
0.00840003
1.34631e-16
0.00840003
2.86419e-16
0.00840003
4.36798e-16
0.00840003
5.55491e-16
0.00840003
6.6139e-16
0.00840003
8.22286e-16
0.00840003
1.01847e-15
0.00840003
1.50254e-15
0.00840003
2.46867e-15
0.00840003
5.66927e-15
0.00840003
1.19624e-14
0.00840003
2.88976e-14
0.00840003
6.52651e-14
0.00840003
1.60538e-13
0.00840003
3.68206e-13
0.00840003
9.0464e-13
0.00840003
2.07616e-12
0.00840003
5.08666e-12
0.00840003
1.16599e-11
0.00840003
2.85057e-11
0.00840003
6.52444e-11
0.00840003
1.59199e-10
0.00840003
3.63876e-10
0.00840003
8.86651e-10
2.02471e-09
0.00840004
0.00840003
0.00840003
0.00840003
0.00840003
0.00840003
0.00840003
0.00840003
0.00840003
0.00840003
0.00840003
0.00840003
0.00840003
0.00840003
0.00840003
0.00840003
0.00840003
0.00840003
0.00840003
0.00840003
0.00840003
0.00840003
0.00840003
0.00840003
0.00840003
0.00840003
0.00456545
0.00396663
0.00299899
0.00156785
0.00232883
0.000665733
0.00206059
0.00025831
0.00202279
2.54551e-05
0.00215379
-0.000145842
0.00232379
-0.000186961
0.00243839
-0.000131885
0.00248472
-6.3822e-05
0.00248408
-1.6801e-05
0.00245602
1.14165e-05
0.00242759
1.25722e-05
0.00241338
-1.43115e-06
0.00241136
-1.31984e-05
0.0024157
-1.96248e-05
0.00242256
-2.11775e-05
0.00242936
-2.01387e-05
0.00243416
-1.84622e-05
0.00243847
-1.74279e-05
0.00244341
-1.72924e-05
0.00244957
-1.77348e-05
0.00245679
-1.82537e-05
0.00246441
-1.85495e-05
0.00247172
-1.8527e-05
0.0024782
-1.8239e-05
0.00248358
-1.77829e-05
0.00248777
-1.72463e-05
0.00249072
-1.66852e-05
0.00249245
-1.6131e-05
0.002493
-1.55977e-05
0.00249246
-1.50887e-05
0.00249098
-1.46004e-05
0.00248875
-1.41234e-05
0.00248596
-1.36463e-05
0.00248284
-1.31589e-05
0.00247952
-1.26562e-05
0.00247609
-1.21386e-05
0.0024725
-1.16051e-05
0.00246868
-1.10551e-05
0.00246447
-1.04993e-05
0.00245973
-9.94986e-06
0.00245433
-9.40799e-06
0.00244827
-8.88201e-06
0.00244154
-8.3722e-06
0.00243424
-7.86827e-06
0.00242653
-7.38461e-06
0.0024185
-6.90767e-06
0.00241033
-6.43369e-06
0.00240213
-5.9691e-06
0.00239403
-5.52496e-06
0.0023862
-5.06978e-06
0.00237871
-4.61818e-06
0.00237172
-4.17389e-06