/*--------------------------------*- C++ -*----------------------------------*\
| =========                 |                                                 |
| \\      /  F ield         | OpenFOAM: The Open Source CFD Toolbox           |
|  \\    /   O peration     | Version:  2112                                  |
|   \\  /    A nd           | Website:  www.openfoam.com                      |
|    \\/     M anipulation  |                                                 |
\*---------------------------------------------------------------------------*/
FoamFile
{
    version     2.0;
    format      ascii;
    arch        "LSB;label=32;scalar=64";
    class       volScalarField;
    location    "1";
    object      T;
}
// * * * * * * * * * * * * * * * * * * * * * * * * * * * * * * * * * * * * * //

dimensions      [0 0 0 1 0 0 0];

internalField   nonuniform List<scalar> 
5250
(
1
1.00001
1.00002
1.00004
1.00013
1.00023
1.00073
1.00133
1.00414
1.00811
1.02263
1.05508
1.13159
1.39094
2.08728
2.71012
2.76777
2.76591
2.77143
2.80274
2.82047
2.8516
2.86549
2.87695
3.08793
1
1.00001
1.00002
1.00004
1.00012
1.00022
1.00072
1.00131
1.00409
1.00799
1.02238
1.05396
1.1299
1.38231
2.07221
2.69929
2.7673
2.76583
2.77108
2.80174
2.81924
2.85003
2.86334
2.87457
3.08593
1
1.00001
1.00002
1.00004
1.00012
1.00022
1.0007
1.00128
1.00398
1.00775
1.02191
1.05165
1.12671
1.36425
2.04164
2.67067
2.76495
2.76492
2.7698
2.79943
2.81668
2.84693
2.86014
2.87094
3.08018
1
1.00001
1.00002
1.00004
1.00012
1.00021
1.00067
1.00123
1.00384
1.00741
1.02122
1.04873
1.1221
1.34049
1.99901
2.6212
2.7636
2.764
2.76705
2.79462
2.81146
2.8404
2.85233
2.86308
3.07157
1
1.00001
1.00002
1.00003
1.00011
1.0002
1.00064
1.00117
1.00366
1.00704
1.02024
1.04591
1.11599
1.31732
1.93977
2.56627
2.7662
2.76243
2.76208
2.78627
2.80208
2.83005
2.84437
2.85156
3.05106
1
1
1.00002
1.00003
1.0001
1.00019
1.0006
1.0011
1.00345
1.0066
1.01912
1.04292
1.10908
1.29548
1.87379
2.54454
2.75843
2.75415
2.75255
2.77645
2.79404
2.81812
2.82692
2.83669
3.03419
1
1
1.00002
1.00003
1.00009
1.00017
1.00055
1.001
1.00318
1.00605
1.01766
1.03964
1.10007
1.27529
1.80262
2.50196
2.74554
2.74363
2.74227
2.76524
2.77963
2.79747
2.81306
2.81616
2.99589
1
1
1.00001
1.00003
1.00008
1.00015
1.00049
1.00089
1.00279
1.00546
1.01511
1.03706
1.0872
1.25823
1.68111
2.4642
2.73059
2.72935
2.73379
2.75495
2.76835
2.78292
2.78756
2.79187
2.9598
1
1
1.00001
1.00002
1.00007
1.00013
1.00042
1.00077
1.00232
1.00483
1.0128
1.03356
1.07679
1.23658
1.58622
2.38346
2.70557
2.72372
2.72376
2.7307
2.74794
2.75438
2.75583
2.74268
2.87519
1
1
1.00001
1.00002
1.00006
1.00011
1.00034
1.00066
1.00185
1.00423
1.01038
1.0294
1.06445
1.20969
1.49784
2.24467
2.65373
2.71509
2.71343
2.71369
2.72014
2.72061
2.71976
2.69424
2.77714
1
1
1.00001
1.00002
1.00004
1.00012
1.00023
1.00067
1.00144
1.0037
1.00957
1.02223
1.06644
1.14196
1.46645
2.20045
2.57477
2.68322
2.68826
2.69488
2.69881
2.69032
2.66779
2.60405
2.52301
1
1
1.00001
1.00001
1.00004
1.00008
1.00024
1.00047
1.00133
1.00299
1.00735
1.02032
1.04559
1.14134
1.32536
1.94577
2.5126
2.66391
2.6579
2.65699
2.65394
2.64111
2.60778
2.52043
2.3933
1
1
1.00001
1.00001
1.00004
1.00007
1.00022
1.0004
1.00128
1.00236
1.00727
1.01483
1.03975
1.10253
1.25252
1.67238
2.45101
2.62592
2.61889
2.62227
2.61927
2.60606
2.57027
2.49129
2.3397
1
1
1.00001
1.00001
1.00003
1.00005
1.00018
1.00032
1.00103
1.00189
1.00583
1.01177
1.03208
1.083
1.19488
1.57344
2.35907
2.59867
2.60915
2.60349
2.5897
2.56746
2.5289
2.46734
2.33876
1
1
1
1.00001
1.00002
1.00004
1.00014
1.00025
1.00081
1.00151
1.00444
1.00948
1.02435
1.06709
1.14742
1.47402
2.1748
2.52435
2.59417
2.58173
2.57062
2.54509
2.49843
2.44637
2.34063
1
1
1
1.00001
1.00002
1.00003
1.00011
1.0002
1.00065
1.00119
1.00374
1.00724
1.02054
1.04851
1.11712
1.33934
1.92173
2.41766
2.56864
2.56025
2.54239
2.51844
2.47012
2.42982
2.34726
1
1
1
1
1.00001
1.00003
1.00009
1.00015
1.0005
1.0009
1.00286
1.0054
1.01604
1.03444
1.09115
1.23241
1.69475
2.24103
2.50087
2.51333
2.50625
2.49098
2.44708
2.40187
2.34198
1
1
1
1
1.00001
1.00002
1.00006
1.00011
1.00036
1.00066
1.00202
1.00398
1.01107
1.02625
1.06434
1.18364
1.45636
2.09152
2.44066
2.48042
2.46367
2.45334
2.42684
2.37277
2.32173
1
1
1
1
1.00001
1.00001
1.00005
1.00008
1.00026
1.00048
1.00149
1.0029
1.00802
1.01891
1.046
1.13286
1.31372
1.81096
2.31786
2.44823
2.44424
2.42426
2.40567
2.36284
2.30622
1
1
1
1
1
1.00001
1.00002
1.00008
1.00014
1.00045
1.00085
1.00259
1.0051
1.01456
1.03212
1.08491
1.20849
1.63726
2.11561
2.38061
2.39821
2.38774
2.3621
2.3393
2.29347
1
1
1
1
1
1.00001
1.00002
1.00006
1.0001
1.00032
1.00059
1.00184
1.00349
1.01027
1.02218
1.05616
1.14863
1.3857
1.90239
2.27805
2.36675
2.36429
2.34388
2.304
2.27033
1
1
1
1
1
1
1.00002
1.00003
1.00009
1.00016
1.0005
1.00097
1.00285
1.00583
1.01593
1.03673
1.0944
1.237
1.71352
2.10853
2.29017
2.32994
2.32321
2.29838
2.25217
1
1
1
1
1
1
1.00001
1.00002
1.00004
1.00014
1.00026
1.00077
1.00152
1.00414
1.00961
1.02306
1.06559
1.13855
1.44096
2.01173
2.21595
2.25388
2.27252
2.26869
2.24581
1
1
1
1
1
1
1.00001
1.00001
1.00004
1.00007
1.00022
1.0004
1.00121
1.00242
1.00649
1.01555
1.03691
1.10518
1.23863
1.66654
2.10866
2.22959
2.23448
2.22799
2.21781
1
1
1
1
1
1
1
1.00001
1.00002
1.00004
1.00014
1.00026
1.00081
1.0015
1.00448
1.00922
1.02419
1.06325
1.14073
1.41459
1.94094
2.16767
2.21065
2.21036
2.19584
1
1
1
1
1
1
1
1
1.00002
1.00003
1.00009
1.00016
1.00051
1.00095
1.00291
1.00563
1.01598
1.03574
1.08988
1.23338
1.64951
2.02179
2.16759
2.17798
2.16942
1
1
1
1
1
1
1
1
1.00001
1.00002
1.00004
1.00013
1.00024
1.00072
1.00138
1.0039
1.00855
1.02122
1.05774
1.12409
1.37942
1.86136
2.08788
2.14354
2.14694
1
1
1
1
1
1
1
1
1
1.00001
1.00003
1.00008
1.00015
1.00046
1.00085
1.00261
1.00495
1.01431
1.03005
1.0796
1.18829
1.54951
1.91679
2.09248
2.1111
1
1
1
1
1
1
1
1
1
1.00001
1.00002
1.00005
1.00009
1.00027
1.0005
1.00153
1.00291
1.00836
1.01796
1.04562
1.11357
1.29319
1.66817
1.99891
2.08099
1
1
1
1
1
1
1
1
1
1
1.00001
1.00002
1.00006
1.00012
1.00037
1.0007
1.00208
1.00408
1.01155
1.0243
1.0664
1.14806
1.45692
1.78232
2.00871
1
1
1
1
1
1
1
1
1
1
1.00001
1.00001
1.00004
1.00007
1.00021
1.00038
1.00118
1.00221
1.00647
1.0134
1.03473
1.08504
1.2064
1.52652
1.86212
1
1
1
1
1
1
1
1
1
1
1
1.00001
1.00002
1.00004
1.00012
1.00021
1.00065
1.00121
1.00356
1.0073
1.01874
1.04835
1.10543
1.31
1.70265
1
1
1
1
1
1
1
1
1
1
1
1
1.00001
1.00003
1.00005
1.00014
1.00027
1.00081
1.00156
1.00454
1.00936
1.02456
1.05975
1.14421
1.36388
1
1
1
1
1
1
1
1
1
1
1
1
1.00001
1.00001
1.00003
1.00006
1.00018
1.00034
1.00102
1.00199
1.00556
1.01205
1.02986
1.07447
1.17937
1
1
1
1
1
1
1
1
1
1
1
1
1
1.00001
1.00002
1.00003
1.0001
1.00018
1.00056
1.00102
1.00309
1.00604
1.01611
1.03931
1.08649
1
1
1
1
1
1
1
1
1
1
1
1
1
1
1.00001
1.00002
1.00005
1.00009
1.00029
1.00053
1.00163
1.00308
1.00908
1.01818
1.05121
1
1
1
1
1
1
1
1
1
1
1
1
1
1
1
1.00001
1.00002
1.00006
1.00011
1.00034
1.00064
1.00187
1.00371
1.01019
1.02191
1
1
1
1
1
1
1
1
1
1
1
1
1
1
1
1.00001
1.00001
1.00003
1.00006
1.00017
1.00031
1.00094
1.00177
1.00512
1.01018
1
1
1
1
1
1
1
1
1
1
1
1
1
1
1
1
1.00001
1.00001
1.00003
1.00006
1.00019
1.00035
1.00103
1.002
1.00565
1
1
1
1
1
1
1
1
1
1
1
1
1
1
1
1
1
1.00001
1.00002
1.00003
1.00009
1.00017
1.00051
1.00093
1.00279
1
1
1
1
1
1
1
1
1
1
1
1
1
1
1
1
1
1
1.00001
1.00001
1.00004
1.00008
1.00024
1.00043
1.00131
1
1
1
1
1
1
1
1
1
1
1
1
1
1
1
1
1
1
1
1.00001
1.00001
1.00004
1.00008
1.00025
1.00047
1
1
1
1
1
1
1
1
1
1
1
1
1
1
1
1
1
1
1
1
1.00001
1.00002
1.00004
1.00011
1.00021
1
1
1
1
1
1
1
1
1
1
1
1
1
1
1
1
1
1
1
1
1
1.00001
1.00002
1.00005
1.00009
1
1
1
1
1
1
1
1
1
1
1
1
1
1
1
1
1
1
1
1
1
1
1.00001
1.00002
1.00005
1
1
1
1
1
1
1
1
1
1
1
1
1
1
1
1
1
1
1
1
1
1
1
1.00001
1.00002
1
1
1
1
1
1
1
1
1
1
1
1
1
1
1
1
1
1
1
1
1
1
1
1
1.00001
1
1
1
1
1
1
1
1
1
1
1
1
1
1
1
1
1
1
1
1
1
1
1
1
1
1
1
1
1
1
1
1
1
1
1
1
1
1
1
1
1
1
1
1
1
1
1
1
1
1
1
1
1
1
1
1
1
1
1
1
1
1
1
1
1
1
1
1
1
1
1
1
1
1
1
2.4915
2.38826
2.38998
2.41825
2.51298
2.56194
2.62828
2.65583
2.67816
2.67945
2.68423
2.68751
2.6947
2.70184
2.70871
2.71403
2.71557
2.7153
2.71427
2.71201
2.70851
2.70399
2.69888
2.69357
2.68839
2.68348
2.67888
2.67462
2.67072
2.66724
2.6642
2.66154
2.65915
2.65688
2.65454
2.65196
2.64911
2.64597
2.64267
2.63938
2.63638
2.63376
2.63176
2.6303
2.62947
2.62903
2.62898
2.62903
2.6291
2.62911
2.62896
2.62851
2.62757
2.62601
2.62393
2.62131
2.61796
2.61419
2.60999
2.60502
2.59959
2.59408
2.58696
2.57976
2.57165
2.56284
2.55393
2.54466
2.53581
2.52636
2.51876
2.51214
2.50478
2.49726
2.49033
2.48403
2.47772
2.47156
2.46605
2.46155
2.45779
2.45507
2.45356
2.4534
2.4541
2.4565
2.46243
2.46863
2.47396
2.47544
2.47604
2.47464
2.47135
2.45648
2.43972
2.39014
2.35484
2.26722
2.22343
2.08936
2.32155
2.2533
2.21662
2.18808
2.16085
2.12411
2.11294
2.1177
2.12582
2.14988
2.16112
2.18367
2.18536
2.1895
2.19049
2.19069
2.19114
2.19146
2.19134
2.19069
2.18907
2.18655
2.18339
2.1797
2.17559
2.17134
2.16709
2.16312
2.15948
2.15621
2.15331
2.15073
2.14843
2.14637
2.14444
2.14257
2.14071
2.13876
2.13665
2.13444
2.13224
2.1301
2.12812
2.12653
2.12561
2.1254
2.12549
2.12582
2.12664
2.12791
2.1295
2.13139
2.13332
2.13546
2.13759
2.13953
2.14133
2.14269
2.14353
2.14383
2.14378
2.14341
2.14235
2.14054
2.13892
2.13676
2.13412
2.13207
2.1286
2.12402
2.12026
2.11629
2.11165
2.10689
2.10259
2.09896
2.0953
2.09141
2.08754
2.08374
2.07994
2.07599
2.07236
2.06892
2.06582
2.06305
2.06137
2.06089
2.06122
2.06256
2.06586
2.0685
2.07072
2.07079
2.07047
2.06706
2.06262
2.04556
2.03383
1.98044
2.27131
2.20809
2.14665
2.08319
2.01484
1.96739
1.93147
1.93166
1.93636
1.9454
1.96675
1.97484
1.99048
1.99135
1.99416
1.99494
1.99464
1.99388
1.99279
1.99152
1.99008
1.98845
1.98657
1.98439
1.98189
1.97913
1.97624
1.97333
1.97051
1.96779
1.9652
1.96279
1.96056
1.9585
1.95656
1.95471
1.9529
1.9511
1.94927
1.94743
1.94573
1.94443
1.94375
1.94361
1.94371
1.9441
1.94504
1.94651
1.9481
1.94982
1.95166
1.95342
1.95522
1.9572
1.95937
1.96197
1.96489
1.96794
1.97122
1.97438
1.97694
1.97905
1.98071
1.98163
1.98203
1.98209
1.98191
1.98148
1.98105
1.98012
1.97844
1.97782
1.97633
1.97445
1.97224
1.97075
1.96889
1.96706
1.96546
1.96369
1.9624
1.96021
1.95857
1.95612
1.95417
1.95149
1.9498
1.9478
1.94694
1.94525
1.94432
1.94238
1.94147
1.9392
1.9375
1.93184
1.92657
1.9099
1.90002
1.85699
2.23797
2.16276
2.0916
2.02726
1.97125
1.9239
1.88519
1.85864
1.83962
1.83597
1.8385
1.84429
1.85146
1.8609
1.86802
1.86979
1.8723
1.87224
1.8715
1.86973
1.86775
1.86581
1.86381
1.86162
1.85906
1.85608
1.85272
1.84914
1.84552
1.84206
1.8389
1.83615
1.83386
1.83202
1.83064
1.82976
1.82937
1.82933
1.82942
1.82971
1.83029
1.83098
1.83165
1.83209
1.83219
1.83207
1.83157
1.83062
1.82996
1.82981
1.82989
1.83021
1.83108
1.833
1.83613
1.84003
1.84448
1.84906
1.85332
1.85718
1.86057
1.86303
1.86457
1.86569
1.86651
1.86705
1.86764
1.86864
1.86971
1.87067
1.87232
1.87372
1.87444
1.87524
1.87573
1.87625
1.87656
1.8766
1.87659
1.87659
1.87663
1.87655
1.87635
1.87565
1.87489
1.87287
1.87127
1.86775
1.86557
1.86115
1.85906
1.85493
1.85295
1.84841
1.84551
1.83792
1.83248
1.81658
1.80761
1.77084
2.23975
2.15421
2.08352
2.01844
1.95957
1.90715
1.86005
1.82067
1.78634
1.76487
1.75055
1.75059
1.75272
1.75775
1.76107
1.76894
1.77006
1.77243
1.77346
1.77303
1.77174
1.7692
1.76628
1.76305
1.75964
1.75612
1.75258
1.74918
1.74616
1.74378
1.7421
1.74108
1.74066
1.74065
1.74083
1.74141
1.74233
1.74319
1.74393
1.74443
1.74457
1.74449
1.7441
1.7432
1.74238
1.74208
1.7421
1.74225
1.74269
1.74372
1.74583
1.74895
1.75287
1.75742
1.76238
1.76746
1.77242
1.77696
1.78082
1.78394
1.78623
1.78794
1.78932
1.7904
1.79121
1.79224
1.79374
1.7957
1.79794
1.80069
1.8034
1.80605
1.80865
1.81109
1.81232
1.81404
1.8162
1.81743
1.81879
1.81977
1.82077
1.82124
1.82138
1.82117
1.82065
1.81899
1.81755
1.81434
1.81245
1.80856
1.8066
1.80242
1.80009
1.79449
1.7907
1.78104
1.77438
1.75609
1.74601
1.70762
2.25017
2.1617
2.08771
2.02196
1.9628
1.9099
1.86181
1.82125
1.78512
1.75476
1.73041
1.71197
1.7018
1.69631
1.69667
1.6978
1.69934
1.70093
1.70113
1.70078
1.69964
1.697
1.69256
1.68738
1.68241
1.67806
1.67437
1.67136
1.66919
1.66784
1.66717
1.66697
1.667
1.66719
1.66761
1.66799
1.66828
1.66845
1.66846
1.66835
1.66797
1.66736
1.66702
1.66698
1.66706
1.6673
1.66788
1.66905
1.67085
1.67326
1.67633
1.68
1.68421
1.68878
1.6935
1.69815
1.7025
1.70653
1.71005
1.71316
1.7158
1.71811
1.7201
1.72254
1.72486
1.72753
1.73051
1.73436
1.73791
1.74164
1.74567
1.74981
1.75273
1.75573
1.75901
1.76163
1.76356
1.76572
1.76799
1.76961
1.77116
1.77214
1.77264
1.77259
1.77233
1.77119
1.77002
1.76726
1.76547
1.76159
1.7594
1.75458
1.75174
1.74499
1.74053
1.72947
1.72215
1.70284
1.69245
1.65401
2.26291
2.18007
2.10217
2.03267
1.97161
1.9173
1.86859
1.82484
1.78651
1.75223
1.7228
1.69751
1.67711
1.66278
1.6543
1.64999
1.64876
1.64865
1.6485
1.64807
1.64702
1.64523
1.64234
1.63859
1.63413
1.6297
1.62563
1.62205
1.619
1.61648
1.61447
1.61283
1.61143
1.61022
1.60912
1.60806
1.60692
1.60563
1.60423
1.60285
1.60165
1.60073
1.60021
1.60011
1.60019
1.60053
1.60136
1.60301
1.60542
1.60859
1.61253
1.61711
1.62214
1.62737
1.63258
1.63758
1.64221
1.64638
1.65007
1.65341
1.65636
1.65918
1.66181
1.66476
1.66781
1.6715
1.67529
1.67991
1.68431
1.68878
1.69295
1.69733
1.70107
1.70438
1.70754
1.71065
1.71423
1.71667
1.71912
1.72173
1.72406
1.72572
1.72694
1.72733
1.72741
1.72703
1.72636
1.72449
1.72312
1.71994
1.718
1.71343
1.71043
1.70302
1.69788
1.68504
1.67652
1.65455
1.64305
1.6019
2.2588
2.18809
2.1182
2.05118
1.98997
1.93309
1.88262
1.83627
1.79476
1.75829
1.72567
1.69806
1.67369
1.65337
1.63632
1.62374
1.61559
1.61053
1.60766
1.60613
1.6048
1.60355
1.60188
1.59966
1.59692
1.59358
1.59004
1.58661
1.58346
1.58064
1.57822
1.5762
1.57441
1.57265
1.57082
1.56894
1.56702
1.56502
1.56296
1.56092
1.55902
1.55737
1.55612
1.55545
1.55534
1.55544
1.55585
1.55688
1.5589
1.56161
1.56488
1.56857
1.57254
1.5766
1.58058
1.5843
1.58772
1.5908
1.59366
1.59647
1.59932
1.60232
1.60556
1.60942
1.61365
1.61827
1.62285
1.62787
1.6326
1.63714
1.64153
1.64613
1.65031
1.65423
1.65836
1.66233
1.66679
1.67047
1.67441
1.67793
1.68146
1.68365
1.68599
1.68733
1.68828
1.68851
1.68852
1.68789
1.68714
1.68495
1.68324
1.67872
1.67531
1.6667
1.66061
1.64562
1.63579
1.61147
1.59932
1.55606
2.24965
2.18725
2.12505
2.0643
2.00676
1.95233
1.90169
1.85498
1.81217
1.77291
1.737
1.70523
1.67711
1.65265
1.63133
1.61324
1.59796
1.58656
1.5786
1.57308
1.56935
1.56686
1.56489
1.56313
1.56142
1.55953
1.55735
1.55485
1.55223
1.54963
1.54709
1.54469
1.54249
1.54046
1.53846
1.53639
1.5343
1.53222
1.53019
1.52826
1.52649
1.52493
1.52369
1.52293
1.52273
1.52279
1.52309
1.52391
1.52564
1.52811
1.53102
1.53414
1.53721
1.54002
1.54246
1.54454
1.5463
1.54776
1.54902
1.55025
1.55156
1.55315
1.5552
1.55806
1.56156
1.56575
1.57036
1.57587
1.58146
1.58723
1.59306
1.59917
1.60498
1.61041
1.61591
1.6211
1.62656
1.63145
1.63624
1.64047
1.64459
1.64792
1.65111
1.65338
1.65567
1.65696
1.65853
1.65893
1.65907
1.65774
1.656
1.6509
1.64665
1.63589
1.6282
1.60977
1.5982
1.57072
1.55762
1.50987
2.24196
2.18603
2.12894
2.07352
2.01997
1.96943
1.92137
1.87646
1.83447
1.79527
1.75927
1.72553
1.69457
1.6663
1.64101
1.61877
1.59953
1.58277
1.56846
1.5571
1.54867
1.54277
1.53874
1.53604
1.53416
1.53264
1.53116
1.52948
1.52743
1.52505
1.52249
1.51982
1.51711
1.5145
1.512
1.50956
1.50722
1.50506
1.50299
1.50099
1.49913
1.49752
1.49625
1.49545
1.49522
1.49528
1.49557
1.49634
1.49781
1.49963
1.50164
1.50363
1.50543
1.50692
1.5081
1.50895
1.50958
1.51013
1.51063
1.51126
1.51213
1.51349
1.51547
1.51837
1.52198
1.52628
1.5309
1.53655
1.54226
1.54829
1.55434
1.56102
1.56754
1.57359
1.58003
1.58639
1.59317
1.5996
1.60621
1.61233
1.6189
1.62475
1.63091
1.63605
1.64137
1.64526
1.64889
1.65052
1.65121
1.65002
1.64771
1.64073
1.63481
1.62046
1.61066
1.588
1.57477
1.54405
1.53049
1.47582
2.22097
2.1786
2.12804
2.07712
2.02803
1.98093
1.93602
1.89378
1.85366
1.81608
1.78063
1.7473
1.7164
1.68738
1.66075
1.63583
1.61296
1.59221
1.57361
1.5574
1.54384
1.53307
1.52514
1.51953
1.51552
1.51268
1.51047
1.50843
1.5064
1.50433
1.50196
1.49936
1.49668
1.49391
1.49109
1.48831
1.48564
1.48317
1.48099
1.47905
1.47728
1.4757
1.4744
1.4735
1.47309
1.47306
1.47317
1.47353
1.4743
1.47523
1.47615
1.47689
1.47725
1.47727
1.4771
1.47651
1.47573
1.47544
1.47548
1.47571
1.47637
1.47781
1.48017
1.48353
1.48767
1.49248
1.4978
1.50396
1.51026
1.51733
1.52437
1.5313
1.53902
1.54685
1.55572
1.56485
1.57548
1.58626
1.59825
1.60993
1.62284
1.63429
1.64638
1.65652
1.66581
1.67215
1.67686
1.67851
1.67857
1.67531
1.67095
1.65932
1.65054
1.63098
1.61867
1.59192
1.57582
1.54016
1.52744
1.46347
2.20958
2.15797
2.11927
2.07523
2.03017
1.98694
1.94535
1.90561
1.86771
1.83185
1.79754
1.76517
1.73419
1.70494
1.67723
1.65111
1.6267
1.60413
1.58364
1.56512
1.54888
1.53472
1.52296
1.51337
1.50587
1.50032
1.49605
1.49289
1.49052
1.48845
1.48669
1.48498
1.48305
1.48098
1.47871
1.47626
1.47371
1.47116
1.46866
1.46635
1.46431
1.46251
1.46093
1.45962
1.45862
1.45791
1.45743
1.45709
1.4568
1.45643
1.4558
1.45473
1.4532
1.45139
1.44949
1.44766
1.44621
1.44553
1.4455
1.44574
1.44653
1.44834
1.45135
1.4554
1.46037
1.4661
1.47248
1.47987
1.48746
1.49578
1.50523
1.51622
1.52946
1.54375
1.56111
1.5789
1.60015
1.62202
1.64529
1.66766
1.69086
1.70953
1.72468
1.73321
1.7393
1.73893
1.73693
1.73078
1.72431
1.71124
1.70229
1.684
1.67326
1.64975
1.6368
1.60836
1.59388
1.55691
1.54933
1.47875
2.20516
2.15846
2.10897
2.06837
2.02802
1.98781
1.94929
1.91215
1.87644
1.84248
1.80979
1.7787
1.74877
1.72012
1.69264
1.66646
1.64167
1.6182
1.59634
1.57623
1.55766
1.54116
1.52643
1.51371
1.503
1.49418
1.48737
1.48231
1.47865
1.47624
1.47456
1.47335
1.47234
1.47115
1.4697
1.46796
1.46588
1.46352
1.461
1.45843
1.45591
1.45349
1.45122
1.44916
1.44731
1.4457
1.4442
1.44271
1.44113
1.43934
1.43724
1.43478
1.43199
1.42909
1.42632
1.42385
1.42193
1.42099
1.42091
1.42117
1.42205
1.4241
1.42766
1.43241
1.43914
1.44651
1.45507
1.46583
1.47913
1.49529
1.51608
1.53915
1.56644
1.59688
1.63172
1.66885
1.70155
1.72537
1.74233
1.74998
1.75175
1.74872
1.74309
1.73472
1.7266
1.71313
1.70527
1.68812
1.67891
1.6599
1.64985
1.62867
1.61764
1.5939
1.58203
1.55651
1.54496
1.51613
1.50929
1.46057
2.19386
2.15601
2.11157
2.06558
2.02608
1.98744
1.95054
1.91542
1.88186
1.84968
1.81857
1.78875
1.75989
1.73225
1.70557
1.67994
1.65543
1.63201
1.60979
1.58894
1.56947
1.55153
1.53505
1.52022
1.50705
1.49557
1.48613
1.47853
1.47284
1.46881
1.466
1.46428
1.46305
1.46203
1.46099
1.45974
1.45812
1.45607
1.45363
1.45094
1.44811
1.44523
1.44236
1.43949
1.43678
1.43417
1.43166
1.42913
1.42642
1.42351
1.42037
1.41693
1.41328
1.40971
1.40643
1.40358
1.40141
1.40048
1.40053
1.40105
1.40253
1.40598
1.41162
1.41929
1.42886
1.4424
1.46017
1.48502
1.51386
1.5492
1.59035
1.63794
1.68377
1.71292
1.73198
1.73672
1.73608
1.73176
1.72688
1.71853
1.71209
1.70086
1.69376
1.67867
1.67067
1.65354
1.64446
1.62551
1.61579
1.59569
1.58564
1.56466
1.55397
1.53178
1.52082
1.49789
1.48742
1.46406
1.45514
1.4244
2.17682
2.14865
2.11106
2.07007
2.02704
1.98917
1.95223
1.91729
1.88442
1.85334
1.82378
1.79538
1.76802
1.7415
1.71585
1.69103
1.66711
1.64429
1.62251
1.60186
1.5823
1.56384
1.54649
1.53027
1.51548
1.50224
1.49052
1.48068
1.47266
1.46627
1.46145
1.45779
1.45516
1.4532
1.45155
1.44994
1.44829
1.44634
1.44399
1.44121
1.43811
1.43484
1.43145
1.42804
1.42462
1.42126
1.41793
1.41451
1.41098
1.40722
1.40327
1.39919
1.39508
1.3912
1.38778
1.38491
1.38302
1.38291
1.38351
1.38604
1.39017
1.39771
1.40901
1.42552
1.45181
1.48428
1.52544
1.57489
1.63332
1.68162
1.70884
1.71849
1.7186
1.71551
1.71042
1.70297
1.69653
1.68599
1.67923
1.66596
1.65913
1.64462
1.63695
1.62101
1.6124
1.59484
1.58566
1.56697
1.55739
1.53806
1.52846
1.50882
1.49893
1.47871
1.4687
1.44827
1.43867
1.41856
1.41054
1.38724
2.15318
2.12608
2.1013
2.06811
2.03111
1.99096
1.95576
1.9209
1.88772
1.85665
1.82746
1.7999
1.77359
1.74834
1.72396
1.70049
1.67779
1.65595
1.63491
1.61453
1.59492
1.57603
1.55805
1.54112
1.52533
1.51094
1.49801
1.48656
1.47651
1.46798
1.46088
1.45496
1.45021
1.44639
1.44322
1.44046
1.43791
1.43537
1.43268
1.42972
1.42652
1.42313
1.41961
1.41598
1.41225
1.40846
1.40459
1.40065
1.39649
1.39216
1.38776
1.3833
1.37907
1.3754
1.37222
1.37014
1.37047
1.37256
1.37665
1.38402
1.3963
1.4198
1.45296
1.49527
1.5492
1.61454
1.66821
1.69455
1.70087
1.69967
1.69562
1.68886
1.68179
1.67219
1.6643
1.65262
1.64567
1.63295
1.62618
1.61261
1.60495
1.59114
1.58226
1.56704
1.55771
1.54108
1.53203
1.51422
1.5053
1.48726
1.47845
1.46054
1.45169
1.43373
1.42491
1.40703
1.39852
1.38074
1.37372
1.35496
2.1364
2.11795
2.08696
2.05786
2.02773
1.99363
1.95674
1.92346
1.89145
1.86049
1.83133
1.80396
1.77818
1.75379
1.7306
1.70834
1.68686
1.66587
1.64538
1.62534
1.60575
1.58684
1.56868
1.55144
1.53529
1.52023
1.50638
1.49373
1.48228
1.472
1.46282
1.45479
1.44776
1.44166
1.43641
1.43179
1.42764
1.42386
1.42033
1.41688
1.41343
1.40994
1.40638
1.40271
1.39889
1.39492
1.3908
1.38654
1.38211
1.37756
1.37307
1.36861
1.36512
1.36196
1.36142
1.36282
1.36692
1.37503
1.39048
1.42088
1.46055
1.5142
1.58464
1.64625
1.68072
1.68609
1.68495
1.68032
1.67321
1.66353
1.65425
1.64293
1.63393
1.62279
1.61513
1.60355
1.5954
1.58369
1.57459
1.56224
1.55294
1.53908
1.52999
1.5151
1.50581
1.48985
1.4813
1.46467
1.45653
1.44007
1.43208
1.41597
1.40811
1.39215
1.38429
1.3684
1.36083
1.34498
1.33871
1.32405
2.10851
2.09858
2.07642
2.04911
2.02137
1.99148
1.95894
1.92497
1.89286
1.86353
1.83504
1.80831
1.78321
1.75947
1.73689
1.71511
1.69413
1.67357
1.65355
1.63389
1.61472
1.59604
1.57805
1.56072
1.54428
1.52871
1.5141
1.50049
1.48784
1.4762
1.46555
1.45578
1.44682
1.4387
1.43132
1.42466
1.41865
1.41323
1.40831
1.40383
1.39964
1.39567
1.39188
1.38818
1.38444
1.38068
1.37668
1.37275
1.36849
1.36469
1.36071
1.35786
1.35692
1.35785
1.36188
1.37058
1.39014
1.4263
1.47441
1.54367
1.61602
1.66706
1.67493
1.6745
1.67011
1.66206
1.65234
1.64089
1.6293
1.61759
1.60761
1.59698
1.58767
1.57721
1.56781
1.55668
1.54684
1.53485
1.52523
1.5123
1.50251
1.48903
1.47961
1.46506
1.45646
1.4414
1.43365
1.41848
1.41109
1.39624
1.3891
1.37478
1.36775
1.35347
1.34646
1.33226
1.32556
1.31149
1.30575
1.29446
2.08403
2.07339
2.05958
2.03237
2.00733
1.98475
1.95717
1.92661
1.896
1.8654
1.83836
1.81217
1.78752
1.76427
1.74222
1.72094
1.70036
1.68024
1.66052
1.64124
1.62231
1.60384
1.58584
1.56839
1.55161
1.53557
1.5203
1.50594
1.49237
1.47962
1.4677
1.45648
1.44603
1.43622
1.42704
1.41853
1.4107
1.40354
1.39703
1.39118
1.38596
1.38128
1.37706
1.37322
1.3696
1.36616
1.36276
1.35949
1.35652
1.35387
1.35396
1.35517
1.35938
1.36892
1.3928
1.43487
1.48857
1.57437
1.64201
1.67189
1.67045
1.6672
1.65883
1.64873
1.63677
1.62336
1.61086
1.5989
1.58737
1.57627
1.56546
1.55465
1.54445
1.53346
1.52333
1.51129
1.50113
1.48849
1.4784
1.46544
1.45593
1.44237
1.43384
1.41987
1.41241
1.39823
1.39143
1.37771
1.37093
1.35758
1.35109
1.33805
1.33166
1.3188
1.31252
1.29987
1.29367
1.28209
1.27512
1.26721
2.049
2.05365
2.04437
2.02535
1.99744
1.97042
1.94904
1.92385
1.89584
1.86797
1.8401
1.81525
1.79136
1.76849
1.74678
1.72595
1.70579
1.68606
1.6666
1.64737
1.62838
1.60971
1.59143
1.57369
1.55651
1.54004
1.52428
1.50926
1.49496
1.48144
1.46844
1.45618
1.44452
1.4335
1.42305
1.4132
1.40393
1.39528
1.38738
1.38021
1.37385
1.36831
1.3635
1.35938
1.35583
1.35271
1.35041
1.34911
1.34938
1.35167
1.35649
1.36863
1.3965
1.44309
1.50466
1.59678
1.66272
1.67135
1.66975
1.66272
1.65275
1.63959
1.6265
1.61216
1.59879
1.58528
1.57246
1.55959
1.54754
1.53553
1.52428
1.51269
1.5021
1.49025
1.47977
1.46749
1.4572
1.44465
1.43506
1.42217
1.4136
1.4006
1.39318
1.38023
1.37345
1.361
1.35461
1.34238
1.33601
1.32415
1.31804
1.3064
1.30048
1.28923
1.28318
1.27278
1.26581
1.25723
1.25
1.24352
1.99896
2.01648
2.01598
2.00645
1.9862
1.95842
1.93271
1.9103
1.88851
1.86491
1.83987
1.81514
1.79225
1.77065
1.74958
1.72919
1.70931
1.68971
1.67032
1.65099
1.6318
1.61277
1.5941
1.57591
1.55834
1.54144
1.52529
1.50983
1.4951
1.48103
1.46769
1.45481
1.44246
1.43057
1.41924
1.40846
1.39826
1.38873
1.37984
1.37177
1.36452
1.35818
1.35269
1.34808
1.34478
1.34287
1.34372
1.34621
1.3522
1.36552
1.39509
1.44812
1.51348
1.60907
1.67406
1.67319
1.67147
1.66132
1.65039
1.63644
1.62146
1.607
1.59244
1.57783
1.56317
1.54861
1.53496
1.52157
1.50905
1.49672
1.4851
1.47334
1.46243
1.45059
1.44016
1.4279
1.41823
1.40593
1.39708
1.38485
1.37704
1.36513
1.35824
1.34654
1.34017
1.32906
1.32266
1.31191
1.30574
1.29517
1.28926
1.27915
1.27333
1.26395
1.25759
1.24946
1.24236
1.23518
1.22881
1.22302
1.91383
1.98086
1.98993
1.98276
1.96892
1.94344
1.91762
1.89584
1.87462
1.85436
1.83278
1.81142
1.79021
1.76962
1.74979
1.72999
1.71034
1.69083
1.6714
1.65197
1.63268
1.61357
1.59489
1.57663
1.559
1.54194
1.52559
1.50989
1.49481
1.48032
1.46639
1.4531
1.44034
1.4281
1.41642
1.40514
1.3945
1.38432
1.37493
1.36617
1.35831
1.35135
1.34542
1.34099
1.34116
1.34302
1.34771
1.36143
1.39242
1.44689
1.51355
1.61092
1.67866
1.67741
1.67514
1.66441
1.65161
1.63763
1.62257
1.60773
1.59231
1.57613
1.56023
1.54429
1.52899
1.5143
1.50046
1.48709
1.47454
1.46231
1.45077
1.43914
1.42834
1.41665
1.40658
1.39475
1.38571
1.37384
1.36574
1.35407
1.34703
1.33584
1.32919
1.31859
1.31216
1.30205
1.2959
1.28606
1.28004
1.27054
1.26473
1.25592
1.25012
1.24222
1.23595
1.22898
1.22263
1.21589
1.21047
1.20505
1.76242
1.91829
1.95241
1.96161
1.95424
1.93908
1.91296
1.88704
1.86421
1.84356
1.82413
1.80357
1.78289
1.76383
1.74594
1.72795
1.70938
1.6904
1.67128
1.65208
1.63298
1.61402
1.59547
1.57729
1.55969
1.5426
1.52614
1.51028
1.49504
1.4804
1.46631
1.45281
1.43977
1.4273
1.4152
1.40369
1.39261
1.38219
1.37242
1.36337
1.35532
1.34867
1.34365
1.34572
1.35153
1.36087
1.38778
1.44477
1.50978
1.60907
1.68252
1.68297
1.6807
1.66976
1.65594
1.64163
1.62614
1.61057
1.59428
1.57721
1.56019
1.54334
1.5272
1.51146
1.49668
1.48252
1.46911
1.45629
1.44419
1.43245
1.42125
1.40994
1.39949
1.38814
1.37859
1.36707
1.35864
1.34714
1.33958
1.3287
1.32174
1.31135
1.30473
1.29487
1.2886
1.27927
1.27325
1.26421
1.25831
1.24989
1.24418
1.23647
1.23094
1.22383
1.21833
1.21158
1.20641
1.1999
1.19531
1.19027
1.44218
1.7823
1.9161
1.93265
1.93443
1.92665
1.91012
1.88542
1.86083
1.8371
1.81642
1.79738
1.77821
1.75799
1.73829
1.72065
1.70384
1.68708
1.66957
1.65151
1.63326
1.61493
1.59667
1.57865
1.56107
1.54394
1.52736
1.51135
1.49596
1.48115
1.46693
1.45324
1.44009
1.42743
1.41527
1.40364
1.39255
1.3821
1.3725
1.36346
1.35692
1.35563
1.35775
1.36665
1.38998
1.43962
1.50845
1.61129
1.68914
1.69295
1.68989
1.67782
1.66273
1.6468
1.62995
1.6128
1.59554
1.57759
1.55991
1.5424
1.52541
1.50898
1.49359
1.47882
1.46495
1.45147
1.43881
1.42649
1.41488
1.40342
1.39256
1.38144
1.37134
1.36024
1.35098
1.34001
1.33168
1.32104
1.31356
1.30351
1.29643
1.28689
1.28021
1.27116
1.26504
1.25654
1.25057
1.24264
1.23668
1.22966
1.22392
1.21763
1.21254
1.20625
1.2019
1.19555
1.19155
1.1859
1.18195
1.17796
1.2503
1.56296
1.82415
1.90599
1.91254
1.90864
1.89905
1.88151
1.85825
1.83526
1.81254
1.79124
1.77207
1.75376
1.73483
1.71611
1.69871
1.68222
1.66611
1.64999
1.63327
1.61625
1.59893
1.58151
1.56417
1.5471
1.5305
1.51427
1.49868
1.48356
1.46915
1.45524
1.44195
1.42914
1.4169
1.40523
1.3942
1.38401
1.37589
1.36894
1.37348
1.37902
1.39461
1.44311
1.50362
1.61121
1.69685
1.71093
1.70539
1.69087
1.67493
1.65591
1.63638
1.61736
1.59827
1.57906
1.56058
1.54218
1.52474
1.50752
1.49136
1.47584
1.46143
1.44718
1.43409
1.42105
1.40891
1.39673
1.38553
1.37407
1.36347
1.3525
1.34251
1.33184
1.32276
1.31238
1.30407
1.29424
1.28646
1.2772
1.26976
1.26092
1.25413
1.24581
1.23957
1.23194
1.22569
1.21896
1.21265
1.20722
1.20108
1.19648
1.19132
1.18642
1.18238
1.17738
1.17375
1.16972
1.16607
1.16365
1.10896
1.34297
1.57771
1.82516
1.88333
1.88799
1.88233
1.87023
1.85262
1.83157
1.81001
1.78822
1.76674
1.74761
1.73027
1.71347
1.69639
1.68036
1.66475
1.64918
1.63331
1.61733
1.60098
1.58443
1.56777
1.55113
1.53482
1.51883
1.50335
1.48823
1.47365
1.45948
1.44586
1.43276
1.42022
1.40876
1.39794
1.39
1.39062
1.39541
1.40691
1.44036
1.51215
1.61307
1.70514
1.73433
1.72449
1.70916
1.69284
1.67132
1.6499
1.62844
1.60726
1.58692
1.56722
1.54828
1.52985
1.51168
1.49447
1.47757
1.46191
1.44666
1.43232
1.41844
1.40561
1.39265
1.38083
1.36885
1.35781
1.34639
1.33599
1.32506
1.31533
1.30509
1.29605
1.28627
1.27778
1.26855
1.2605
1.25177
1.24412
1.23585
1.22893
1.22123
1.21475
1.20774
1.20125
1.1952
1.18877
1.18407
1.17782
1.17408
1.16862
1.16501
1.16032
1.15707
1.15303
1.1504
1.14684
1.14552
1.05637
1.13062
1.36867
1.62751
1.81453
1.85821
1.8647
1.858
1.84488
1.82383
1.80341
1.78371
1.76384
1.74378
1.72562
1.70918
1.69394
1.67861
1.66348
1.64844
1.63309
1.61736
1.6016
1.58578
1.56991
1.55407
1.53834
1.52279
1.5076
1.49269
1.47816
1.46388
1.4502
1.43711
1.42477
1.41574
1.41093
1.41375
1.42557
1.45037
1.50947
1.60915
1.71818
1.76375
1.74959
1.73445
1.71553
1.69135
1.66795
1.64495
1.62232
1.5998
1.57893
1.55836
1.53919
1.52029
1.50216
1.48427
1.46747
1.45117
1.436
1.42102
1.40704
1.39308
1.38026
1.36753
1.35607
1.34406
1.33313
1.32166
1.31129
1.30058
1.29099
1.28103
1.27195
1.26255
1.25401
1.24521
1.23715
1.22883
1.22126
1.21358
1.20668
1.19962
1.19311
1.18651
1.18022
1.17421
1.16839
1.16343
1.1578
1.15397
1.14866
1.14544
1.1405
1.13799
1.13375
1.13173
1.12803
1.12692
1.02759
1.05971
1.16053
1.3515
1.66115
1.80518
1.83014
1.83899
1.83263
1.81986
1.79702
1.77564
1.7574
1.73968
1.72205
1.70522
1.68981
1.67523
1.66072
1.64609
1.6313
1.61619
1.60076
1.58529
1.56988
1.55464
1.53963
1.52472
1.51013
1.49561
1.48163
1.46786
1.45507
1.44429
1.43561
1.43873
1.44783
1.46567
1.51552
1.60575
1.72517
1.79215
1.78152
1.76581
1.74396
1.71754
1.69144
1.66588
1.64105
1.61747
1.59484
1.5731
1.55253
1.53231
1.51352
1.49484
1.47741
1.46004
1.44395
1.428
1.4134
1.39838
1.38456
1.37036
1.3576
1.34448
1.33281
1.32058
1.30976
1.29834
1.28824
1.27779
1.26838
1.25863
1.24965
1.24055
1.23214
1.22365
1.21584
1.20794
1.20081
1.19374
1.18706
1.18064
1.17403
1.16807
1.1618
1.1563
1.15076
1.1461
1.14077
1.1372