/*--------------------------------*- C++ -*----------------------------------*\
| =========                 |                                                 |
| \\      /  F ield         | OpenFOAM: The Open Source CFD Toolbox           |
|  \\    /   O peration     | Version:  2112                                  |
|   \\  /    A nd           | Website:  www.openfoam.com                      |
|    \\/     M anipulation  |                                                 |
\*---------------------------------------------------------------------------*/
FoamFile
{
    version     2.0;
    format      ascii;
    arch        "LSB;label=32;scalar=64";
    class       volVectorField;
    location    "1";
    object      U;
}
// * * * * * * * * * * * * * * * * * * * * * * * * * * * * * * * * * * * * * //

dimensions      [0 1 -1 0 0 0 0];

internalField   nonuniform List<vector> 
5250
(
(3 2.87743e-09 0)
(3 2.26709e-08 0)
(2.99999 6.94868e-08 0)
(2.99997 2.1311e-07 0)
(2.99992 5.05441e-07 0)
(2.99982 1.37916e-06 0)
(2.99952 3.12128e-06 0)
(2.99893 8.44654e-06 0)
(2.99714 1.86375e-05 0)
(2.99379 5.49452e-05 0)
(2.9822 0.000101928 0)
(2.96101 0.000401757 0)
(2.88111 0.000760145 0)
(2.67067 0.00315224 0)
(2.1043 0.00790332 0)
(0.899681 0.0255178 0)
(0.293689 0.0238392 0)
(0.498889 0.0242761 0)
(0.542479 0.0276178 0)
(0.468807 0.0314169 0)
(0.366104 0.0351662 0)
(0.279611 0.0380719 0)
(0.202174 0.0404526 0)
(0.129817 0.0433345 0)
(0.0631329 0.0476591 0)
(3 8.7078e-09 0)
(3 6.83863e-08 0)
(2.99999 2.0965e-07 0)
(2.99997 6.40978e-07 0)
(2.99992 1.51717e-06 0)
(2.99982 4.12912e-06 0)
(2.99952 9.31308e-06 0)
(2.99894 2.52167e-05 0)
(2.99718 5.527e-05 0)
(2.99386 0.000164389 0)
(2.98249 0.00030006 0)
(2.96157 0.00120623 0)
(2.88328 0.00224706 0)
(2.67744 0.00949646 0)
(2.12234 0.0239674 0)
(0.913967 0.0768844 0)
(0.299431 0.0699341 0)
(0.502303 0.0683841 0)
(0.544733 0.0742194 0)
(0.46987 0.0808408 0)
(0.36689 0.0878316 0)
(0.279992 0.0926568 0)
(0.201518 0.095328 0)
(0.127766 0.0972428 0)
(0.0614509 0.101418 0)
(3 1.46538e-08 0)
(3 1.14288e-07 0)
(2.99999 3.51208e-07 0)
(2.99997 1.06569e-06 0)
(2.99992 2.52081e-06 0)
(2.99982 6.78996e-06 0)
(2.99954 1.52571e-05 0)
(2.99897 4.09396e-05 0)
(2.99726 8.95209e-05 0)
(2.994 0.0002615 0)
(2.98306 0.000500861 0)
(2.96267 0.00187904 0)
(2.88768 0.00360172 0)
(2.69137 0.0148088 0)
(2.16092 0.0379423 0)
(0.94727 0.122864 0)
(0.316337 0.117763 0)
(0.51111 0.117522 0)
(0.551479 0.12726 0)
(0.475736 0.138089 0)
(0.372888 0.15047 0)
(0.285122 0.15914 0)
(0.205365 0.164144 0)
(0.129737 0.167648 0)
(0.0623722 0.174502 0)
(3 2.06474e-08 0)
(3 1.60011e-07 0)
(2.99999 4.93132e-07 0)
(2.99997 1.48589e-06 0)
(2.99992 3.51695e-06 0)
(2.99983 9.35805e-06 0)
(2.99955 2.10037e-05 0)
(2.999 5.53005e-05 0)
(2.99736 0.00012162 0)
(2.99421 0.000337116 0)
(2.98383 0.000702447 0)
(2.96422 0.00227476 0)
(2.89359 0.00470267 0)
(2.70998 0.0175507 0)
(2.21428 0.0455528 0)
(0.998283 0.146229 0)
(0.344775 0.163542 0)
(0.523074 0.170492 0)
(0.560416 0.183148 0)
(0.485215 0.196935 0)
(0.383768 0.214317 0)
(0.294896 0.226796 0)
(0.213518 0.234623 0)
(0.135004 0.240642 0)
(0.065106 0.251373 0)
(3 2.736e-08 0)
(3 2.09958e-07 0)
(2.99999 6.49436e-07 0)
(2.99997 1.94078e-06 0)
(2.99993 4.59425e-06 0)
(2.99984 1.20636e-05 0)
(2.99957 2.70283e-05 0)
(2.99905 6.97024e-05 0)
(2.99749 0.000153425 0)
(2.99448 0.000407305 0)
(2.98467 0.000877078 0)
(2.96607 0.00257619 0)
(2.89989 0.00552235 0)
(2.72943 0.0187883 0)
(2.26986 0.0476696 0)
(1.06126 0.148231 0)
(0.383487 0.211416 0)
(0.534195 0.229219 0)
(0.567628 0.241428 0)
(0.49609 0.25607 0)
(0.39837 0.277842 0)
(0.308797 0.294183 0)
(0.225913 0.305627 0)
(0.144127 0.315246 0)
(0.0703065 0.33079 0)
(3 3.5679e-08 0)
(3 2.73178e-07 0)
(2.99999 8.45455e-07 0)
(2.99997 2.52073e-06 0)
(2.99993 5.97331e-06 0)
(2.99985 1.56228e-05 0)
(2.9996 3.5025e-05 0)
(2.99911 8.95517e-05 0)
(2.99765 0.000196964 0)
(2.99481 0.000511166 0)
(2.98562 0.00111418 0)
(2.96815 0.00301188 0)
(2.90648 0.00685428 0)
(2.7485 0.0203031 0)
(2.31962 0.0506803 0)
(1.13954 0.152127 0)
(0.435419 0.261392 0)
(0.543566 0.290952 0)
(0.571302 0.300042 0)
(0.507997 0.314803 0)
(0.41705 0.341494 0)
(0.32771 0.362627 0)
(0.243753 0.37941 0)
(0.157647 0.394997 0)
(0.0780272 0.418401 0)
(3 4.32249e-08 0)
(3 3.33377e-07 0)
(2.99999 1.0289e-06 0)
(2.99998 3.08737e-06 0)
(2.99994 7.33244e-06 0)
(2.99986 1.93676e-05 0)
(2.99964 4.36701e-05 0)
(2.99919 0.000112279 0)
(2.99784 0.000252677 0)
(2.99525 0.000627215 0)
(2.98673 0.00151218 0)
(2.97092 0.00344391 0)
(2.91364 0.00875518 0)
(2.76872 0.0226512 0)
(2.37235 0.0573013 0)
(1.23584 0.166105 0)
(0.50554 0.313558 0)
(0.554753 0.34974 0)
(0.571918 0.354579 0)
(0.522139 0.373005 0)
(0.441244 0.40441 0)
(0.353413 0.431914 0)
(0.269321 0.456955 0)
(0.179222 0.482401 0)
(0.0911635 0.519303 0)
(3 4.68024e-08 0)
(3 3.65223e-07 0)
(2.99999 1.12363e-06 0)
(2.99998 3.40103e-06 0)
(2.99995 8.111e-06 0)
(2.99988 2.16334e-05 0)
(2.99968 4.92427e-05 0)
(2.99928 0.000126379 0)
(2.99807 0.000293877 0)
(2.99586 0.000695131 0)
(2.98795 0.00176156 0)
(2.97426 0.00377706 0)
(2.92178 0.0096854 0)
(2.79128 0.0243499 0)
(2.43074 0.0646679 0)
(1.35073 0.18072 0)
(0.589724 0.373387 0)
(0.561334 0.401254 0)
(0.572855 0.40639 0)
(0.541816 0.431739 0)
(0.472385 0.46574 0)
(0.389133 0.501757 0)
(0.306651 0.539075 0)
(0.213212 0.580491 0)
(0.113041 0.642956 0)
(3 4.72236e-08 0)
(3 3.69613e-07 0)
(2.99999 1.1338e-06 0)
(2.99998 3.44313e-06 0)
(2.99995 8.20728e-06 0)
(2.99989 2.19901e-05 0)
(2.99972 5.02556e-05 0)
(2.99939 0.00012908 0)
(2.99832 0.000301657 0)
(2.99648 0.000723009 0)
(2.98928 0.00172869 0)
(2.9776 0.00420327 0)
(2.93001 0.00978749 0)
(2.81737 0.026192 0)
(2.49348 0.0700073 0)
(1.48323 0.199347 0)
(0.688521 0.439822 0)
(0.56601 0.450709 0)
(0.58389 0.456846 0)
(0.569179 0.487886 0)
(0.512166 0.524817 0)
(0.438988 0.5714 0)
(0.361234 0.62372 0)
(0.270446 0.691499 0)
(0.153646 0.804325 0)
(3 9.8619e-09 0)
(3 4.08239e-07 0)
(2.99999 7.58857e-07 0)
(2.99999 3.5934e-06 0)
(2.99996 5.61384e-06 0)
(2.99991 2.27168e-05 0)
(2.99977 3.34473e-05 0)
(2.99949 0.000138672 0)
(2.99857 0.000172182 0)
(2.99706 0.00091006 0)
(2.99083 0.000690878 0)
(2.98105 0.00619898 0)
(2.93922 0.00366868 0)
(2.84503 0.0405812 0)
(2.56273 0.051417 0)
(1.65831 0.230759 0)
(0.816789 0.503301 0)
(0.580616 0.500402 0)
(0.609487 0.502527 0)
(0.611035 0.535645 0)
(0.566675 0.578877 0)
(0.50629 0.636326 0)
(0.441234 0.710973 0)
(0.369334 0.827043 0)
(0.229764 1.06374 0)
(3 3.29102e-08 0)
(3 2.59249e-07 0)
(2.99999 7.93924e-07 0)
(2.99999 2.42369e-06 0)
(2.99997 5.74099e-06 0)
(2.99992 1.55764e-05 0)
(2.99982 3.50686e-05 0)
(2.99951 9.51116e-05 0)
(2.99896 0.000205253 0)
(2.99691 0.000598561 0)
(2.99364 0.00122952 0)
(2.98014 0.00390996 0)
(2.9566 0.00822203 0)
(2.86239 0.0273674 0)
(2.61427 0.0728126 0)
(1.95593 0.209122 0)
(0.961088 0.567935 0)
(0.613454 0.559125 0)
(0.65155 0.5539 0)
(0.669786 0.578682 0)
(0.638618 0.626197 0)
(0.59667 0.691927 0)
(0.563617 0.786532 0)
(0.568397 0.93512 0)
(0.629031 1.20407 0)
(3 5.88474e-08 0)
(3 1.29356e-07 0)
(3 8.89624e-07 0)
(2.99999 1.41338e-06 0)
(2.99997 6.23872e-06 0)
(2.99994 9.18336e-06 0)
(2.99983 3.82965e-05 0)
(2.99964 5.29636e-05 0)
(2.99899 0.000243413 0)
(2.99791 0.000282274 0)
(2.99359 0.00169237 0)
(2.98687 0.00173922 0)
(2.95872 0.0122766 0)
(2.89899 0.0146079 0)
(2.71135 0.0855926 0)
(2.12738 0.195627 0)
(1.17647 0.580031 0)
(0.697615 0.603624 0)
(0.720067 0.609521 0)
(0.744119 0.619357 0)
(0.726018 0.666459 0)
(0.702152 0.736957 0)
(0.701251 0.837374 0)
(0.759871 0.981641 0)
(0.92223 1.183 0)
(3 2.64954e-08 0)
(3 2.06913e-07 0)
(3 6.36057e-07 0)
(2.99999 1.92621e-06 0)
(2.99998 4.5586e-06 0)
(2.99994 1.22014e-05 0)
(2.99986 2.72293e-05 0)
(2.99968 7.29883e-05 0)
(2.99915 0.000153093 0)
(2.99812 0.000468133 0)
(2.99487 0.000850311 0)
(2.98898 0.00323209 0)
(2.96766 0.00604928 0)
(2.92407 0.021719 0)
(2.7804 0.055541 0)
(2.34603 0.162882 0)
(1.43768 0.48021 0)
(0.804462 0.629756 0)
(0.7856 0.661019 0)
(0.807013 0.668964 0)
(0.811997 0.707469 0)
(0.806999 0.774543 0)
(0.829352 0.86642 0)
(0.910118 0.984679 0)
(1.0864 1.11073 0)
(3 2.6182e-08 0)
(3 2.06414e-07 0)
(3 6.32029e-07 0)
(2.99999 1.93001e-06 0)
(2.99998 4.59363e-06 0)
(2.99996 1.24306e-05 0)
(2.99988 2.82786e-05 0)
(2.99974 7.49069e-05 0)
(2.99932 0.000168692 0)
(2.99849 0.000446302 0)
(2.99588 0.00100665 0)
(2.99122 0.00269 0)
(2.97384 0.00601164 0)
(2.94175 0.0167766 0)
(2.8224 0.0422544 0)
(2.48803 0.121069 0)
(1.70564 0.341806 0)
(0.918684 0.674024 0)
(0.824972 0.709697 0)
(0.84654 0.722254 0)
(0.874896 0.747322 0)
(0.893635 0.803828 0)
(0.933653 0.880132 0)
(1.0214 0.969079 0)
(1.18495 1.04831 0)
(3 2.2174e-08 0)
(3 1.73907e-07 0)
(3 5.33175e-07 0)
(2.99999 1.62003e-06 0)
(2.99998 3.84772e-06 0)
(2.99996 1.0335e-05 0)
(2.99991 2.33886e-05 0)
(2.99979 6.14809e-05 0)
(2.99946 0.000137532 0)
(2.99882 0.000364161 0)
(2.99673 0.00079873 0)
(2.99317 0.00224236 0)
(2.9792 0.00461576 0)
(2.95514 0.0148463 0)
(2.85956 0.0322636 0)
(2.60543 0.110794 0)
(1.97063 0.282049 0)
(1.07894 0.719419 0)
(0.855063 0.749308 0)
(0.875626 0.763199 0)
(0.920656 0.777312 0)
(0.962028 0.822221 0)
(1.01431 0.883745 0)
(1.10284 0.949729 0)
(1.24874 1.00285 0)
(3 1.93198e-08 0)
(3 1.5069e-07 0)
(3 4.63129e-07 0)
(3 1.40164e-06 0)
(2.99999 3.32838e-06 0)
(2.99997 8.88859e-06 0)
(2.99993 2.00645e-05 0)
(2.99984 5.24081e-05 0)
(2.99957 0.000116581 0)
(2.99904 0.000308525 0)
(2.99745 0.00066196 0)
(2.99441 0.00192196 0)
(2.98418 0.00374098 0)
(2.96527 0.012974 0)
(2.89583 0.0259981 0)
(2.71545 0.0967932 0)
(2.23937 0.240117 0)
(1.29899 0.704337 0)
(0.922574 0.77285 0)
(0.921103 0.794828 0)
(0.966404 0.804419 0)
(1.02186 0.833871 0)
(1.0802 0.88141 0)
(1.16535 0.931169 0)
(1.29376 0.96887 0)
(3 1.68968e-08 0)
(3 1.32576e-07 0)
(3 4.06678e-07 0)
(3 1.2372e-06 0)
(2.99999 2.94086e-06 0)
(2.99998 7.91535e-06 0)
(2.99994 1.79574e-05 0)
(2.99987 4.72866e-05 0)
(2.99967 0.000106195 0)
(2.99927 0.000279263 0)
(2.99807 0.000626317 0)
(2.99574 0.00165523 0)
(2.98831 0.00371915 0)
(2.97401 0.0102317 0)
(2.92514 0.023159 0)
(2.80282 0.0709746 0)
(2.47132 0.184998 0)
(1.56477 0.569938 0)
(1.03968 0.772786 0)
(0.983196 0.816698 0)
(1.0116 0.834391 0)
(1.07128 0.848314 0)
(1.13513 0.880659 0)
(1.21539 0.916714 0)
(1.3276 0.943077 0)
(3 1.37658e-08 0)
(3 1.07535e-07 0)
(3 3.30049e-07 0)
(3 1.00051e-06 0)
(2.99999 2.37619e-06 0)
(2.99998 6.36705e-06 0)
(2.99996 1.44185e-05 0)
(2.99991 3.7794e-05 0)
(2.99976 8.47135e-05 0)
(2.99948 0.000221936 0)
(2.99859 0.000496648 0)
(2.99699 0.00130523 0)
(2.99128 0.00295702 0)
(2.98169 0.00780607 0)
(2.94418 0.0183423 0)
(2.85966 0.0512934 0)
(2.61088 0.134233 0)
(1.83615 0.408402 0)
(1.18578 0.788279 0)
(1.03735 0.841353 0)
(1.04965 0.866095 0)
(1.10651 0.869415 0)
(1.17708 0.88394 0)
(1.25446 0.9072 0)
(1.35371 0.924954 0)
(3 7.18847e-09 0)
(3 9.19876e-08 0)
(3 2.28978e-07 0)
(3 8.30007e-07 0)
(2.99999 1.65927e-06 0)
(2.99999 5.20438e-06 0)
(2.99997 9.94569e-06 0)
(2.99993 3.04337e-05 0)
(2.99983 5.71596e-05 0)
(2.99961 0.000176548 0)
(2.99898 0.000322834 0)
(2.9978 0.00105607 0)
(2.99369 0.00178081 0)
(2.98694 0.00679444 0)
(2.95989 0.010727 0)
(2.90385 0.0458227 0)
(2.72739 0.0931458 0)
(2.16118 0.333962 0)
(1.43134 0.772986 0)
(1.12522 0.862998 0)
(1.10439 0.888791 0)
(1.14217 0.891581 0)
(1.21248 0.890772 0)
(1.28942 0.90179 0)
(1.37835 0.9128 0)
(3 5.49908e-09 0)
(3 6.84372e-08 0)
(3 1.7232e-07 0)
(3 6.20191e-07 0)
(3 1.25486e-06 0)
(2.99999 3.90846e-06 0)
(2.99998 7.58162e-06 0)
(2.99995 2.29849e-05 0)
(2.99988 4.39759e-05 0)
(2.9997 0.000133705 0)
(2.99932 0.000251856 0)
(2.99821 0.000794094 0)
(2.99604 0.00140277 0)
(2.98919 0.00506438 0)
(2.97557 0.00805244 0)
(2.93146 0.0336752 0)
(2.82199 0.0661171 0)
(2.50667 0.228207 0)
(1.71939 0.639064 0)
(1.25446 0.864243 0)
(1.17332 0.901121 0)
(1.1862 0.913519 0)
(1.2457 0.905884 0)
(1.32173 0.904701 0)
(1.40362 0.908127 0)
(3 9.32454e-09 0)
(3 3.66676e-08 0)
(3 1.66278e-07 0)
(3 3.64347e-07 0)
(3 1.17663e-06 0)
(2.99999 2.3516e-06 0)
(2.99999 7.13381e-06 0)
(2.99996 1.39965e-05 0)
(2.99992 4.20563e-05 0)
(2.99979 8.2011e-05 0)
(2.99953 0.000247803 0)
(2.99875 0.000479291 0)
(2.99725 0.00148025 0)
(2.9925 0.0028037 0)
(2.98368 0.00913219 0)
(2.95314 0.01744 0)
(2.88198 0.0595727 0)
(2.67683 0.136256 0)
(2.04722 0.445182 0)
(1.43515 0.854517 0)
(1.24486 0.919567 0)
(1.23445 0.9382 0)
(1.27745 0.930749 0)
(1.35051 0.916831 0)
(1.42784 0.911814 0)
(3 5.7232e-09 0)
(3 3.09188e-08 0)
(3 1.15825e-07 0)
(3 2.96805e-07 0)
(3 8.28111e-07 0)
(3 1.90653e-06 0)
(2.99999 5.03794e-06 0)
(2.99998 1.13523e-05 0)
(2.99994 2.97105e-05 0)
(2.99987 6.65858e-05 0)
(2.99966 0.000174386 0)
(2.99924 0.000390064 0)
(2.99797 0.00102583 0)
(2.99554 0.00229781 0)
(2.98781 0.00615393 0)
(2.97241 0.013854 0)
(2.92257 0.0384368 0)
(2.79765 0.103041 0)
(2.43585 0.281927 0)
(1.6963 0.762785 0)
(1.35115 0.91811 0)
(1.29751 0.949631 0)
(1.31494 0.95422 0)
(1.37731 0.936311 0)
(1.4527 0.921832 0)
(3 3.00071e-09 0)
(3 2.36395e-08 0)
(3 7.24455e-08 0)
(3 2.20597e-07 0)
(3 5.24265e-07 0)
(3 1.40916e-06 0)
(2.99999 3.19369e-06 0)
(2.99998 8.37594e-06 0)
(2.99996 1.87741e-05 0)
(2.99991 4.9082e-05 0)
(2.9998 0.000109557 0)
(2.99946 0.000287765 0)
(2.99884 0.000639506 0)
(2.99677 0.00170131 0)
(2.99331 0.00379775 0)
(2.97991 0.0101632 0)
(2.9563 0.0242604 0)
(2.86723 0.0650882 0)
(2.63707 0.184692 0)
(2.06286 0.504062 0)
(1.4893 0.89969 0)
(1.36051 0.960983 0)
(1.35658 0.976195 0)
(1.40194 0.962402 0)
(1.47324 0.935504 0)
(3 3.08055e-09 0)
(3 1.26796e-08 0)
(3 5.57306e-08 0)
(3 1.25733e-07 0)
(3 3.94506e-07 0)
(3 8.10406e-07 0)
(3 2.38038e-06 0)
(2.99999 4.79978e-06 0)
(2.99997 1.38897e-05 0)
(2.99994 2.78342e-05 0)
(2.99985 8.05367e-05 0)
(2.99968 0.000160008 0)
(2.99915 0.000472899 0)
(2.99817 0.000901131 0)
(2.99486 0.00292073 0)
(2.98935 0.00507727 0)
(2.96808 0.0189022 0)
(2.92538 0.0336688 0)
(2.78736 0.127154 0)
(2.38257 0.324562 0)
(1.77022 0.788441 0)
(1.4693 0.945685 0)
(1.41842 0.979995 0)
(1.43393 0.981796 0)
(1.49174 0.955228 0)
(3 1.35436e-09 0)
(3 1.06485e-08 0)
(3 3.26469e-08 0)
(3 9.9178e-08 0)
(3 2.35638e-07 0)
(3 6.30589e-07 0)
(3 1.42822e-06 0)
(2.99999 3.72003e-06 0)
(2.99998 8.33241e-06 0)
(2.99996 2.15676e-05 0)
(2.99991 4.80513e-05 0)
(2.99979 0.000124605 0)
(2.99946 0.000275402 0)
(2.99881 0.000730626 0)
(2.99679 0.00155744 0)
(2.99323 0.00451432 0)
(2.98008 0.00908098 0)
(2.95666 0.0288113 0)
(2.87196 0.0663101 0)
(2.64067 0.207422 0)
(2.11187 0.555946 0)
(1.61134 0.916526 0)
(1.48569 0.981922 0)
(1.47482 0.996351 0)
(1.51102 0.981343 0)
(3 7.62903e-10 0)
(3 7.85777e-09 0)
(3 2.13154e-08 0)
(3 7.1641e-08 0)
(3 1.54422e-07 0)
(3 4.5151e-07 0)
(3 9.33464e-07 0)
(3 2.64786e-06 0)
(2.99999 5.42701e-06 0)
(2.99998 1.52855e-05 0)
(2.99994 3.12131e-05 0)
(2.99987 8.80034e-05 0)
(2.99966 0.000178797 0)
(2.99924 0.000510665 0)
(2.99801 0.00101262 0)
(2.99563 0.00308219 0)
(2.98809 0.00562024 0)
(2.97338 0.0198085 0)
(2.92523 0.035781 0)
(2.80291 0.133179 0)
(2.47088 0.321777 0)
(1.85642 0.800612 0)
(1.57836 0.96222 0)
(1.52778 0.996372 0)
(1.53861 1.00022 0)
(3 4.90362e-10 0)
(3 4.99609e-09 0)
(3 1.36067e-08 0)
(3 4.5654e-08 0)
(3 9.86311e-08 0)
(3 2.87946e-07 0)
(3 5.96149e-07 0)
(3 1.68901e-06 0)
(2.99999 3.46597e-06 0)
(2.99999 9.75116e-06 0)
(2.99997 1.99531e-05 0)
(2.99991 5.61233e-05 0)
(2.99981 0.000114489 0)
(2.99951 0.00032392 0)
(2.99893 0.000656518 0)
(2.99708 0.00189629 0)
(2.9939 0.00378335 0)
(2.98203 0.011505 0)
(2.9611 0.0233521 0)
(2.88433 0.0739091 0)
(2.6874 0.187386 0)
(2.20687 0.529594 0)
(1.72167 0.918202 0)
(1.59193 0.991456 0)
(1.57719 1.00943 0)
(3 4.91042e-10 0)
(3 2.62466e-09 0)
(3 9.83201e-09 0)
(3 2.51816e-08 0)
(3 6.98034e-08 0)
(3 1.60333e-07 0)
(3 4.188e-07 0)
(3 9.40191e-07 0)
(3 2.42066e-06 0)
(2.99999 5.40092e-06 0)
(2.99998 1.38507e-05 0)
(2.99995 3.07848e-05 0)
(2.99988 7.9023e-05 0)
(2.99969 0.000174821 0)
(2.99932 0.000454767 0)
(2.99823 0.000984157 0)
(2.99608 0.00272119 0)
(2.98968 0.00557506 0)
(2.97641 0.0170645 0)
(2.93683 0.0361856 0)
(2.83649 0.11542 0)
(2.56498 0.303572 0)
(1.9879 0.753225 0)
(1.68974 0.956449 0)
(1.63099 1.00234 0)
(3 3.50464e-10 0)
(3 1.59003e-09 0)
(3 6.5921e-09 0)
(3 1.5499e-08 0)
(3 4.65756e-08 0)
(3 9.91337e-08 0)
(3 2.79685e-07 0)
(3 5.83512e-07 0)
(3 1.62208e-06 0)
(2.99999 3.36857e-06 0)
(2.99999 9.32419e-06 0)
(2.99997 1.93171e-05 0)
(2.99993 5.34316e-05 0)
(2.99982 0.000110291 0)
(2.9996 0.000306157 0)
(2.99897 0.000628094 0)
(2.99773 0.00176389 0)
(2.99391 0.00360572 0)
(2.98668 0.0103444 0)
(2.96314 0.0217946 0)
(2.91013 0.0646436 0)
(2.75673 0.155837 0)
(2.3146 0.464697 0)
(1.86896 0.862945 0)
(1.70557 0.979387 0)
(3 2.05972e-10 0)
(3 9.3567e-10 0)
(3 3.87415e-09 0)
(3 9.12774e-09 0)
(3 2.7387e-08 0)
(3 5.84001e-08 0)
(3 1.64549e-07 0)
(3 3.44084e-07 0)
(3 9.55837e-07 0)
(3 1.99203e-06 0)
(2.99999 5.51101e-06 0)
(2.99998 1.14797e-05 0)
(2.99996 3.1705e-05 0)
(2.9999 6.59349e-05 0)
(2.99975 0.000182372 0)
(2.99945 0.000377541 0)
(2.99857 0.00105622 0)
(2.9968 0.00215686 0)
(2.99164 0.00627794 0)
(2.98075 0.0126269 0)
(2.9491 0.0386235 0)
(2.87184 0.0877451 0)
(2.64828 0.264944 0)
(2.14258 0.672648 0)
(1.82325 0.939845 0)
(3 8.30187e-11 0)
(3 6.52944e-10 0)
(3 1.99934e-09 0)
(3 6.06726e-09 0)
(3 1.43876e-08 0)
(3 3.84401e-08 0)
(3 8.68404e-08 0)
(3 2.25968e-07 0)
(3 5.05294e-07 0)
(3 1.30762e-06 0)
(3 2.91738e-06 0)
(2.99999 7.54228e-06 0)
(2.99998 1.68078e-05 0)
(2.99995 4.34727e-05 0)
(2.99986 9.67138e-05 0)
(2.99969 0.000250812 0)
(2.99921 0.000556927 0)
(2.99826 0.00145234 0)
(2.99541 0.00325363 0)
(2.98999 0.00847131 0)
(2.9725 0.0199518 0)
(2.93538 0.0518905 0)
(2.82276 0.135613 0)
(2.49198 0.385807 0)
(2.05012 0.794599 0)
(3 4.35339e-11 0)
(3 4.08952e-10 0)
(3 1.15291e-09 0)
(3 3.73925e-09 0)
(3 8.30889e-09 0)
(3 2.35161e-08 0)
(3 4.99894e-08 0)
(3 1.37373e-07 0)
(3 2.89379e-07 0)
(3 7.89287e-07 0)
(3 1.65939e-06 0)
(2.99999 4.5129e-06 0)
(2.99999 9.47629e-06 0)
(2.99997 2.57356e-05 0)
(2.99992 5.38922e-05 0)
(2.99983 0.000146549 0)
(2.99957 0.000305398 0)
(2.99905 0.000837954 0)
(2.99747 0.00172508 0)
(2.99468 0.00489421 0)
(2.98467 0.00985935 0)
(2.96714 0.0298275 0)
(2.90489 0.0640684 0)
(2.74122 0.204661 0)
(2.36688 0.50723 0)
(3 2.77657e-11 0)
(3 2.17355e-10 0)
(3 6.65884e-10 0)
(3 2.01246e-09 0)
(3 4.77145e-09 0)
(3 1.26823e-08 0)
(3 2.86287e-08 0)
(3 7.4034e-08 0)
(3 1.65349e-07 0)
(3 4.24891e-07 0)
(3 9.46724e-07 0)
(3 2.42833e-06 0)
(2.99999 5.40713e-06 0)
(2.99998 1.38554e-05 0)
(2.99996 3.08191e-05 0)
(2.9999 7.89408e-05 0)
(2.99979 0.000175101 0)
(2.99945 0.000450791 0)
(2.99878 0.00098767 0)
(2.99677 0.00263911 0)
(2.99304 0.00552373 0)
(2.98066 0.0161875 0)
(2.95617 0.0343697 0)
(2.87803 0.103959 0)
(2.6665 0.2808 0)
(3 2.13171e-11 0)
(3 9.84711e-11 0)
(3 4.01441e-10 0)
(3 9.5933e-10 0)
(3 2.83276e-09 0)
(3 6.11497e-09 0)
(3 1.69282e-08 0)
(3 3.57765e-08 0)
(3 9.75594e-08 0)
(3 2.05257e-07 0)
(3 5.57602e-07 0)
(3 1.17218e-06 0)
(3 3.18102e-06 0)
(2.99999 6.68538e-06 0)
(2.99998 1.81446e-05 0)
(2.99995 3.81074e-05 0)
(2.99988 0.000103608 0)
(2.99973 0.000217333 0)
(2.9993 0.000594935 0)
(2.99846 0.00123886 0)
(2.99594 0.00349287 0)
(2.99116 0.00705578 0)
(2.97597 0.0212579 0)
(2.94398 0.0448873 0)
(2.84657 0.136987 0)
(3 8.15277e-12 0)
(3 6.40681e-11 0)
(3 1.96158e-10 0)
(3 5.93944e-10 0)
(3 1.40789e-09 0)
(3 3.74474e-09 0)
(3 8.44837e-09 0)
(3 2.18427e-08 0)
(3 4.87405e-08 0)
(3 1.25147e-07 0)
(3 2.78559e-07 0)
(3 7.13644e-07 0)
(3 1.5873e-06 0)
(3 4.06106e-06 0)
(2.99999 9.02496e-06 0)
(2.99997 2.30678e-05 0)
(2.99993 5.11645e-05 0)
(2.99986 0.000130852 0)
(2.99963 0.000289205 0)
(2.99919 0.000744684 0)
(2.99788 0.00163142 0)
(2.99546 0.00431516 0)
(2.98736 0.00932799 0)
(2.97293 0.0257297 0)
(2.92316 0.0594103 0)
(3 4.03968e-12 0)
(3 3.66862e-11 0)
(3 1.04897e-10 0)
(3 3.35665e-10 0)
(3 7.53844e-10 0)
(3 2.10465e-09 0)
(3 4.51546e-09 0)
(3 1.2229e-08 0)
(3 2.59731e-08 0)
(3 6.97985e-08 0)
(3 1.47865e-07 0)
(3 3.96409e-07 0)
(3 8.39007e-07 0)
(3 2.24704e-06 0)
(2.99999 4.75252e-06 0)
(2.99999 1.27233e-05 0)
(2.99997 2.68774e-05 0)
(2.99993 7.19939e-05 0)
(2.99981 0.000151716 0)
(2.99958 0.000407997 0)
(2.99891 0.000853229 0)
(2.99758 0.00234674 0)
(2.99369 0.00474916 0)
(2.98564 0.0141027 0)
(2.96238 0.0282037 0)
(3 2.10531e-12 0)
(3 1.90193e-11 0)
(3 5.44742e-11 0)
(3 1.7404e-10 0)
(3 3.91559e-10 0)
(3 1.09116e-09 0)
(3 2.34418e-09 0)
(3 6.33613e-09 0)
(3 1.34711e-08 0)
(3 3.61382e-08 0)
(3 7.66307e-08 0)
(3 2.05193e-07 0)
(3 4.34801e-07 0)
(3 1.16405e-06 0)
(3 2.46633e-06 0)
(2.99999 6.60644e-06 0)
(2.99998 1.39972e-05 0)
(2.99996 3.75439e-05 0)
(2.99991 7.95184e-05 0)
(2.99977 0.000213981 0)
(2.9995 0.000452753 0)
(2.99871 0.00122737 0)
(2.99712 0.00260375 0)
(2.99256 0.00713101 0)
(2.98293 0.0155697 0)
(3 1.67711e-12 0)
(3 8.00365e-12 0)
(3 3.19454e-11 0)
(3 7.73913e-11 0)
(3 2.25088e-10 0)
(3 4.91937e-10 0)
(3 1.34172e-09 0)
(3 2.86866e-09 0)
(3 7.70449e-09 0)
(3 1.6388e-08 0)
(3 4.38398e-08 0)
(3 9.31434e-08 0)
(3 2.48911e-07 0)
(3 5.28843e-07 0)
(3 1.41295e-06 0)
(3 3.00298e-06 0)
(2.99999 8.02381e-06 0)
(2.99998 1.70542e-05 0)
(2.99996 4.55919e-05 0)
(2.99989 9.68312e-05 0)
(2.99975 0.000259436 0)
(2.99937 0.000549921 0)
(2.99861 0.00148182 0)
(2.99644 0.00315638 0)
(2.99202 0.00856053 0)
(3 8.35349e-13 0)
(3 4.04724e-12 0)
(3 1.61264e-11 0)
(3 3.91549e-11 0)
(3 1.13569e-10 0)
(3 2.48675e-10 0)
(3 6.76581e-10 0)
(3 1.44943e-09 0)
(3 3.88353e-09 0)
(3 8.27813e-09 0)
(3 2.20883e-08 0)
(3 4.7042e-08 0)
(3 1.25331e-07 0)
(3 2.67002e-07 0)
(3 7.10544e-07 0)
(3 1.51473e-06 0)
(3 4.02522e-06 0)
(2.99999 8.58452e-06 0)
(2.99998 2.27733e-05 0)
(2.99995 4.85359e-05 0)
(2.99987 0.000128611 0)
(2.99972 0.00027348 0)
(2.99929 0.00072562 0)
(2.99845 0.00154119 0)
(2.99599 0.00411108 0)
(3 3.03584e-13 0)
(3 2.26727e-12 0)
(3 6.92595e-12 0)
(3 2.09669e-11 0)
(3 4.96346e-11 0)
(3 1.31911e-10 0)
(3 2.97185e-10 0)
(3 7.67258e-10 0)
(3 1.7087e-09 0)
(3 4.37878e-09 0)
(3 9.724e-09 0)
(3 2.48621e-08 0)
(3 5.51748e-08 0)
(3 1.40886e-07 0)
(3 3.12597e-07 0)
(3 7.97103e-07 0)
(3 1.76795e-06 0)
(3 4.50112e-06 0)
(2.99999 9.97358e-06 0)
(2.99998 2.53605e-05 0)
(2.99994 5.60932e-05 0)
(2.99987 0.000142685 0)
(2.99967 0.000314714 0)
(2.99926 0.000804532 0)
(2.9981 0.00176885 0)
(3 1.28507e-13 0)
(3 1.11661e-12 0)
(3 3.29379e-12 0)
(3 1.05138e-11 0)
(3 2.40187e-11 0)
(3 6.66222e-11 0)
(3 1.44651e-10 0)
(3 3.87682e-10 0)
(3 8.31937e-10 0)
(3 2.20966e-09 0)
(3 4.72988e-09 0)
(3 1.25199e-08 0)
(3 2.6787e-08 0)
(3 7.07368e-08 0)
(3 1.51329e-07 0)
(3 3.98695e-07 0)
(3 8.52664e-07 0)
(3 2.24145e-06 0)
(3 4.78938e-06 0)
(2.99999 1.25697e-05 0)
(2.99997 2.68122e-05 0)
(2.99994 7.03491e-05 0)
(2.99984 0.000149676 0)
(2.99966 0.000393955 0)
(2.99912 0.000832252 0)
(3 2.72866e-14 0)
(3 5.11287e-13 0)
(3 1.51487e-12 0)
(3 4.88998e-12 0)
(3 1.11499e-11 0)
(3 3.10177e-11 0)
(3 6.73801e-11 0)
(3 1.80533e-10 0)
(3 3.87797e-10 0)
(3 1.02882e-09 0)
(3 2.20393e-09 0)
(3 5.82412e-09 0)
(3 1.24676e-08 0)
(3 3.28638e-08 0)
(3 7.03287e-08 0)
(3 1.84987e-07 0)
(3 3.95683e-07 0)
(3 1.03903e-06 0)
(3 2.2206e-06 0)
(2.99999 5.82689e-06 0)
(2.99999 1.24382e-05 0)
(2.99997 3.26666e-05 0)
(2.99993 6.96423e-05 0)
(2.99983 0.000183533 0)
(2.99963 0.000390605 0)
(3 3.75724e-14 0)
(3 2.27777e-13 0)
(3 8.42099e-13 0)
(3 2.10065e-12 0)
(3 5.73348e-12 0)
(3 1.30342e-11 0)
(3 3.38355e-11 0)
(3 7.54823e-11 0)
(3 1.93612e-10 0)
(3 4.30108e-10 0)
(3 1.09871e-09 0)
(3 2.43682e-09 0)
(3 6.20859e-09 0)
(3 1.37572e-08 0)
(3 3.49826e-08 0)
(3 7.74547e-08 0)
(3 1.96653e-07 0)
(3 4.35042e-07 0)
(3 1.10351e-06 0)
(3 2.43899e-06 0)
(2.99999 6.18706e-06 0)
(2.99999 1.36625e-05 0)
(2.99997 3.47114e-05 0)
(2.99993 7.65876e-05 0)
(2.99984 0.000195369 0)
(3 3.50024e-14 0)
(3 1.35922e-13 0)
(3 4.3927e-13 0)
(3 1.02124e-12 0)
(3 2.79688e-12 0)
(3 6.05916e-12 0)
(3 1.60857e-11 0)
(3 3.45478e-11 0)
(3 9.11767e-11 0)
(3 1.95932e-10 0)
(3 5.15891e-10 0)
(3 1.10827e-09 0)
(3 2.91029e-09 0)
(3 6.24895e-09 0)
(3 1.63715e-08 0)
(3 3.51321e-08 0)
(3 9.18741e-08 0)
(3 1.97022e-07 0)
(3 5.14673e-07 0)
(3 1.10298e-06 0)
(3 2.88036e-06 0)
(2.99999 6.16936e-06 0)
(2.99999 1.61154e-05 0)
(2.99997 3.4496e-05 0)
(2.99993 9.01836e-05 0)
(3 -2.84426e-15 0)
(3 2.14557e-14 0)
(3 1.232e-13 0)
(3 3.91592e-13 0)
(3 1.11323e-12 0)
(3 2.52914e-12 0)
(3 6.84559e-12 0)
(3 1.49386e-11 0)
(3 3.9706e-11 0)
(3 8.56445e-11 0)
(3 2.25569e-10 0)
(3 4.85106e-10 0)
(3 1.27312e-09 0)
(3 2.7354e-09 0)
(3 7.16098e-09 0)
(3 1.53755e-08 0)
(3 4.01781e-08 0)
(3 8.62061e-08 0)
(3 2.25071e-07 0)
(3 4.82611e-07 0)
(3 1.26025e-06 0)
(3 2.70134e-06 0)
(2.99999 7.06123e-06 0)
(2.99999 1.51346e-05 0)
(2.99997 3.96175e-05 0)
(3 4.79629e-15 0)
(3 1.99052e-14 0)
(3 4.91255e-14 0)
(3 1.9136e-13 0)
(3 4.3159e-13 0)
(3 1.17641e-12 0)
(3 2.63937e-12 0)
(3 6.926e-12 0)
(3 1.54425e-11 0)
(3 3.97409e-11 0)
(3 8.82874e-11 0)
(3 2.25442e-10 0)
(3 4.99579e-10 0)
(3 1.27141e-09 0)
(3 2.81377e-09 0)
(3 7.14506e-09 0)
(3 1.57967e-08 0)
(3 4.00531e-08 0)
(3 8.8467e-08 0)
(3 2.24179e-07 0)
(3 4.94799e-07 0)
(3 1.2543e-06 0)
(3 2.76761e-06 0)
(2.99999 7.023e-06 0)
(2.99999 1.54973e-05 0)
(3 9.7544e-15 0)
(3 3.64834e-14 0)
(3 6.66268e-14 0)
(3 1.16644e-13 0)
(3 2.52296e-13 0)
(3 5.46353e-13 0)
(3 1.20121e-12 0)
(3 3.03759e-12 0)
(3 6.60872e-12 0)
(3 1.74069e-11 0)
(3 3.76499e-11 0)
(3 9.86544e-11 0)
(3 2.12638e-10 0)
(3 5.56105e-10 0)
(3 1.19776e-09 0)
(3 3.12463e-09 0)
(3 6.72616e-09 0)
(3 1.75078e-08 0)
(3 3.76614e-08 0)
(3 9.78885e-08 0)
(3 2.10442e-07 0)
(3 5.46704e-07 0)
(3 1.17493e-06 0)
(3 3.0532e-06 0)
(2.99999 6.56185e-06 0)
(3 -3.24821e-15 0)
(3 -9.71527e-15 0)
(3 -1.75928e-14 0)
(3 -4.0114e-14 0)
(3 -2.2788e-14 0)
(3 5.37175e-14 0)
(3 3.0397e-13 0)
(3 1.05411e-12 0)
(3 2.61086e-12 0)
(3 6.88132e-12 0)
(3 1.54415e-11 0)
(3 3.95615e-11 0)
(3 8.77798e-11 0)
(3 2.23557e-10 0)
(3 4.94987e-10 0)
(3 1.25753e-09 0)
(3 2.7822e-09 0)
(3 7.05264e-09 0)
(3 1.5589e-08 0)
(3 3.94444e-08 0)
(3 8.7101e-08 0)
(3 2.20169e-07 0)
(3 4.85774e-07 0)
(3 1.22786e-06 0)
(3 2.7078e-06 0)
(3 3.6815e-14 0)
(3 8.2902e-14 0)
(3 1.17764e-13 0)
(3 1.4024e-13 0)
(3 1.67503e-13 0)
(3 2.26e-13 0)
(3 3.1612e-13 0)
(3 5.76539e-13 0)
(3 1.2507e-12 0)
(3 2.53522e-12 0)
(3 6.43488e-12 0)
(3 1.362e-11 0)
(3 3.59636e-11 0)
(3 7.6591e-11 0)
(3 2.02747e-10 0)
(3 4.32069e-10 0)
(3 1.1406e-09 0)
(3 2.43013e-09 0)
(3 6.39629e-09 0)
(3 1.36215e-08 0)
(3 3.57561e-08 0)
(3 7.60969e-08 0)
(3 1.99371e-07 0)
(3 4.24045e-07 0)
(3 1.11009e-06 0)
(3 2.5747e-14 0)
(3 6.85164e-14 0)
(3 1.17616e-13 0)
(3 1.66688e-13 0)
(3 2.13055e-13 0)
(3 2.62503e-13 0)
(3 3.06032e-13 0)
(3 3.82218e-13 0)
(3 5.02263e-13 0)
(3 9.40185e-13 0)
(3 1.71404e-12 0)
(3 4.02265e-12 0)
(3 8.51993e-12 0)
(3 2.16176e-11 0)
(3 4.76111e-11 0)
(3 1.21489e-10 0)
(3 2.68613e-10 0)
(3 6.83163e-10 0)
(3 1.50991e-09 0)
(3 3.82879e-09 0)
(3 8.45504e-09 0)
(3 2.13838e-08 0)
(3 4.71711e-08 0)
(3 1.19087e-07 0)
(3 2.62401e-07 0)
(1.32924 1.10797 0)
(1.77769 0.903964 0)
(1.99975 0.635547 0)
(2.05607 0.36066 0)
(2.02511 0.138334 0)
(1.95409 -0.0127471 0)
(1.87115 -0.0595564 0)
(1.82423 -0.0393597 0)
(1.81887 -0.000479555 0)
(1.8273 0.0288064 0)
(1.84001 0.0392251 0)
(1.85471 0.0337071 0)
(1.86443 0.0223864 0)
(1.87136 0.0107155 0)
(1.87859 0.00333143 0)
(1.88778 0.000703484 0)
(1.89953 0.00105031 0)
(1.91376 0.00203791 0)
(1.92944 0.00239454 0)
(1.94582 0.00185501 0)
(1.9625 0.000752656 0)
(1.97936 -0.000475865 0)
(1.9964 -0.00153055 0)
(2.01368 -0.00228685 0)
(2.03122 -0.00275645 0)
(2.04899 -0.00301327 0)
(2.06695 -0.00313897 0)
(2.08504 -0.00319599 0)
(2.1032 -0.00322193 0)
(2.12137 -0.00323374 0)
(2.13949 -0.0032351 0)
(2.15751 -0.00322258 0)
(2.17537 -0.0031897 0)
(2.19304 -0.00313006 0)
(2.21046 -0.0030395 0)
(2.22762 -0.00291755 0)
(2.24448 -0.00276702 0)
(2.26102 -0.0025907 0)
(2.27723 -0.00239223 0)
(2.29309 -0.00218002 0)
(2.30859 -0.00196131 0)
(2.32371 -0.00173857 0)
(2.33843 -0.00151741 0)
(2.35273 -0.00129563 0)
(2.36659 -0.00107242 0)
(2.37999 -0.000854004 0)
(2.3929 -0.000622433 0)
(2.40529 -0.000371067 0)
(2.41714 -0.000112075 0)
(2.42843 0.000148064 0)
(2.43915 0.000429736 0)
(2.44932 0.000726208 0)
(2.45889 0.00103657 0)
(2.46787 0.0013585 0)
(2.47626 0.00169169 0)
(2.48405 0.00203099 0)
(2.49125 0.0023751 0)
(2.49785 0.00273525 0)
(2.50385 0.00311682 0)
(2.50925 0.00351829 0)
(2.51408 0.00389163 0)
(2.51836 0.00427342 0)
(2.52208 0.00461789 0)
(2.52523 0.00485284 0)
(2.52783 0.0049702 0)
(2.52991 0.0050035 0)
(2.53152 0.0049885 0)
(2.53267 0.00492393 0)
(2.53339 0.00485024 0)
(2.53367 0.0047916 0)
(2.53355 0.00470767 0)
(2.53315 0.00467142 0)
(2.53247 0.00464493 0)
(2.53158 0.00461537 0)
(2.53062 0.00458245 0)
(2.52949 0.00455234 0)
(2.52801 0.00453093 0)
(2.52609 0.00451818 0)
(2.52389 0.00449751 0)
(2.52164 0.00446074 0)
(2.51937 0.00440107 0)
(2.51702 0.00432288 0)
(2.51465 0.0042443 0)
(2.5125 0.00417187 0)
(2.51054 0.00396971 0)
(2.50858 0.00370716 0)
(2.5069 0.00343637 0)
(2.5057 0.00300044 0)
(2.50514 0.00256116 0)
(2.50531 0.00183386 0)
(2.50575 0.000855246 0)
(2.50704 1.33036e-05 0)
(2.50891 -0.0010073 0)
(2.51192 -0.00161392 0)
(2.51572 -0.00243855 0)
(2.52054 -0.0030616 0)
(2.52593 -0.00374096 0)
(2.5318 -0.00411084 0)
(2.53703 -0.00425178 0)
(2.54352 -0.003856 0)
(1.40575 1.01337 0)
(1.74047 0.735588 0)
(1.93753 0.425915 0)
(2.04284 0.153322 0)
(2.10605 -0.0420923 0)
(2.14995 -0.151126 0)
(2.17269 -0.172992 0)
(2.17915 -0.139217 0)
(2.17942 -0.0939609 0)
(2.17155 -0.0551766 0)
(2.16278 -0.028342 0)
(2.16245 -0.018735 0)
(2.16817 -0.0205953 0)
(2.17608 -0.0240224 0)
(2.18614 -0.0272008 0)
(2.19641 -0.0293977 0)
(2.20594 -0.0295963 0)
(2.21505 -0.0284831 0)
(2.2242 -0.0271294 0)
(2.23381 -0.0260328 0)
(2.24399 -0.025249 0)
(2.2547 -0.0246357 0)
(2.26583 -0.024062 0)
(2.2773 -0.0234594 0)
(2.28903 -0.0228108 0)
(2.30098 -0.0221266 0)
(2.31315 -0.0214277 0)
(2.3255 -0.0207364 0)
(2.33803 -0.0200714 0)
(2.3507 -0.019446 0)
(2.36348 -0.0188677 0)
(2.37634 -0.0183359 0)
(2.38924 -0.0178423 0)
(2.40213 -0.0173732 0)
(2.41499 -0.0169138 0)
(2.42778 -0.0164534 0)
(2.44049 -0.0159867 0)
(2.45308 -0.0155074 0)