/*--------------------------------*- C++ -*----------------------------------*\
| =========                 |                                                 |
| \\      /  F ield         | OpenFOAM: The Open Source CFD Toolbox           |
|  \\    /   O peration     | Version:  2112                                  |
|   \\  /    A nd           | Website:  www.openfoam.com                      |
|    \\/     M anipulation  |                                                 |
\*---------------------------------------------------------------------------*/
FoamFile
{
    version     2.0;
    format      ascii;
    arch        "LSB;label=32;scalar=64";
    class       volScalarField;
    location    "15";
    object      T;
}
// * * * * * * * * * * * * * * * * * * * * * * * * * * * * * * * * * * * * * //

dimensions      [0 0 0 1 0 0 0];

internalField   nonuniform List<scalar> 
10000
(
0.997859
1.00271
0.997957
0.998712
0.998852
0.998762
0.998715
0.997955
1.00265
0.997892
0.989166
0.995724
0.991381
0.992714
0.993009
0.992935
0.992715
0.991363
0.995534
0.989299
0.988071
0.99269
0.989887
0.990793
0.991076
0.991139
0.990818
0.98992
0.992592
0.988111
0.986774
0.990008
0.98856
0.989072
0.989279
0.989371
0.989125
0.988642
0.990134
0.986744
0.981212
0.983949
0.983788
0.984401
0.984671
0.984725
0.984452
0.983852
0.984151
0.981249
0.971165
0.973822
0.974722
0.975729
0.9762
0.976235
0.975779
0.97478
0.973982
0.97123
0.956068
0.95898
0.960865
0.962447
0.963218
0.963244
0.962496
0.960935
0.959096
0.956145
0.934635
0.938128
0.941121
0.943445
0.944617
0.944638
0.9435
0.941209
0.938262
0.934768
0.905709
0.91005
0.914284
0.917513
0.919176
0.9192
0.917589
0.914409
0.910233
0.90591
0.868485
0.873853
0.879435
0.883688
0.885909
0.885944
0.883798
0.879615
0.874107
0.868772
0.822589
0.829056
0.836018
0.841367
0.844173
0.844239
0.841533
0.836275
0.829425
0.822957
0.768205
0.77575
0.784034
0.790466
0.793852
0.793961
0.790707
0.784398
0.776262
0.768675
0.706154
0.714663
0.724134
0.731522
0.735462
0.735598
0.731857
0.724638
0.715325
0.706834
0.637901
0.647158
0.657562
0.665726
0.670127
0.670305
0.666189
0.658259
0.64803
0.638855
0.565442
0.575195
0.586202
0.594884
0.599623
0.599834
0.595488
0.587138
0.576342
0.566759
0.49115
0.501095
0.512323
0.521243
0.526167
0.526416
0.52202
0.513557
0.502607
0.492913
0.41761
0.427337
0.438417
0.44729
0.452232
0.452577
0.44832
0.440027
0.429323
0.419879
0.347211
0.356383
0.366973
0.375499
0.380314
0.380785
0.376841
0.369034
0.358922
0.350088
0.28194
0.290363
0.300149
0.308085
0.31266
0.313257
0.309775
0.302732
0.293536
0.285522
0.223383
0.230905
0.239667
0.246838
0.251097
0.251816
0.248911
0.242827
0.234766
0.227762
0.172566
0.179053
0.186664
0.192978
0.196854
0.197714
0.195458
0.19043
0.183644
0.177748
0.129829
0.135255
0.14167
0.147091
0.150549
0.151556
0.14997
0.146031
0.140568
0.135773
0.0949949
0.0994127
0.10466
0.109195
0.112238
0.113372
0.112436
0.109565
0.105373
0.101637
0.0675024
0.0709912
0.0751569
0.078857
0.0814943
0.082728
0.0823846
0.0805015
0.077478
0.0747137
0.0464969
0.0491628
0.0523677
0.0553075
0.0575539
0.0588437
0.0590053
0.0579933
0.0560039
0.0540922
0.0309743
0.0329388
0.0353196
0.0375854
0.0394551
0.0407438
0.0412988
0.04102
0.03992
0.0387338
0.019898
0.0212858
0.0229833
0.0246654
0.0261712
0.0273903
0.0282087
0.0285094
0.0281539
0.0275633
0.0122849
0.0132167
0.0143669
0.0155566
0.0167133
0.0177927
0.0187351
0.019457
0.0197449
0.019658
0.00726046
0.00784776
0.00857842
0.00936688
0.0101974
0.0110737
0.0119908
0.0129389
0.0137414
0.0141182
0.00408936
0.00443114
0.00485763
0.00533653
0.00587974
0.00651729
0.00728976
0.00828441
0.00968461
0.0109373
1.00263
1.00806
1.0031
1.00401
1.0042
1.0042
1.00401
1.00313
1.00798
1.00265
0.995458
1.00428
0.999893
1.00136
1.00177
1.00181
1.00136
1.00001
1.00423
0.995506
0.992687
0.999643
0.997269
0.998001
0.998288
0.998259
0.997986
0.997349
0.999764
0.99261
0.99013
0.994539
0.993475
0.99374
0.993883
0.993788
0.993693
0.993405
0.994483
0.990202
0.984116
0.987045
0.986925
0.987303
0.987499
0.987438
0.987269
0.986845
0.986938
0.984231
0.97393
0.976428
0.977245
0.978003
0.978374
0.978348
0.977994
0.977217
0.976444
0.974048
0.958989
0.961592
0.963351
0.964658
0.965312
0.965308
0.964673
0.963372
0.961734
0.959144
0.938112
0.941196
0.943897
0.945911
0.946945
0.946954
0.945949
0.943964
0.94137
0.938301
0.910035
0.91386
0.917626
0.920487
0.921987
0.922006
0.920553
0.917745
0.914066
0.91027
0.87384
0.878569
0.883521
0.887336
0.889365
0.889397
0.887441
0.883701
0.878832
0.874148
0.829058
0.834766
0.840989
0.84579
0.848402
0.84843
0.845943
0.841245
0.83513
0.829485
0.775769
0.782446
0.789914
0.795678
0.798878
0.798898
0.795898
0.790275
0.782943
0.776349
0.714681
0.722226
0.730759
0.737446
0.741139
0.741214
0.737762
0.731257
0.722879
0.715426
0.647169
0.655406
0.664789
0.672234
0.676334
0.67647
0.672665
0.665463
0.656262
0.648143
0.575191
0.583872
0.593796
0.601774
0.606165
0.606396
0.602376
0.594698
0.584986
0.57646
0.501061
0.509929
0.520063
0.528295
0.532843
0.533187
0.529111
0.521254
0.511373
0.502737
0.42727
0.436059
0.446105
0.454271
0.458865
0.45925
0.455287
0.447639
0.437918
0.429475
0.356311
0.364662
0.37431
0.382181
0.386696
0.387126
0.383441
0.376256
0.367056
0.359084
0.290305
0.297977
0.30693
0.3143
0.318613
0.319149
0.315889
0.309362
0.300981
0.293719
0.230846
0.237712
0.245729
0.252434
0.25643
0.257123
0.254396
0.248701
0.241354
0.234971
0.178962
0.18492
0.191899
0.197817
0.201459
0.202296
0.200169
0.195446
0.189237
0.183849
0.135128
0.140148
0.146057
0.151133
0.154411
0.155372
0.153873
0.150179
0.145145
0.140778
0.0992659
0.103374
0.108223
0.112477
0.115372
0.116457
0.115573
0.112875
0.109001
0.105608
0.0708349
0.0740971
0.0779566
0.0814372
0.0839542
0.0851394
0.0848184
0.0830448
0.0802514
0.0777532
0.0490074
0.0515163
0.0544924
0.0572657
0.0594167
0.0606607
0.0608227
0.0598706
0.0580415
0.0563362
0.0327952
0.0346566
0.0368716
0.0390153
0.0408118
0.0420589
0.0426
0.0423444
0.0413536
0.0403324
0.0211632
0.0224875
0.0240685
0.025664
0.0271153
0.0282984
0.0290956
0.0293951
0.0291116
0.0286608
0.013121
0.0140158
0.0150869
0.0162167
0.0173338
0.0183829
0.0193005
0.0200059
0.0203495
0.0203957
0.00778026
0.00834678
0.00902515
0.00977294
0.0105748
0.0114261
0.012317
0.0132498
0.014069
0.0145999
0.00438845
0.00471821
0.00511073
0.00556199
0.00608406
0.00670066
0.00744704
0.00843447
0.00988539
0.0111815
0.997968
1.00315
0.997863
0.998661
0.99885
0.998867
0.998639
0.997862
1.00315
0.997954
0.991377
0.999963
0.995102
0.996456
0.996917
0.99699
0.996486
0.995228
1.00004
0.991351
0.989901
0.997288
0.994527
0.995128
0.995497
0.995531
0.995188
0.994673
0.997335
0.989928
0.988567
0.99345
0.992456
0.992685
0.992907
0.992908
0.992717
0.992485
0.99335
0.988695
0.983786
0.986885
0.987052
0.987464
0.987701
0.987696
0.987476
0.987038
0.986793
0.983929
0.974724
0.977216
0.978209
0.978979
0.979352
0.979348
0.978984
0.978191
0.977189
0.974862
0.960875
0.963338
0.965054
0.966303
0.966922
0.966921
0.966312
0.965051
0.963368
0.961009
0.941131
0.943894
0.946377
0.948232
0.949186
0.949191
0.948253
0.946409
0.943976
0.941279
0.914289
0.917625
0.920993
0.923572
0.924932
0.924948
0.92362
0.921076
0.917768
0.914487
0.879428
0.883517
0.887882
0.89128
0.893102
0.89313
0.891367
0.88803
0.883737
0.879702
0.836022
0.84095
0.846375
0.85064
0.852958
0.853001
0.850779
0.846603
0.841267
0.836398
0.78406
0.78983
0.796302
0.801429
0.804244
0.804307
0.801637
0.796634
0.790275
0.784574
0.724152
0.730697
0.738118
0.74404
0.747311
0.747405
0.744334
0.738582
0.731303
0.72485
0.657573
0.664751
0.672943
0.679525
0.683179
0.683311
0.679926
0.673574
0.665561
0.658513
0.586185
0.593788
0.602504
0.609557
0.613493
0.613678
0.610094
0.603346
0.594856
0.587426
0.512278
0.520065
0.529013
0.536304
0.540407
0.54066
0.537019
0.530119
0.521449
0.51389
0.438349
0.446059
0.454943
0.462225
0.466374
0.466705
0.46316
0.456374
0.447833
0.440413
0.366854
0.374237
0.382779
0.389818
0.393895
0.394315
0.391014
0.384595
0.376481
0.369453
0.29998
0.306831
0.314781
0.321383
0.325281
0.325803
0.322876
0.317042
0.309614
0.303189
0.239448
0.245611
0.252777
0.258794
0.262433
0.263074
0.26062
0.255534
0.248986
0.243321
0.186391
0.191771
0.198036
0.203369
0.206701
0.20747
0.205555
0.201323
0.195773
0.190963
0.141346
0.145906
0.151222
0.155825
0.158826
0.159723
0.158374
0.155045
0.150539
0.146618
0.104294
0.108048
0.112428
0.116303
0.118964
0.11998
0.119189
0.116754
0.113278
0.110224
0.0747663
0.0777679
0.0812705
0.0844525
0.0867769
0.087888
0.0876135
0.0860181
0.0835117
0.0812655
0.0519775
0.0543037
0.057016
0.0595612
0.0615569
0.0627261
0.0628979
0.0620559
0.060428
0.0589076
0.0349576
0.0366974
0.0387238
0.0406983
0.0423722
0.0435477
0.0440726
0.0438756
0.0430241
0.0421429
0.0226741
0.0239216
0.0253718
0.0268456
0.0282027
0.0293208
0.0300852
0.0304065
0.0302234
0.0298884
0.014127
0.0149756
0.0159587
0.0170038
0.0180507
0.0190431
0.0199193
0.0206215
0.0210427
0.0212088
0.00841201
0.00895157
0.00957199
0.0102627
0.011014
0.0118183
0.0126664
0.0135792
0.014457
0.015121
0.00475635
0.00507043
0.00542554
0.00583935
0.00632631
0.00690614
0.007613
0.00856905
0.0100713
0.0115305
0.998725
1.00404
0.998648
0.999469
0.999678
0.999679
0.999449
0.998629
1.00403
0.998705
0.992726
1.00137
0.996431
0.997734
0.998193
0.99822
0.997739
0.996493
1.00141
0.992664
0.990823
0.997986
0.995126
0.995592
0.995931
0.995955
0.995623
0.995226
0.997979
0.990817
0.98908
0.993729
0.992698
0.992808
0.992996
0.993008
0.992838
0.992736
0.993628
0.989205
0.984403
0.987292
0.987471
0.987807
0.98801
0.988013
0.987824
0.987473
0.987208
0.98456
0.975739
0.977988
0.978977
0.979697
0.980038
0.98004
0.97971
0.978974
0.977959
0.975889
0.962449
0.964644
0.966298
0.967481
0.968058
0.968061
0.967496
0.966305
0.964668
0.962598
0.943436
0.945898
0.948224
0.949954
0.950839
0.950845
0.949978
0.948259
0.945973
0.9436
0.917495
0.920476
0.923564
0.92593
0.927178
0.927192
0.925975
0.923642
0.920605
0.917702
0.883662
0.887323
0.891274
0.894354
0.896009
0.896035
0.894432
0.891408
0.887524
0.883938
0.841342
0.84576
0.850635
0.854475
0.856567
0.856607
0.8546
0.850845
0.84606
0.841715
0.790442
0.795628
0.801421
0.806021
0.80855
0.80861
0.80621
0.801731
0.796053
0.790947
0.731489
0.737386
0.74402
0.749323
0.752259
0.752349
0.749595
0.744456
0.737966
0.73217
0.665674
0.67216
0.679484
0.685378
0.688662
0.688789
0.685754
0.68008
0.672933
0.666582
0.594792
0.601686
0.609491
0.615811
0.619357
0.619531
0.616319
0.610287
0.6027
0.595981
0.521092
0.528176
0.536213
0.542757
0.546461
0.546695
0.543429
0.537253
0.529485
0.522626
0.447063
0.454101
0.462106
0.468658
0.472409
0.472714
0.469528
0.463441
0.455768
0.449009
0.375182
0.381947
0.389664
0.396017
0.39971
0.400098
0.397124
0.391349
0.384038
0.377608
0.307678
0.313978
0.321179
0.327155
0.330697
0.331181
0.328537
0.32327
0.316553
0.31065
0.24633
0.25202
0.258531
0.263992
0.26731
0.267904
0.265682
0.261076
0.255131
0.249903
0.192347
0.197337
0.203047
0.207901
0.210948
0.211661
0.209924
0.206079
0.201019
0.19656
0.146338
0.150591
0.155451
0.159654
0.162405
0.163238
0.162013
0.15898
0.154855
0.151202
0.108349
0.111868
0.115886
0.119435
0.121882
0.122827
0.122111
0.119888
0.116695
0.113839
0.0779563
0.0807844
0.0840077
0.0869299
0.0890755
0.0901116
0.0898718
0.0884173
0.0861121
0.0840062
0.0544038
0.056607
0.0591093
0.0614534
0.0633021
0.0643962
0.0645711
0.0638137
0.0623242
0.0609035
0.0367368
0.0383931
0.0402661
0.042089
0.043645
0.0447488
0.0452548
0.0451013
0.0443444
0.0435391
0.0239264
0.0251194
0.026461
0.0278238
0.0290888
0.030142
0.0308742
0.0312112
0.0310976
0.0308304
0.0149673
0.0157814
0.0166895
0.017656
0.0186338
0.0195706
0.0204093
0.0211103
0.0215843
0.0218231
0.00894357
0.00946142
0.0100315
0.0106686
0.0113703
0.0121295
0.0129396
0.0138364
0.0147572
0.015507
0.00506757
0.00536792
0.00569033
0.00606918
0.00652244
0.00706845
0.00774181
0.00867674
0.0102144
0.0117701
0.99872
1.00428
0.998866
0.99963
0.999842
0.999842
0.999617
0.998854
1.00429
0.998706
0.99286
1.00188
0.996981
0.998204
0.998642
0.998653
0.998208
0.997034
1.00193
0.992819
0.991216
0.998106
0.995493
0.99595
0.996283
0.996298
0.995976
0.995586
0.998118
0.991217
0.989387
0.993735
0.992884
0.992972
0.993149
0.993162
0.993
0.992928
0.993661
0.989502
0.984716
0.987429
0.98768
0.98799
0.988174
0.988181
0.988006
0.987687
0.98736
0.984869
0.976217
0.97834
0.979335
0.980027
0.980345
0.98035
0.98004
0.979334
0.978314
0.976376
0.963216
0.965291
0.966907
0.968051
0.9686
0.968605
0.968067
0.966917
0.965312
0.963373
0.944595
0.946928
0.949168
0.950832
0.951675
0.951683
0.950857
0.949207
0.946996
0.944766
0.919136
0.921973
0.924913
0.92717
0.928356
0.928369
0.927214
0.924991
0.922088
0.919351
0.885859
0.889339
0.893082
0.895999
0.897565
0.897589
0.896074
0.893212
0.889528
0.886138
0.84413
0.848322
0.852931
0.856548
0.858518
0.858557
0.856668
0.853131
0.848615
0.844502
0.793808
0.798734
0.804197
0.808519
0.810895
0.810955
0.8087
0.804493
0.79915
0.794314
0.735381
0.740984
0.747232
0.752213
0.754969
0.755057
0.752475
0.747656
0.741556
0.73606
0.669991
0.67616
0.683056
0.688591
0.691676
0.691799
0.688957
0.68364
0.676924
0.670891
0.599394
0.605971
0.613317
0.619256
0.62259
0.622758
0.619749
0.614096
0.606961
0.60057
0.525819
0.532596
0.54017
0.546322
0.549807
0.550031
0.546969
0.541177
0.533864
0.527327
0.451752
0.458493
0.466056
0.472219
0.475753
0.476044
0.473054
0.467337
0.460103
0.453649
0.379678
0.386166
0.39347
0.399455
0.402938
0.403308
0.400514
0.39508
0.388174
0.382021
0.311846
0.317898
0.324725
0.330364
0.333708
0.334171
0.331682
0.326717
0.320358
0.314695
0.250069
0.255546
0.261726
0.266888
0.270026
0.270593
0.268499
0.264148
0.258504
0.253476
0.195592
0.200413
0.205837
0.210432
0.213319
0.213998
0.212358
0.208719
0.203902
0.199602
0.149064
0.153194
0.157813
0.161796
0.164407
0.1652
0.164043
0.161165
0.157229
0.153696
0.110573
0.113993
0.117822
0.121191
0.123517
0.124418
0.123742
0.121629
0.118575
0.115805
0.0797153
0.0824644
0.085544
0.0883222
0.0903645
0.0913551
0.0911318
0.0897496
0.087541
0.0854972
0.0557467
0.0578968
0.0602879
0.0625191
0.0642821
0.0653304
0.0655043
0.0647895
0.0633652
0.0619891
0.0377264
0.0393464
0.0411372
0.0428741
0.0443605
0.0454208
0.045914
0.0457818
0.0450691
0.0442988
0.0246266
0.0257955
0.0270781
0.0283771
0.0295876
0.0306017
0.0313145
0.0316588
0.0315776
0.0313427
0.01544
0.0162378
0.0171048
0.0180257
0.0189623
0.0198661
0.020683
0.0213828
0.0218834
0.0221575
0.00924436
0.00975114
0.0102934
0.0108992
0.0115715
0.0123045
0.0130938
0.013984
0.0149256
0.0157166
0.00524436
0.00553752
0.00584161
0.0062001
0.00663367
0.00716053
0.00781624
0.00874049
0.0102946
0.011891
0.998861
1.0042
0.99884
0.999667
0.999884
0.999881
0.999653
0.998827
1.00421
0.998844
0.993007
1.00176
0.996896
0.99818
0.998639
0.998646
0.998183
0.99695
1.00182
0.992945
0.991061
0.998308
0.995509
0.995933
0.996263
0.996276
0.995957
0.995597
0.998317
0.991048
0.989268
0.993912
0.992923
0.993004
0.993178
0.99319
0.993028
0.992962
0.99383
0.989384
0.984673
0.987509
0.987703
0.988011
0.988194
0.988201
0.988025
0.987708
0.987436
0.98483
0.976202
0.978375
0.979348
0.980037
0.980354
0.980359
0.98005
0.979345
0.978344
0.976366
0.963212
0.965311
0.966914
0.968057
0.968604
0.968609
0.968072
0.966923
0.965324
0.963376
0.94458
0.946969
0.949176
0.950838
0.951681
0.951688
0.950862
0.949212
0.947005
0.944777
0.919108
0.922052
0.924927
0.927179
0.928364
0.928378
0.927223
0.925
0.922101
0.919367
0.885863
0.889372
0.8931
0.896014
0.897579
0.897603
0.896089
0.893228
0.889548
0.886161
0.844162
0.848298
0.85295
0.856569
0.858539
0.858579
0.856691
0.853155
0.848644
0.844534
0.793836
0.798725
0.804221
0.808547
0.810923
0.810985
0.808733
0.804528
0.79919
0.794355
0.735411
0.741
0.747262
0.752248
0.755006
0.755097
0.752518
0.747703
0.741607
0.736112
0.670014
0.676211
0.683096
0.688636
0.691723
0.69185
0.68901
0.683697
0.676985
0.670954
0.599394
0.60607
0.613371
0.619311
0.622646
0.622817
0.619811
0.614163
0.607033
0.600643
0.525819
0.53269
0.54023
0.546383
0.549871
0.550097
0.547039
0.541253
0.533943
0.527409
0.451778
0.45853
0.466115
0.472284
0.475821
0.476115
0.47313
0.467417
0.460187
0.453735
0.379722
0.386179
0.393528
0.399521
0.403009
0.403383
0.400593
0.395163
0.38826
0.382109
0.311891
0.317925
0.32478
0.330429
0.333778
0.334245
0.331761
0.326799
0.320442
0.31478
0.25011
0.255586
0.261781
0.266951
0.270094
0.270665
0.268573
0.264226
0.258584
0.253556
0.195633
0.200454
0.20589
0.210491
0.213382
0.214065
0.212427
0.20879
0.203975
0.199675
0.149107
0.153227
0.157861
0.161849
0.164464
0.16526
0.164104
0.161228
0.157293
0.15376
0.110612
0.114028
0.117866
0.121238
0.123566
0.124469
0.123795
0.121683
0.11863
0.11586
0.0797481
0.0824997
0.085581
0.0883621
0.0904065
0.0913984
0.0911761
0.0897946
0.0875865
0.0855421
0.0557759
0.0579244
0.0603185
0.0625519
0.0643164
0.0653657
0.0655401
0.0648258
0.0634018
0.0620253
0.0377503
0.0393692
0.0411618
0.0429
0.0443876
0.0454486
0.045942
0.0458101
0.045098
0.0443277
0.0246453
0.0258139
0.0270972
0.028397
0.0296083
0.0306228
0.0313357
0.0316802
0.0315991
0.0313644
0.0154536
0.016252
0.0171192
0.0180406
0.0189777
0.0198816
0.0206981
0.0213973
0.0219
0.0221781
0.00925373
0.00976157
0.0103038
0.01091
0.0115827
0.0123159
0.0131055
0.0139972
0.0149372
0.0157229
0.00525061
0.00554448
0.00584874
0.00620758
0.00664152
0.00716868
0.00782464
0.00874882
0.0103053
0.0119112
0.9987
1.00403
0.998654
0.999452
0.999657
0.999653
0.999436
0.998636
1.00404
0.99868
0.992676
1.00139
0.996469
0.997737
0.998189
0.998192
0.997735
0.996512
1.00145
0.992612
0.990783
0.998013
0.995166
0.995611
0.995944
0.995954
0.99563
0.995249
0.998022
0.990763
0.989108
0.993717
0.992701
0.992824
0.993012
0.993022
0.992844
0.992735
0.993628
0.989218
0.984438
0.987277
0.987462
0.987811
0.988015
0.988021
0.987824
0.987466
0.987198
0.984595
0.97576
0.977991
0.978972
0.979701
0.980043
0.980048
0.979713
0.978971
0.977959
0.975923
0.962463
0.964661
0.966297
0.967487
0.968066
0.968071
0.967502
0.966307
0.964677
0.962632
0.943444
0.945928
0.94823
0.949966
0.950852
0.950861
0.949993
0.948271
0.945994
0.943639
0.91751
0.920521
0.923585
0.925954
0.927203
0.927218
0.926003
0.92367
0.920645
0.917752
0.883694
0.887376
0.891317
0.894397
0.896054
0.89608
0.894481
0.89146
0.887588
0.884011
0.841391
0.845821
0.850702
0.854542
0.856633
0.856676
0.854675
0.850924
0.846151
0.841816
0.790509
0.795704
0.801509
0.806112
0.80864
0.808708
0.806314
0.801841
0.796175
0.791077
0.731572
0.737478
0.744125
0.749438
0.752377
0.752476
0.74973
0.744599
0.738121
0.732331
0.665764
0.67227
0.679606
0.685516
0.688807
0.688944
0.685919
0.680256
0.67312
0.666773
0.594886
0.601821
0.609634
0.615971
0.619528
0.619712
0.616511
0.610492
0.602916
0.596201
0.521195
0.528326
0.536377
0.542937
0.546654
0.546898
0.543643
0.537482
0.529723
0.522867
0.44718
0.454252
0.462285
0.468853
0.472618
0.472932
0.469759
0.463684
0.45602
0.449265
0.375312
0.382099
0.389849
0.39622
0.399927
0.400325
0.397363
0.391599
0.384297
0.37787
0.307804
0.314138
0.321362
0.327357
0.330913
0.331409
0.328775
0.323517
0.316807
0.310904
0.246443
0.252187
0.258706
0.264185
0.267517
0.268122
0.265909
0.261311
0.25537
0.250141
0.192457
0.197483
0.203211
0.208081
0.21114
0.211862
0.210132
0.206295
0.201237
0.196776
0.146447
0.150711
0.1556
0.159815
0.162578
0.163418
0.162199
0.15917
0.155047
0.151393
0.10845
0.111976
0.116016
0.119576
0.122032
0.122983
0.122272
0.120051
0.11686
0.114001
0.0780464
0.0808801
0.0841174
0.0870495
0.0892019
0.0902424
0.0900053
0.0885527
0.0862481
0.084141
0.0544806
0.0566881
0.0591996
0.0615511
0.063405
0.0645021
0.0646786
0.0639227
0.0624335
0.0610122
0.0367996
0.038459
0.040338
0.0421662
0.0437258
0.0448317
0.0453385
0.0451861
0.0444302
0.0436248
0.0239754
0.0251709
0.0265162
0.0278826
0.0291504
0.0302048
0.0309374
0.0312752
0.031163
0.0308966
0.0150038
0.0158199
0.0167305
0.0176995
0.0186791
0.0196167
0.0204552
0.0211569
0.0216332
0.0218744
0.00896935
0.00948898
0.0100608
0.0106997
0.0114028
0.0121627
0.0129725
0.0138701
0.0147924
0.0155444
0.00508489
0.00538665
0.00571032
0.00609054
0.00654501
0.00709178
0.00776525
0.00870031
0.0102407
0.0117997
0.997959
1.00314
0.997869
0.99865
0.998847
0.998845
0.998637
0.997856
1.00315
0.99794
0.991355
0.999993
0.99521
0.996487
0.996938
0.996948
0.996504
0.995282
1.00009
0.991305
0.9899
0.997347
0.994651
0.995204
0.995563
0.995579
0.995242
0.994769
0.997406
0.989892
0.988614
0.993422
0.992467
0.992711
0.992932
0.992941
0.99273
0.992504
0.993325
0.988719
0.983816
0.986846
0.987023
0.987455
0.987692
0.987697
0.987462
0.987021
0.986748
0.983967
0.974743
0.977204
0.978177
0.978964
0.97934
0.979344
0.978969
0.978166
0.977157
0.9749
0.960893
0.963357
0.965033
0.966297
0.96692
0.966924
0.966308
0.965035
0.96336
0.961053
0.941138
0.943929
0.946381
0.948246
0.949203
0.949211
0.948272
0.946419
0.944002
0.941338
0.914309
0.917686
0.921034
0.923616
0.924978
0.924995
0.923669
0.921124
0.917833
0.914569
0.879482
0.883609
0.887963
0.891362
0.893185
0.893215
0.891456
0.888124
0.883849
0.879825
0.836104
0.841062
0.846493
0.850765
0.853081
0.853131
0.850916
0.846747
0.841431
0.836574
0.784167
0.789965
0.796458
0.801598
0.804409
0.804484
0.801824
0.79683
0.79049
0.784801
0.724285
0.730856
0.738306
0.744247
0.74752
0.747629
0.744572
0.738831
0.73157
0.725128
0.657727
0.664935
0.673155
0.679765
0.683431
0.683582
0.680212
0.673874
0.665876
0.658835
0.586357
0.594009
0.602748
0.60983
0.613788
0.613992
0.610426
0.603695
0.595215
0.587792
0.512461
0.520306
0.52929
0.536609
0.540739
0.541007
0.537386
0.530508
0.521845
0.514291
0.438543
0.446308
0.455246
0.462557
0.466732
0.467076
0.463551
0.456787
0.448254
0.440835
0.367067
0.374493
0.383092
0.390165
0.394266
0.394702
0.39142
0.385018
0.376913
0.369882
0.300201
0.307089
0.315087
0.321726
0.32565
0.326192
0.32328
0.317458
0.310037
0.303607
0.239658
0.245863
0.253068
0.259118
0.262785
0.263445
0.261004
0.255928
0.249383
0.243712
0.186585
0.192005
0.198307
0.203668
0.207025
0.20781
0.205906
0.201683
0.196133
0.191317
0.141522
0.146114
0.151467
0.156094
0.159115
0.160025
0.158685
0.155362
0.150856
0.146927
0.104453
0.108231
0.112642
0.116538
0.119215
0.120241
0.119456
0.117024
0.113548
0.110486
0.0749048
0.0779238
0.0814502
0.0846502
0.0869872
0.0881066
0.0878365
0.086243
0.0837352
0.081484
0.0520938
0.0544324
0.057162
0.0597214
0.0617269
0.0629023
0.0630772
0.0622366
0.0606078
0.0590848
0.0350511
0.0367999
0.0388383
0.0408232
0.0425045
0.0436846
0.0442118
0.0440163
0.0431655
0.042284
0.022746
0.024
0.0254584
0.0269396
0.0283022
0.0294237
0.03019
0.0305131
0.030332
0.0299994
0.0141799
0.0150332
0.0160219
0.0170722
0.0181231
0.0191181
0.0199955
0.0207001
0.0211255
0.0212972
0.00844918
0.00899225
0.00961645
0.0103109
0.0110652
0.0118716
0.0127211
0.0136373
0.0145188
0.0151877
0.00478125
0.00509781
0.00545548
0.00587192
0.00636128
0.00694304
0.007651
0.00861062
0.0101209
0.0115856
1.00264
1.00796
1.00313
1.00402
1.0042
1.0042
1.00402
1.00314
1.008
1.00263
0.995511
1.00419
0.999993
1.00138
1.00179
1.0018
1.00141
1.00008
1.00431
0.995452
0.992563
0.999821
0.997326
0.998
0.998334
0.998344
0.998017
0.997407
0.999829
0.992539
0.990076
0.994613
0.99336
0.993656
0.993862
0.993859
0.993635
0.99333
0.994373
0.990192
0.984128
0.986977
0.986788
0.987222
0.987459
0.987455
0.987204
0.986751
0.986833
0.984274
0.973989
0.976414
0.977175
0.977963
0.978355
0.978356
0.977961
0.977159
0.976409
0.974128
0.959047
0.961753
0.963352
0.964667
0.965328
0.965332
0.96468
0.963361
0.961757
0.959241
0.938213
0.94134
0.943946
0.945961
0.946996
0.947006
0.945996
0.944002
0.941441
0.938413
0.910183
0.913983
0.917719
0.920576
0.922074
0.922096
0.920644
0.917832
0.914181
0.910409
0.873929
0.878748
0.883658
0.887472
0.889498
0.889534
0.887582
0.883847
0.879
0.874327
0.829136
0.834907
0.841133
0.845965
0.848556
0.848613
0.846138
0.841428
0.835342
0.829694
0.775897
0.78255
0.790061
0.795894
0.799048
0.799134
0.796151
0.790484
0.783198
0.776593
0.714841
0.72238
0.730971
0.737717
0.741393
0.741515
0.738079
0.731558
0.723206
0.71575
0.647359
0.655652
0.665066
0.67256
0.676675
0.676841
0.673053
0.665856
0.656666
0.648547
0.575377
0.584214
0.594152
0.602164
0.606597
0.606819
0.602815
0.595185
0.585463
0.576933
0.501239
0.510266
0.520471
0.528733
0.533348
0.533638
0.52958
0.521801
0.511898
0.503251
0.42751
0.436326
0.446507
0.454736
0.45939
0.459765
0.455823
0.448193
0.438471
0.430016
0.3566
0.364949
0.374723
0.38266
0.387217
0.387692
0.38403
0.376832
0.367633
0.359653
0.290584
0.298309
0.30734
0.314761
0.319107
0.319696
0.316456
0.309931
0.30154
0.294272
0.231098
0.238044
0.246126
0.252865
0.25691
0.257626
0.254916
0.249245
0.241873
0.235488
0.179204
0.185232
0.192281
0.198231
0.201921
0.20277
0.200658
0.195955
0.189728
0.184325
0.135361
0.140428
0.1464
0.151517
0.154823
0.155806
0.154319
0.150626
0.145586
0.141194
0.0994731
0.103616
0.108515
0.112807
0.115725
0.116828
0.115952
0.113251
0.109372
0.105956
0.071011
0.0742996
0.0781971
0.0817075
0.0842439
0.0854429
0.085128
0.0833528
0.0805522
0.0780379
0.0491513
0.0516797
0.0546834
0.0574798
0.0596466
0.0609011
0.061068
0.0601158
0.0582809
0.0565641
0.032908
0.0347839
0.0370185
0.0391792
0.040988
0.0422434
0.0427888
0.0425349
0.0415412
0.0405126
0.0212485
0.0225832
0.0241778
0.0257853
0.027246
0.028436
0.0292372
0.02954
0.0292563
0.0288019
0.0131829
0.014085
0.0151654
0.0163037
0.0174279
0.0184824
0.0194037
0.0201144
0.0204616
0.0205089
0.00782354
0.00839503
0.00907953
0.00983333
0.0106405
0.0114962
0.0123913
0.0133312
0.0141528
0.0146835
0.0044173
0.00475034
0.00514686
0.00560227
0.0061282
0.00674846
0.00749814
0.00849452
0.00995265
0.0112579
0.997902
1.00265
0.997968
0.998702
0.998846
0.998842
0.99869
0.997949
1.00263
0.997906
0.98934
0.995518
0.991356
0.992646
0.992934
0.992926
0.992618
0.991317
0.995457
0.989334
0.988073
0.992613
0.989898
0.990756
0.990994
0.99099
0.990743
0.98989
0.992539
0.988092
0.986645
0.990225
0.988653
0.989166
0.989341
0.989351
0.989193
0.988709
0.990188
0.986771
0.981192
0.984254
0.983891
0.984539
0.984797
0.984811
0.984575
0.983959
0.98427
0.981319
0.971184
0.974042
0.974826
0.975867
0.97633
0.976345
0.975909
0.974894
0.974125
0.971311
0.95606
0.959132
0.960973
0.962572
0.963342
0.963357
0.962621
0.961047
0.959238
0.956242
0.934659
0.93827
0.941227
0.943566
0.944743
0.944763
0.943629
0.941332
0.938409
0.934896
0.905725
0.910201
0.914407
0.917653
0.919322
0.91935
0.91774
0.914564
0.910405
0.906083
0.868551
0.874003
0.879592
0.883866
0.886092
0.886133
0.883992
0.879818
0.874321
0.868994
0.82277
0.829203
0.836242
0.8416
0.844425
0.844488
0.841789
0.83656
0.829686
0.823269
0.768423
0.775926
0.784334
0.790761
0.794187
0.79428
0.791036
0.784777
0.776582
0.769096
0.706379
0.714884
0.724474
0.73188
0.735863
0.735993
0.732266
0.725094
0.715734
0.707307
0.638106
0.647443
0.657941
0.666148
0.670596
0.670774
0.666676
0.658788
0.648526
0.639379
0.565627
0.575533
0.586609
0.595363
0.600145
0.600382
0.596062
0.587725
0.576905
0.56733
0.491425
0.501433
0.512768
0.521766
0.52673
0.52704
0.522673
0.514201
0.503215
0.493543
0.417953
0.427677
0.438911
0.447842
0.452831
0.45323
0.449001
0.440717
0.42997
0.420541
0.347536
0.356747
0.367478
0.376063
0.380935
0.381439
0.37752
0.36973
0.359596
0.350723
0.28225
0.29075
0.300646
0.308653
0.313287
0.313911
0.310451
0.303413
0.2942
0.286143
0.223685
0.231296
0.240137
0.24739
0.251693
0.252449
0.249562
0.243466
0.235399
0.22834
0.17285
0.17941
0.187094
0.193481
0.197394
0.198289
0.196046
0.191005
0.184214
0.178252
0.130085
0.135562
0.14205
0.147528
0.151023
0.152054
0.150479
0.146533
0.141053
0.13621
0.0952173
0.0996736
0.104982
0.109564
0.112638
0.113792
0.112864
0.109987
0.105778
0.102008
0.0676889
0.0712069
0.0754195
0.0791574
0.0818209
0.0830708
0.0827336
0.080846
0.0778083
0.0750194
0.0466476
0.0493352
0.0525745
0.0555439
0.0578111
0.0591141
0.0592811
0.0582672
0.0562678
0.0543389
0.0310916
0.0330719
0.0354776
0.0377653
0.0396512
0.0409506
0.0415112
0.0412334
0.0401279
0.0389307
0.0199861
0.0213853
0.0231001
0.0247979
0.0263159
0.0275442
0.0283685
0.028673
0.0283163
0.0277197
0.0123484
0.0132883
0.0144504
0.0156511
0.0168171
0.0179042
0.0188526
0.0195811
0.0198729
0.0197844
0.00730453
0.00789751
0.00863599
0.00943214
0.0102696
0.0111523
0.0120754
0.0130321
0.013841
0.0142188
0.00411862
0.00446416
0.00489574
0.00537991
0.00592828
0.00657107
0.0073491
0.00835332
0.00976725
0.0110213
0.0021841
0.00236335
0.00258552
0.00284323
0.00315341
0.00354402
0.00405607
0.00473053
0.00583616
0.00707722
0.00109988
0.00118168
0.00128063
0.00139824
0.00154677
0.00174325
0.00201531
0.00239145
0.00299849
0.00394749
0.000518971
0.000549577
0.000584385
0.00062686
0.000683481
0.000762018
0.000874399
0.00103591
0.00127842
0.00167119
0.000227909
0.000235967
0.000243589
0.000253748
0.000269212
0.000292416
0.000326591
0.000375852
0.000445858
0.0005503
9.25301e-05
9.29565e-05
9.23153e-05
9.24923e-05
9.43753e-05
9.86152e-05
0.000105847
0.000116797
0.00013243
0.00015542
3.45233e-05
3.3429e-05
3.15811e-05
3.0031e-05
2.91194e-05
2.8922e-05
2.94641e-05
3.0765e-05
3.28987e-05
3.637e-05
1.17691e-05
1.08798e-05
9.66204e-06
8.62819e-06
7.8643e-06
7.34007e-06
7.00545e-06
6.80687e-06
6.70936e-06
6.82413e-06
3.6419e-06
3.18386e-06
2.63585e-06
2.19054e-06
1.85824e-06
1.61138e-06
1.41938e-06
1.25659e-06
1.10556e-06
1.00263e-06
1.01607e-06
8.37376e-07
6.43265e-07
4.94272e-07
3.86956e-07
3.08091e-07
2.4628e-07
1.92923e-07
1.44845e-07
1.13907e-07
2.55856e-07
1.98888e-07
1.41779e-07
1.00466e-07
7.22219e-08
5.23763e-08
3.75412e-08
2.54182e-08
1.58441e-08
1.16911e-08
0.00233926
0.002511
0.00271121
0.00294991
0.00324402
0.00361704
0.00410687
0.00474677
0.00588989
0.00721322
0.00116912
0.00124601
0.001331
0.0014356
0.00157187
0.00175348
0.00200602
0.00235092
0.00293168
0.00394594
0.000542936
0.00057045
0.00059707
0.000631449
0.00067978
0.000747894
0.000845856
0.000985755
0.0011948
0.00157504
0.000232206
0.000238612
0.000242316
0.000248614
0.000259966
0.000277964
0.000304848
0.000343361
0.000396899
0.000482731
9.08795e-05
9.07178e-05
8.86546e-05
8.73141e-05
8.76596e-05
8.9989e-05
9.45942e-05
0.000101733