/*--------------------------------*- C++ -*----------------------------------*\
| =========                 |                                                 |
| \\      /  F ield         | OpenFOAM: The Open Source CFD Toolbox           |
|  \\    /   O peration     | Version:  2112                                  |
|   \\  /    A nd           | Website:  www.openfoam.com                      |
|    \\/     M anipulation  |                                                 |
\*---------------------------------------------------------------------------*/
FoamFile
{
    version     2.0;
    format      ascii;
    arch        "LSB;label=32;scalar=64";
    class       volScalarField;
    location    "11";
    object      p;
}
// * * * * * * * * * * * * * * * * * * * * * * * * * * * * * * * * * * * * * //

dimensions      [0 2 -2 0 0 0 0];

internalField   nonuniform List<scalar> 
400
(
-8.1466398e-08
-0.00066917824
-0.001375866
-0.0019272763
-0.0021988698
-0.0021304623
-0.001698048
-0.00089426008
0.00026780085
0.0017385237
0.0034159346
0.0051380788
0.0066974838
0.0078732241
0.0084852636
0.0084558371
0.0078524511
0.0068907812
0.0059122801
0.0053515953
0.00065412033
-4.0161266e-05
-0.00056483955
-0.00093089548
-0.0010960208
-0.001020086
-0.00068143657
-6.7560305e-05
0.00081945546
0.001947525
0.003240759
0.0045851333
0.0058119772
0.0067470982
0.0072479074
0.0072524274
0.0068133554
0.0061015894
0.005363112
0.0047929292
0.0014139579
0.00043692374
-0.00011561315
-0.00044745765
-0.00060369047
-0.0005679905
-0.00032405877
0.00014740008
0.00086012121
0.0018040861
0.002929495
0.0041334486
0.005263488
0.0061470207
0.0066322448
0.0066400276
0.0062032089
0.0054741583
0.0046504299
0.0038072509
0.001998671
0.00067448558
1.4974331e-05
-0.0003553974
-0.0005618955
-0.00060983237
-0.00048589371
-0.00015936901
0.00040559518
0.0012254798
0.0022729618
0.0034608445
0.0046344068
0.0056000295
0.006168082
0.0062143379
0.0057361443
0.0048748749
0.0038098912
0.0025401378
0.002148499
0.00048761767
-0.00029856043
-0.00074485313
-0.0010467211
-0.0012246001
-0.0012621616
-0.0011110833
-0.00070667772
1.0035125e-06
0.0010139404
0.0022675953
0.0036007325
0.0047871366
0.0055758821
0.0057655197
0.0052886709
0.004266143
0.0028762766
0.0010598804
0.0016364436
-0.00032049029
-0.0012378072
-0.0017908836
-0.0022344911
-0.0025978311
-0.0028554354
-0.0029350403
-0.0027354722
-0.0021628056
-0.0011726198
0.00020989059
0.0018209539
0.0033993292
0.0046102935
0.0051330066
0.0047862933
0.0036392269
0.0018686405
-0.00063907057
0.00027667872
-0.0019181215
-0.0029638618
-0.0036532204
-0.0042898088
-0.0049074307
-0.0054673853
-0.005868461
-0.0059649987
-0.0056027505
-0.0046651166
-0.0031485217
-0.0011610042
0.0010051935
0.0029130997
0.0040706989
0.0041066655
0.0029712657
0.00080466638
-0.0025816015
-0.0020730819
-0.0044368573
-0.0056042895
-0.0064590319
-0.0073444117
-0.0082981891
-0.0092680827
-0.010121801
-0.010662464
-0.010662642
-0.009913851
-0.00831195
-0.005897274
-0.0029509625
-7.5291508e-06
0.002219044
0.0030621623
0.0022318365
-0.0002656147
-0.004761288
-0.0055010692
-0.0079599568
-0.0092373983
-0.010280787
-0.011466898
-0.012841447
-0.014343133
-0.015811149
-0.016994649
-0.017581245
-0.017243958
-0.015724512
-0.012935558
-0.0090789668
-0.0047451908
-0.00089558173
0.0013884104
0.0013886542
-0.0012221908
-0.0070787494
-0.010029507
-0.012511605
-0.013875102
-0.015108655
-0.016622519
-0.018480619
-0.020622806
-0.022867909
-0.024914683
-0.026359673
-0.026731582
-0.025573355
-0.022614756
-0.017860694
-0.011860665
-0.0057871637
-0.0012289427
0.00042692539
-0.0018251068
-0.0092503993
-0.01561111
-0.018056307
-0.019454354
-0.020829364
-0.022638395
-0.024982258
-0.02781745
-0.030954828
-0.034051631
-0.036615949
-0.038021252
-0.037567543
-0.034800985
-0.029355811
-0.021602505
-0.012794899
-0.005022817
-0.00057587706
-0.0016347498
-0.010656771
-0.022144017
-0.02451571
-0.025843061
-0.027219046
-0.029186525
-0.03191283
-0.035389748
-0.039432685
-0.043666854
-0.047520433
-0.050239878
-0.050950516
-0.048679538
-0.042885611
-0.033536961
-0.021723736
-0.0098641951
-0.0012687021
0.00012102611
-0.010094717
-0.029519779
-0.031809455
-0.032862098
-0.033952398
-0.035792352
-0.038656865
-0.042588922
-0.047412947
-0.052724963
-0.057880178
-0.061994639
-0.063981903
-0.062607332
-0.056867065
-0.046257704
-0.031457214
-0.014872741
-0.00072364271
0.0047694947
-0.0054061287
-0.037729438
-0.039923472
-0.040317072
-0.040623033
-0.041869666
-0.044482803
-0.048557568
-0.053913033
-0.060100326
-0.066395452
-0.071789713
-0.075009272
-0.074574473
-0.069060083
-0.057447243
-0.039805595
-0.018113285
0.0029056917
0.014546504
0.0069955438
-0.047088207
-0.049007285
-0.048020774
-0.046762074
-0.046774253
-0.048645525
-0.052486125
-0.058064508
-0.06484142
-0.071985978
-0.078353132
-0.082487747
-0.082684901
-0.077148714
-0.064396318
-0.043833334
-0.016663728
0.012576815
0.033004189
0.03245968
-0.058760346
-0.059521283
-0.055778674
-0.051842111
-0.049867052
-0.05050453
-0.053773755
-0.059310732
-0.066403485
-0.074066492
-0.080978626
-0.085489584
-0.085677244
-0.07940924
-0.064802871
-0.040646104
-0.0072161525
0.032159756
0.065000606
0.077758028
-0.076109582
-0.072515665
-0.063437521
-0.055368785
-0.050655002
-0.049690446
-0.052190106
-0.057509165
-0.064710758
-0.072582437
-0.079593447
-0.083875375
-0.083268784
-0.075272606
-0.057571638
-0.028380578
0.012904421
0.065369542
0.11552523
0.15147444
-0.10800517
-0.089488169
-0.071189441
-0.057203566
-0.049038872
-0.046273807
-0.047986121
-0.053074958
-0.060278284
-0.068125867
-0.074862527
-0.078385805
-0.076286001
-0.065753973
-0.043857614
-0.0078503707
0.044336575
0.11293468
0.18832013
0.27179731
-0.17678706
-0.10824501
-0.076187232
-0.05465089
-0.042986933
-0.038967774
-0.040503453
-0.045822393
-0.05330495
-0.061285531
-0.067877079
-0.070833408
-0.067460158
-0.054690118
-0.029144485
0.013527945
0.07808417
0.16998921
0.28941923
0.4741447
-0.37202573
-0.12467018
-0.054963827
-0.031972285
-0.022071631
-0.020286404
-0.02430992
-0.031869598
-0.041140119
-0.050499349
-0.058172218
-0.062056865
-0.059680658
-0.047999043
-0.022645163
0.02144893
0.0927649
0.21008433
0.40281685
0.77633924
)
;

boundaryField
{
    movingWall
    {
        type            zeroGradient;
    }
    fixedWalls
    {
        type            zeroGradient;
    }
    frontAndBack
    {
        type            empty;
    }
}


// ************************************************************************* //
