/*--------------------------------*- C++ -*----------------------------------*\
| =========                 |                                                 |
| \\      /  F ield         | OpenFOAM: The Open Source CFD Toolbox           |
|  \\    /   O peration     | Version:  2112                                  |
|   \\  /    A nd           | Website:  www.openfoam.com                      |
|    \\/     M anipulation  |                                                 |
\*---------------------------------------------------------------------------*/
FoamFile
{
    version     2.0;
    format      ascii;
    arch        "LSB;label=32;scalar=64";
    class       surfaceScalarField;
    location    "11";
    object      phi;
}
// * * * * * * * * * * * * * * * * * * * * * * * * * * * * * * * * * * * * * //

dimensions      [0 3 -1 0 0 0 0];

oriented        oriented;

internalField   nonuniform List<scalar> 
760
(
1.2540732e-05
-1.2539379e-05
-2.8775409e-05
4.1315757e-05
-0.00012194557
9.3170294e-05
-0.00024944753
0.00012750185
-0.00039441331
0.0001449658
-0.00054298529
0.000148572
-0.00068316402
0.00014017863
-0.00080320242
0.00012003833
-0.00089088108
8.7678631e-05
-0.0009342103
4.3329181e-05
-0.00092330483
-1.0905447e-05
-0.00085341966
-6.9885256e-05
-0.00072777222
-0.0001256475
-0.00055961042
-0.0001681618
-0.00037193736
-0.00018767306
-0.00019437759
-0.00017755981
-5.6846697e-05
-0.00013753094
1.9205455e-05
-7.6052198e-05
3.0186333e-05
-1.098094e-05
3.0186259e-05
-4.3040774e-05
3.0501024e-05
-0.0002036636
0.00020193885
-0.00046606909
0.0003555754
-0.00079670679
0.00045813954
-0.0011614209
0.00050967986
-0.0015286061
0.00051575709
-0.0018686754
0.00048024784
-0.0021528108
0.00040417364
-0.0023529121
0.0002877799
-0.0024436414
0.00013405833
-0.002407092
-4.7454827e-05
-0.0022356577
-0.00024131953
-0.0019397461
-0.00042155907
-0.0015488412
-0.00055906667
-0.0011108583
-0.000625656
-0.00068584514
-0.00060257305
-0.00033415277
-0.00048922341
-0.00010109663
-0.00030910847
-1.7475954e-06
-0.00011033009
2.8438622e-05
-0.00010943896
0.00013994021
-0.00040080735
0.00049330707
-0.00082676568
0.00078153361
-0.0013381513
0.00096952518
-0.0018881485
0.0010596771
-0.0024332887
0.0010608972
-0.0029323055
0.00097926465
-0.0033451068
0.00081697478
-0.0036334427
0.00057611573
-0.00376391
0.00026452563
-0.0037124666
-9.8898244e-05
-0.0034704206
-0.00048336569
-0.0030505619
-0.00084141782
-0.0024903697
-0.0011192588
-0.0018517356
-0.0012642901
-0.0012144182
-0.0012398905
-0.00066210475
-0.001041537
-0.00026269859
-0.00070851467
-4.801066e-05
-0.00032501809
-1.9571994e-05
-0.00017238423
0.00031232419
-0.00058973544
0.00091065833
-0.0011707519
0.0013625501
-0.0018476189
0.0016463921
-0.0025623175
0.0017743756
-0.0032631818
0.0017617615
-0.0039017372
0.00161782
-0.0044310103
0.0013462479
-0.0048061164
0.00095122177
-0.0049872292
0.00044563837
-0.0049445486
-0.00014157879
-0.0046640662
-0.00076384803
-0.0041551567
-0.0013503274
-0.0034556407
-0.0018187748
-0.0026343835
-0.0020855474
-0.0017871668
-0.0020871072
-0.00102274
-0.0018059638
-0.00043907981
-0.0012921749
-9.6558257e-05
-0.00066753967
-0.0001161302
-0.00022834513
0.00054066925
-0.00076040776
0.001442721
-0.0014826479
0.0020847901
-0.0023091803
0.0024729245
-0.0031723394
0.0026375346
-0.0040150478
0.0026044699
-0.0047850492
0.0023878213
-0.0054317597
0.0019929584
-0.00590591
0.0014253721
-0.0061616926
0.00070142097
-0.0061616375
-0.00014163387
-0.0058812458
-0.0010442397
-0.0053194338
-0.0019121394
-0.0045061487
-0.0026320599
-0.0035103547
-0.0030813414
-0.0024414392
-0.0031560227
-0.001437874
-0.002809529
-0.00063929542
-0.0020907535
-0.00014843695
-0.0011583981
-0.00026456712
-0.00027559088
0.00081626011
-0.00090617634
0.0020733065
-0.0017507257
0.0029293394
-0.002707886
0.0034300848
-0.0037025803
0.003632229
-0.0046749323
0.0035768219
-0.0055718488
0.0032847378
-0.0063419101
0.0027630197
-0.006933354
0.002016816
-0.0072945238
0.0010625908
-0.0073784022
-5.7755468e-05
-0.007144872
-0.0012777699
-0.0065752466
-0.0024817648
-0.0056819951
-0.0035253114
-0.0045248271
-0.0042385094
-0.0032213141
-0.0044595357
-0.0019428253
-0.0040880179
-0.00088453324
-0.0031490455
-0.00021095157
-0.0018319797
-0.00047551873
-0.00031233743
0.0011285975
-0.0010207991
0.0027817683
-0.0019632722
0.0038718125
-0.0030266092
0.0044934218
-0.0041309525
0.0047365723
-0.0052162009
0.0046620703
-0.0062312257
0.0042997626
-0.0071265799
0.0036583739
-0.007850374
0.00274061
-0.0083468456
0.0015590623
-0.0085562609
0.00015165982
-0.0084240482
-0.0014099826
-0.0079049159
-0.003000897
-0.0069838687
-0.0044463587
-0.0056981424
-0.0055242357
-0.0041613441
-0.005996334
-0.0025742821
-0.0056750798
-0.0012005525
-0.0045227752
-0.00029360853
-0.0027389236
-0.00076912729
-0.00033661048
0.001465208
-0.0010980679
0.0035432258
-0.0021082221
0.0048819666
-0.0032460099
0.0056312096
-0.0044293873
0.0059199497
-0.0056004508
0.0058331338
-0.0067127803
0.0054120922
-0.007722045
0.0046676386
-0.0085795816
0.0035981466
-0.0092283832
0.0022078639
-0.0096007712
0.00052404773
-0.0096242196
-0.0013865342
-0.0092258907
-0.0033992259
-0.0083534402
-0.0053188093
-0.0070049211
-0.0068727548
-0.0052687523
-0.0077325029
-0.0033591355
-0.0075846966
-0.0016131149
-0.0062687959
-0.00040711815
-0.0039449204
-0.0011762455
-0.00034687208
0.0018120801
-0.0011331637
0.0043295175
-0.0021752584
0.0059240614
-0.003347494
0.0068034452
-0.0045678427
0.0071402985
-0.0057827547
0.0070480458
-0.0069532048
0.0065825423
-0.008043513
0.0057579469
-0.009012793
0.0045674267
-0.0098083784
0.0030034493
-0.010361067
0.0010767359
-0.010584984
-0.0011626168
-0.010382175
-0.0036020354
-0.0096576299
-0.006043354
-0.0083533799
-0.008177005
-0.006503228
-0.0095826548
-0.0043011333
-0.0097867915
-0.002143628
-0.0084263011
-0.00056354385
-0.0055250046
-0.0017397895
-0.00034319072
0.0021552708
-0.0011253973
0.005111724
-0.0021599998
0.006958664
-0.0033188501
0.0079622955
-0.0045216808
0.0083431292
-0.0057212672
0.0082476322
-0.0068886026
0.0077498777
-0.0080004013
0.0068697456
-0.0090289276
0.005595953
-0.0099333954
0.0039079171
-0.010652178
0.0017955183
-0.011095649
-0.00071914538
-0.01115233
-0.0035453543
-0.010685991
-0.0065096931
-0.0095716862
-0.0092913098
-0.0077568407
-0.0113975
-0.0053636852
-0.012179947
-0.0028025011
-0.010987485
-0.00077683328
-0.0075506725
-0.0025166229
-0.00032883697
0.0024841078
-0.001081946
0.0058648331
-0.0020695908
0.0079463089
-0.0031616273
0.009054332
-0.0042812918
0.0094627936
-0.0053899836
0.009356324
-0.0064714413
0.0088313354
-0.007518389
0.0079166933
-0.0085215028
0.0065990668
-0.0094596474
0.0048460617
-0.010291161
0.0026270321
-0.010932608
-7.769873e-05
-0.011281956
-0.0031960065
-0.011171067
-0.0066205816
-0.010411582
-0.010050795
-0.0088414091
-0.012967674
-0.0064503459
-0.01457101
-0.0035775783
-0.013860253
-0.001062688
-0.010065563
-0.003579311
-0.0003124496
0.0027965574
-0.0010223967
0.0065747801
-0.0019288178
0.0088527301
-0.0028985691
0.010024083
-0.0038614298
0.010425654
-0.0047911785
0.010286073
-0.0056876192
0.009727776
-0.0065626408
0.0087917149
-0.0074293402
0.0074657662
-0.0082922501
0.0057089715
-0.0091359052
0.0034706871
-0.0099194576
0.00070585374
-0.010536659
-0.002578805
-0.010834151
-0.0063230901
-0.010577757
-0.010307188
-0.0094941414
-0.01405129
-0.0073896014
-0.01667555
-0.0044165826
-0.016833272
-0.0014359281
-0.013046217
-0.005015239
-0.00031143211
0.0031079896
-0.00098426187
0.0072476097
-0.0017856738
0.0096541422
-0.0025786028
0.010817012
-0.0033062694
0.011153321
-0.0039618448
0.010941648
-0.0045660148
0.010331946
-0.0051526811
0.0093783812
-0.0057593055
0.0080723907
-0.0064188917
0.0063685577
-0.0071508182
0.0042026137
-0.0079504712
0.0015055067
-0.0087574768
-0.0017717994
-0.0094463548
-0.0056342121
-0.0097808025
-0.0099727403
-0.0094080435
-0.014424049
-0.0079338376
-0.018149756
-0.0052062842
-0.019560825
-0.0019019102
-0.016350591
-0.0069171491
-0.0003580627
0.0034660523
-0.001029823
0.00791937
-0.0017143543
0.010338674
-0.0022750919
0.01137775
-0.0026837818
0.011562011
-0.002965307
0.011223173
-0.003168179
0.010534818
-0.0033507797
0.009560982
-0.0035743969
0.0082960079
-0.0038988277
0.0066929884
-0.0043767998
0.0046805857
-0.0050450886
0.0021737955
-0.0059015406
-0.00091534752
-0.006880015
-0.0046557379
-0.0077946088
-0.0090581465
-0.0082792363
-0.013939421
-0.00777666
-0.018652332
-0.0057541063
-0.021583379
-0.0024368813
-0.019667816
-0.0093540303
-0.00051072794
0.0039767803
-0.0012528467
0.0086614888
-0.0018086083
0.010894435
-0.0020661229
0.011635264
-0.0020554202
0.011551308
-0.001852235
0.011019988
-0.0015418335
0.010224417
-0.0012092789
0.0092284274
-0.00093686375
0.0080235927
-0.0008056857
0.0065618104
-0.00089453045
0.0047694304
-0.0012768672
0.0025561323
-0.0020102327
-0.00018198208
-0.0031065392
-0.0035594314
-0.0044811806
-0.0076835052
-0.0058441179
-0.012576484
-0.0065773751
-0.017919075
-0.005774016
-0.022386738
-0.002952513
-0.022489319
-0.012306543
-0.00087110496
0.0048478853
-0.001770614
0.0095609979
-0.0021350763
0.011258898
-0.0019566423
0.01145683
-0.0013761018
0.010970767
-0.00054558923
0.010189476
0.00040470226
0.0092741252
0.0013657795
0.0082673502
0.002238322
0.0071510504
0.0029277287
0.0058724037
0.0033376753
0.0043594838
0.0033676091
0.0025261984
0.002912006
0.0002736209
0.0018859379
-0.0025333633
0.00024921072
-0.0060467781
-0.0018709408
-0.010456333
-0.0039639124
-0.015826104
-0.0048677828
-0.021482867
-0.0032568487
-0.024100253
-0.015563392
-0.0015930627
0.0064409481
-0.0026173096
0.010585245
-0.0025252866
0.011166875
-0.0016079882
0.010539532
-0.00019562253
0.0095584016
0.00146498
0.0085288731
0.0032021288
0.0075369764
0.004890974
0.0065785051
0.0064306586
0.0056113658
0.0077263182
0.0045767441
0.0086784307
0.0034073713
0.0091751571
0.0020294719
0.0090800906
0.00036868726
0.0082549211
-0.0017081938
0.0065483333
-0.0043401904
0.0038902719
-0.0077982714
0.00054870262
-0.012484534
-0.0024746574
-0.018459507
-0.0030298016
-0.023545109
-0.018593194
-0.0027191176
0.0091600659
-0.0031532048
0.011019332
-0.0018105292
0.0098241997
0.00045425842
0.0082747447
0.0030720945
0.0069405656
0.0057522646
0.0058487029
0.008338202
0.004951039
0.010733864
0.0041828435
0.012866509
0.0034787206
0.014664529
0.0027787236
0.016044151
0.0020277495
0.016901773
0.0011718498
0.017101352
0.00016910889
0.016475646
-0.0010824878
0.014804614
-0.0026691585
0.011836987
-0.0048306449
0.0074280327
-0.0080755794
0.0022580199
-0.013289495
-0.001274722
-0.020012367
-0.019867915
-0.0024126414
0.011572708
2.824017e-05
0.0085784503
0.0042533997
0.0055990401
0.0084111615
0.0041169829
0.012222701
0.0031290264
0.015643749
0.0024276544
0.018670941
0.0019238468
0.021311508
0.0015422771
0.023564946
0.001225283
0.025411056
0.00093261301
0.026803497
0.00063530894
0.027662917
0.00031243026
0.027888316
-5.6290564e-05
0.027338278
-0.00053244927
0.025765229
-0.00109611
0.022838575
-0.0019039905
0.01805162
-0.0032886247
0.011111504
-0.0063493778
0.0033877956
-0.012288659
-0.01648012
0.011572708
0.020151158
0.025750198
0.029867181
0.032996208
0.035423862
0.037347709
0.038889986
0.040115269
0.041047882
0.041683191
0.041995622
0.041939331
0.041406882
0.040310772
0.038406781
0.035118156
0.028768779
0.01648012
)
;

boundaryField
{
    movingWall
    {
        type            calculated;
        value           uniform 0;
    }
    fixedWalls
    {
        type            calculated;
        value           uniform 0;
    }
    frontAndBack
    {
        type            empty;
        value           nonuniform List<scalar> 0();
    }
}


// ************************************************************************* //
