/*--------------------------------*- C++ -*----------------------------------*\
| =========                 |                                                 |
| \\      /  F ield         | OpenFOAM: The Open Source CFD Toolbox           |
|  \\    /   O peration     | Version:  2112                                  |
|   \\  /    A nd           | Website:  www.openfoam.com                      |
|    \\/     M anipulation  |                                                 |
\*---------------------------------------------------------------------------*/
FoamFile
{
    version     2.0;
    format      ascii;
    arch        "LSB;label=32;scalar=64";
    class       surfaceScalarField;
    location    "11";
    object      phi_0;
}
// * * * * * * * * * * * * * * * * * * * * * * * * * * * * * * * * * * * * * //

dimensions      [0 3 -1 0 0 0 0];

oriented        oriented;

internalField   nonuniform List<scalar> 
760
(
1.2540161e-05
-1.2538244e-05
-2.8774953e-05
4.131565e-05
-0.00012194352
9.3167975e-05
-0.00024944187
0.00012749874
-0.00039440393
0.00014496205
-0.00054297204
0.000148568
-0.00068314689
0.00014017489
-0.00080318211
0.00012003522
-0.00089085876
8.7676586e-05
-0.00093418741
4.3328573e-05
-0.00092328323
-1.0904308e-05
-0.00085340088
-6.9882346e-05
-0.00072775769
-0.00012564322
-0.00055960099
-0.00016815682
-0.00037193293
-0.00018766816
-0.00019437709
-0.00017755586
-5.6848467e-05
-0.00013752865
1.9203222e-05
-7.6051756e-05
3.0185093e-05
-1.0981949e-05
3.0185034e-05
-4.3039456e-05
3.0501812e-05
-0.00020365861
0.00020193414
-0.00046605643
0.00035556612
-0.00079668468
0.00045812692
-0.0011613885
0.00050966557
-0.0015285634
0.00051574269
-0.0018686234
0.00048023481
-0.0021527516
0.00040416336
-0.0023528489
0.00028777372
-0.0024435777
0.00013405739
-0.002407032
-4.7450087e-05
-0.002235605
-0.00024130936
-0.0019397037
-0.00042154454
-0.0015488107
-0.00055904978
-0.0011108396
-0.00062563933
-0.00068583634
-0.00060255918
-0.00033415078
-0.00048921431
-0.00010109773
-0.0003091049
-1.7486663e-06
-0.00011033111
2.8436369e-05
-0.00010943592
0.0001399372
-0.00040079498
0.00049329385
-0.00082674029
0.00078151145
-0.0013381105
0.00096949715
-0.0018880916
0.0010596466
-0.0024332164
0.0010608674
-0.00293222
0.00097923842
-0.0033450116
0.00081695485
-0.0036333424
0.00057610443
-0.00376381
0.00026452481
-0.0037123724
-9.8887818e-05
-0.003470337
-0.00048334482
-0.0030504929
-0.00084138881
-0.0024903176
-0.0011192252
-0.0018517004
-0.0012642565
-0.0012143981
-0.0012398616
-0.00066209593
-0.0010415165
-0.00026269652
-0.00070850441
-4.8010931e-05
-0.00032501672
-1.9574581e-05
-0.00017237831
0.00031231573
-0.00058971588
0.00091063143
-0.0011707142
0.0013625093
-0.0018475604
0.0016463434
-0.0025622381
0.0017743244
-0.0032630832
0.0017617125
-0.0039016227
0.0016177779
-0.0044308847
0.0013462168
-0.0048059853
0.00095120506
-0.0049870988
0.00044563838
-0.0049444254
-0.00014156132
-0.0046639558
-0.00076381448
-0.0041550634
-0.0013502811
-0.0034555676
-0.0018187211
-0.0026343313
-0.0020854929
-0.0017871342
-0.0020870588
-0.0010227232
-0.0018059275
-0.0004390737
-0.001292154
-9.6557319e-05
-0.00066753303
-0.00011613189
-0.00022833712
0.00054065287
-0.00076038229
0.0014426766
-0.0014825999
0.0020847267
-0.0023091077
0.0024728512
-0.0031722426
0.0026374593
-0.0040149295
0.0026043994
-0.0047849134
0.0023877618
-0.0054316119
0.0019929152
-0.0059057564
0.0014253495
-0.0061615399
0.00070142178
-0.0061614923
-0.000141609
-0.0058811138
-0.001044193
-0.00531932
-0.001912075
-0.0045060567
-0.0026319845
-0.0035102863
-0.0030812633
-0.0024413939
-0.0031559513
-0.0014378487
-0.0028094727
-0.00063928494
-0.0020907177
-0.00014843475
-0.0011583831
-0.00026456665
-0.00027558161
0.00081623434
-0.00090614709
0.0020732422
-0.0017506713
0.0029292509
-0.0027078049
0.0034299849
-0.0037024737
0.0036321281
-0.0046748032
0.0035767289
-0.0055717019
0.0032846604
-0.0063417511
0.0027629644
-0.006933189
0.0020167875
-0.0072943592
0.0010625919
-0.0073782444
-5.7723809e-05
-0.0071447264
-0.001277711
-0.0065751183
-0.0024816831
-0.0056818883
-0.0035252145
-0.0045247447
-0.004238407
-0.003221257
-0.004459439
-0.0019427917
-0.0040879381
-0.00088451828
-0.0031489911
-0.00021094808
-0.0018319533
-0.00047551473
-0.00031232779
0.0011285621
-0.001020769
0.0027816836
-0.0019632166
0.0038716985
-0.0030265269
0.0044932953
-0.0041308452
0.0047364464
-0.0052160719
0.0046619558
-0.0062310799
0.0042996684
-0.0071264227
0.0036583072
-0.0078502111
0.0027405759
-0.0083466827
0.0015590634
-0.0085561027
0.00015169616
-0.0084239002
-0.0014099137
-0.0079047825
-0.0030008008
-0.0069837542
-0.0044462429
-0.0056980507
-0.0055241105
-0.0041612777
-0.005996212
-0.0025742412
-0.0056749747
-0.0012005332
-0.0045226991
-0.00029360367
-0.0027388829
-0.00076911853
-0.00033660159
0.0014651637
-0.0010980402
0.0035431223
-0.002108171
0.0048818293
-0.0032459345
0.0056310589
-0.0044292895
0.0059198014
-0.0056003339
0.0058330003
-0.0067126491
0.0054119836
-0.0077219043
0.0046675624
-0.0085794362
0.0035981077
-0.0092282374
0.0022078646
-0.0096006287
0.00052408745
-0.009624084
-0.0013864584
-0.0092257654
-0.0033991194
-0.0083533289
-0.0053186794
-0.0070048281
-0.0068726115
-0.0052686814
-0.0077323587
-0.0033590893
-0.007584567
-0.0016130918
-0.0062686966
-0.00040711187
-0.0039448629
-0.0011762306
-0.00034686509
0.0018120288
-0.0011331417
0.0043293989
-0.0021752175
0.0059239052
-0.0033474336
0.0068032749
-0.0045677645
0.0071401324
-0.005782662
0.0070478978
-0.0069531016
0.0065824232
-0.0080434035
0.0057578642
-0.0090126809
0.004567385
-0.0098082664
0.0030034502
-0.010360957
0.0010767778
-0.010584878
-0.0011625374
-0.010382074
-0.0036019238
-0.0096575363
-0.0060432168
-0.0083532969
-0.0081768508
-0.0065031605
-0.0095824951
-0.0043010857
-0.0097866417
-0.0021436025
-0.0084261799
-0.00056353628
-0.0055249292
-0.0017397671
-0.00034318663
0.0021552155
-0.0011253839
0.0051115961
-0.0021599741
0.0069584956
-0.0033188118
0.0079621124
-0.0045216312
0.0083429518
-0.0057212091
0.0082474758
-0.0068885394
0.0077497534
-0.0080003362
0.006869661
-0.009028863
0.0055959117
-0.0099333324
0.0039079196
-0.010652117
0.001795562
-0.011095589
-0.00071906545
-0.01115227
-0.0035452426
-0.010685931
-0.0065095563
-0.009571627
-0.0092911546
-0.0077567868
-0.011397335
-0.0053636428
-0.012179786
-0.0028024758
-0.010987347
-0.00077682489
-0.00755058
-0.0025165921
-0.00032883652
0.002484052
-0.0010819434
0.005864703
-0.0020695842
0.0079461365
-0.0031616165
0.0090541445
-0.0042812775
0.0094626128
-0.0053899679
0.0093561662
-0.0064714265
0.008831212
-0.0075183772
0.0079166116
-0.008521495
0.0065990295
-0.0094596435
0.004846068
-0.01029116
0.0026270787
-0.010932604
-7.7621519e-05
-0.011281949
-0.0031958984
-0.011171053
-0.0066204518
-0.01041156
-0.010050648
-0.0088413801
-0.012967515
-0.0064503166
-0.014570849
-0.0035775569
-0.013860106
-0.0010626797
-0.010065457
-0.0035792719
-0.00031245315
0.0027965052
-0.001022406
0.0065746556
-0.0019288324
0.0088525632
-0.0028985887
0.010023901
-0.0038614543
0.010425478
-0.0047912089
0.010285921
-0.0056876563
0.0097276594
-0.0065626851
0.0087916403
-0.0074293914
0.0074657358
-0.0082923065
0.0057089832
-0.0091359633
0.0034707355
-0.0099195162
0.00070593157
-0.01053671
-0.0025787046
-0.010834189
-0.0063229726
-0.01057778
-0.010307057
-0.0094941463
-0.014051149
-0.0073895932
-0.016675403
-0.0044165699
-0.01683313
-0.0014359211
-0.013046106
-0.005015193
-0.00031143959
0.0031079448
-0.00098428301
0.0072474988
-0.0017857096
0.00965399
-0.0025786528
0.010816844
-0.0033063326
0.011153158
-0.0039619203
0.010941508
-0.0045661017
0.010331841
-0.0051527781
0.0093783167
-0.0057594106
0.0080723684
-0.0064190021
0.0063685747
-0.0071509303
0.0042026637
-0.0079505808
0.0015055819
-0.0087575781
-0.0017717074
-0.0094464415
-0.0056341092
-0.0097808687
-0.0099726303
-0.0094080851
-0.014423932
-0.0079338553
-0.018149633
-0.0052062849
-0.0195607
-0.0019019064
-0.016350484
-0.0069170993
-0.00035807361
0.0034660185
-0.0010298546
0.0079192796
-0.0017144091
0.010338545
-0.0022751694
0.011377604
-0.0026838796
0.011561868
-0.0029654224
0.011223051
-0.0031683087
0.010534727
-0.0033509203
0.0095609282
-0.0035745445
0.0082959925
-0.0038989784
0.0066930085
-0.0043769496
0.004680635
-0.0050452335
0.0021738658
-0.0059016758
-0.00091526506
-0.0068801353
-0.0046556498
-0.0077947081
-0.0090580575
-0.0082793089
-0.013939332
-0.007776703
-0.018652239
-0.0057541226
-0.02158328
-0.0024368825
-0.019667724
-0.0093539816
-0.00051074128
0.0039767598
-0.0012528858
0.0086614242
-0.0018086772
0.010894336
-0.0020662211
0.011635148
-0.0020555444
0.011551192
-0.0018523804
0.011019887
-0.0015419943
0.010224341
-0.0012094493
0.0092283833
-0.00093703812
0.0080235814
-0.00080585909
0.0065618295
-0.00089469882
0.0047694746
-0.0012770273
0.0025561941
-0.0020103813
-0.00018191119
-0.0031066731
-0.0035593582
-0.0044812953
-0.0076834353
-0.0058442081
-0.012576419
-0.0065774359
-0.017919011
-0.0057740462
-0.02238667
-0.00295252
-0.022489251
-0.012306502
-0.00087111878
0.0048478787
-0.0017706553
0.0095609608
-0.0021351507
0.011258832
-0.0019567496
0.011456747
-0.0013762383
0.01097068
-0.00054574862
0.010189398
0.00040452689
0.0092740656
0.001365596
0.0082673142
0.0022381372
0.0071510402
0.0029275486
0.0058724181
0.0033375045
0.0043595187
0.0033674507
0.0025262478
0.002911862
0.00027367745
0.0018858094
-0.0025333058
0.00024909964
-0.0060467256
-0.0018710318
-0.010456287
-0.0039639793
-0.015826064
-0.0048678205
-0.021482829
-0.0032568604
-0.024100211
-0.015563362
-0.0015930734
0.0064409523
-0.0026173447
0.010585232
-0.0025253524
0.01116684
-0.0016080862
0.010539481
-0.00019574963
0.0095583436
0.0014648291
0.0085288185
0.003201962
0.0075369327
0.004890799
0.0065784772
0.0064304832
0.0056113561
0.0077261491
0.0045767524
0.008678273
0.0034073949
0.0091750143
0.0020295066
0.0090799646
0.00036872711
0.0082548116
-0.0017081529
0.0065482403
-0.0043401543
0.0038901962
-0.0077982433
0.00054864705
-0.012484514
-0.0024746932
-0.018459489
-0.003029815
-0.023545089
-0.018593177
-0.0027191216
0.0091600741
-0.0031532229
0.011019333
-0.00181057
0.0098241873
0.00045419106
0.0082747199
0.0030720006
0.0069405342
0.0057521479
0.0058486713
0.0083380682
0.0049510124
0.01073372
0.0041828256
0.012866362
0.0034787134
0.014664388
0.0027787272
0.01604402
0.0020277626
0.016901657
0.00117187
0.017101252
0.00016913184
0.016475563
-0.001082464
0.014804547
-0.0026691384
0.011836935
-0.0048306307
0.0074279922
-0.0080755715
0.0022579932
-0.013289489
-0.0012747341
-0.020012361
-0.019867911
-0.0024126379
0.011572713
2.8241105e-05
0.0085784541
0.0042533904
0.0055990381
0.0084111347
0.0041169756
0.012222653
0.0031290157
0.015643681
0.0024276429
0.018670857
0.0019238369
0.021311412
0.0015422704
0.023564845
0.0012252805
0.025410958
0.00093261469
0.026803407
0.00063531414
0.02766284
0.00031243753
0.027888252
-5.6280511e-05
0.027338229
-0.00053244139
0.025765195
-0.0010961036
0.022838551
-0.0019039865
0.018051603
-0.0032886238
0.011111492
-0.0063493785
0.0033877908
-0.01228866
-0.01648012
0.011572713
0.020151167
0.025750205
0.029867181
0.032996196
0.035423839
0.037347676
0.038889947
0.040115228
0.041047843
0.041683157
0.041995594
0.041939314
0.041406872
0.040310769
0.038406782
0.035118158
0.02876878
0.01648012
)
;

boundaryField
{
    movingWall
    {
        type            calculated;
        value           uniform 0;
    }
    fixedWalls
    {
        type            calculated;
        value           uniform 0;
    }
    frontAndBack
    {
        type            empty;
        value           nonuniform List<scalar> 0();
    }
}


// ************************************************************************* //
