/*--------------------------------*- C++ -*----------------------------------*\
| =========                 |                                                 |
| \\      /  F ield         | OpenFOAM: The Open Source CFD Toolbox           |
|  \\    /   O peration     | Version:  2112                                  |
|   \\  /    A nd           | Website:  www.openfoam.com                      |
|    \\/     M anipulation  |                                                 |
\*---------------------------------------------------------------------------*/
FoamFile
{
    version     2.0;
    format      ascii;
    arch        "LSB;label=32;scalar=64";
    class       volVectorField;
    location    "11";
    object      U;
}
// * * * * * * * * * * * * * * * * * * * * * * * * * * * * * * * * * * * * * //

dimensions      [0 1 -1 0 0 0 0];

internalField   nonuniform List<vector> 
400
(
(0.00028218578 -0.0002790782 0)
(0.00010722043 8.0721772e-05 0)
(-0.0013253772 0.00047666468 0)
(-0.0036095916 0.00073302027 0)
(-0.0063977898 0.00086370462 0)
(-0.0093906779 0.00090301864 0)
(-0.012332384 0.00087058786 0)
(-0.01498764 0.00076769396 0)
(-0.017115802 0.00058565979 0)
(-0.018468994 0.00031883891 0)
(-0.018819739 -2.4031982e-05 0)
(-0.018010816 -0.00041532438 0)
(-0.016018082 -0.00079493998 0)
(-0.013004802 -0.0010872716 0)
(-0.0093412221 -0.0012155452 0)
(-0.0055694493 -0.0011252148 0)
(-0.0023041249 -0.00081093502 0)
(-9.1533775e-05 -0.00033853513 0)
(0.00075323138 0.0001497435 0)
(0.00040699332 0.0003869657 0)
(-8.6533525e-05 -0.00011996531 0)
(-0.0018622287 0.0017814254 0)
(-0.0062774107 0.0036098735 0)
(-0.012391483 0.0048389908 0)
(-0.019501699 0.0054710694 0)
(-0.026968619 0.0055922471 0)
(-0.034183417 0.0052594611 0)
(-0.040562293 0.0044825827 0)
(-0.045530136 0.0032521546 0)
(-0.048539134 0.001585889 0)
(-0.049135764 -0.00042741629 0)
(-0.04704357 -0.00259854 0)
(-0.042275096 -0.0046355575 0)
(-0.03522658 -0.006184863 0)
(-0.02668856 -0.0069040909 0)
(-0.017778465 -0.0065651351 0)
(-0.0097584911 -0.0051633948 0)
(-0.0037475867 -0.0029951533 0)
(-0.00039538557 -0.00067100528 0)
(0.0002866563 0.00077665228 0)
(-0.0005851977 0.0014302366 0)
(-0.0042198651 0.0063478537 0)
(-0.011693415 0.010586598 0)
(-0.021349268 0.013413359 0)
(-0.032186974 0.01482036 0)
(-0.04334912 0.014939723 0)
(-0.053994461 0.013866394 0)
(-0.063306329 0.011629832 0)
(-0.070491672 0.0082492283 0)
(-0.074814981 0.0038241265 0)
(-0.075677376 -0.0013804123 0)
(-0.072726573 -0.0068818012 0)
(-0.065983179 -0.01199559 0)
(-0.055945118 -0.015911919 0)
(-0.043620441 -0.017855061 0)
(-0.030469443 -0.017306031 0)
(-0.018200808 -0.014240026 0)
(-0.0084018598 -0.0092903942 0)
(-0.0021512605 -0.00376351 0)
(-3.9918371e-06 0.00030714634 0)
(-0.0010465753 0.0042802451 0)
(-0.0064754663 0.013494185 0)
(-0.016897882 0.020751354 0)
(-0.029855084 0.025423219 0)
(-0.044046366 0.027613776 0)
(-0.05845464 0.027544984 0)
(-0.072091783 0.025362852 0)
(-0.084000076 0.021124507 0)
(-0.093250595 0.014893098 0)
(-0.098977009 0.0068760048 0)
(-0.10045782 -0.0024513432 0)
(-0.097227866 -0.01228003 0)
(-0.089214515 -0.021468952 0)
(-0.07687404 -0.028666797 0)
(-0.061274364 -0.032547196 0)
(-0.044099311 -0.032161577 0)
(-0.027474694 -0.027345583 0)
(-0.013544249 -0.019026876 0)
(-0.0040182672 -0.0092586112 0)
(-0.00026834691 -0.0011171267 0)
(-0.0014462965 0.0083193391 0)
(-0.0084958122 0.023051454 0)
(-0.021615079 0.033861992 0)
(-0.037570959 0.04054019 0)
(-0.054783506 0.043469854 0)
(-0.072120255 0.043039666 0)
(-0.08851178 0.039474291 0)
(-0.10293053 0.032864091 0)
(-0.114371 0.023311482 0)
(-0.12186664 0.011117978 0)
(-0.12456081 -0.0030513306 0)
(-0.12180432 -0.018071609 0)
(-0.11330494 -0.032338119 0)
(-0.099316685 -0.04389569 0)
(-0.080804193 -0.050723942 0)
(-0.059568004 -0.051223481 0)
(-0.03816451 -0.044846697 0)
(-0.019459934 -0.032654668 0)
(-0.0060753732 -0.017454834 0)
(-0.00051023024 -0.0035253152 0)
(-0.0017773424 0.013397505 0)
(-0.010207562 0.034760811 0)
(-0.025655603 0.049629167 0)
(-0.044217482 0.058475679 0)
(-0.064079737 0.062133467 0)
(-0.08403936 0.061249207 0)
(-0.10300297 0.056163056 0)
(-0.11993401 0.046999996 0)
(-0.13380093 0.033876117 0)
(-0.14356097 0.01713631 0)
(-0.14820427 -0.0024322744 0)
(-0.14682978 -0.023440266 0)
(-0.13880271 -0.043871754 0)
(-0.12399953 -0.061123282 0)
(-0.10308142 -0.072309551 0)
(-0.0777991 -0.074865362 0)
(-0.0510965 -0.067458504 0)
(-0.026725562 -0.05096121 0)
(-0.0085860653 -0.028892113 0)
(-0.00078480366 -0.0070450244 0)
(-0.0020298454 0.019322923 0)
(-0.01154121 0.048252937 0)
(-0.028841736 0.067623623 0)
(-0.049503553 0.078806754 0)
(-0.071539712 0.083237591 0)
(-0.093722504 0.081913647 0)
(-0.11498859 0.075331971 0)
(-0.13435112 0.063650902 0)
(-0.15080813 0.046960418 0)
(-0.16327955 0.025572908 0)
(-0.17059647 0.00028952096 0)
(-0.17158661 -0.027371699 0)
(-0.16519361 -0.055064323 0)
(-0.15073215 -0.079549547 0)
(-0.12831825 -0.096928504 0)
(-0.099377571 -0.10329396 0)
(-0.067045183 -0.09594574 0)
(-0.036012993 -0.074981637 0)
(-0.011893925 -0.044418233 0)
(-0.0011668683 -0.011978935 0)
(-0.0021901353 0.025864775 0)
(-0.012425518 0.063069606 0)
(-0.030998175 0.087297685 0)
(-0.053121058 0.10097533 0)
(-0.076695762 0.10626811 0)
(-0.10051231 0.10461368 0)
(-0.12358809 0.09671192 0)
(-0.14504559 0.082756323 0)
(-0.16397769 0.062767363 0)
(-0.17933538 0.036935664 0)
(-0.18986493 0.005939348 0)
(-0.19414073 -0.028761726 0)
(-0.19065312 -0.064637883 0)
(-0.17805128 -0.097930981 0)
(-0.1556456 -0.12367556 0)
(-0.12414034 -0.13626673 0)
(-0.086429987 -0.13089333 0)
(-0.047939388 -0.10590921 0)
(-0.016384152 -0.065213215 0)
(-0.0017478527 -0.018835237 0)
(-0.0022472268 0.03275466 0)
(-0.012807299 0.078674558 0)
(-0.031986023 0.10798845 0)
(-0.054794565 0.12426695 0)
(-0.079076644 0.13050823 0)
(-0.10367526 0.12867641 0)
(-0.12773499 0.11972834 0)
(-0.15054909 0.10390653 0)
(-0.17138552 0.081129369 0)
(-0.18932944 0.051379712 0)
(-0.2031665 0.015069308 0)
(-0.21133069 -0.026584783 0)
(-0.21194288 -0.071122222 0)
(-0.20297815 -0.11452399 0)
(-0.18273479 -0.15088812 0)
(-0.15073695 -0.17271513 0)
(-0.10895043 -0.17229919 0)
(-0.062892597 -0.14483337 0)
(-0.022471736 -0.092732235 0)
(-0.0026507237 -0.028353295 0)
(-0.002204213 0.039704986 0)
(-0.012690059 0.094484027 0)
(-0.031771879 0.12893472 0)
(-0.054378516 0.1478003 0)
(-0.078335599 0.15499611 0)
(-0.1025691 0.1531003 0)
(-0.12639426 0.14339357 0)
(-0.14933685 0.12620245 0)
(-0.17092946 0.10133868 0)
(-0.19051993 0.068523953 0)
(-0.20709963 0.027787906 0)
(-0.21915572 -0.020095377 0)
(-0.22466722 -0.073042226 0)
(-0.22108505 -0.12717273 0)
(-0.20563326 -0.17603725 0)
(-0.17626436 -0.21038003 0)
(-0.13316403 -0.21902731 0)
(-0.08077136 -0.19226696 0)
(-0.030584218 -0.12853952 0)
(-0.0040594211 -0.041538267 0)
(-0.0020939231 0.046455182 0)
(-0.012186874 0.10993613 0)
(-0.030521231 0.14932958 0)
(-0.051985467 0.17055225 0)
(-0.074416861 0.1785253 0)
(-0.096861902 0.17653617 0)
(-0.11885499 0.16626917 0)
(-0.14021517 0.14819328 0)
(-0.16082487 0.12204651 0)
(-0.18042266 0.087289522 0)
(-0.19839612 0.043521442 0)
(-0.213532 -0.0090864959 0)
(-0.224 -0.069264836 0)
(-0.22704779 -0.13363267 0)
(-0.21902378 -0.19588417 0)
(-0.19616976 -0.24564137 0)
(-0.15610623 -0.26825093 0)
(-0.10060631 -0.24745073 0)
(-0.041090618 -0.17396291 0)
(-0.0062579366 -0.059703402 0)
(-0.0020022479 0.052855164 0)
(-0.011589139 0.12460712 0)
(-0.02870626 0.16841125 0)
(-0.048120137 0.19141884 0)
(-0.067718869 0.19969207 0)
(-0.086743394 0.19733584 0)
(-0.10501839 0.1865208 0)
(-0.12271832 0.16792803 0)
(-0.14014016 0.14128334 0)
(-0.15749755 0.10583253 0)
(-0.17473086 0.060748133 0)
(-0.19130436 0.0055216814 0)
(-0.20580947 -0.059534815 0)
(-0.21567685 -0.13214746 0)
(-0.21701765 -0.20700912 0)
(-0.20462876 -0.27375462 0)
(-0.17316411 -0.31513475 0)
(-0.12012369 -0.30753362 0)
(-0.054104556 -0.22947364 0)
(-0.0096614751 -0.084493125 0)
(-0.0021106282 0.059002693 0)
(-0.01146458 0.13837534 0)
(-0.027220899 0.1855769 0)
(-0.04378442 0.20929204 0)
(-0.059190437 0.21697074 0)
(-0.073033461 0.21365455 0)
(-0.08554926 0.20206114 0)
(-0.09734053 0.18313621 0)
(-0.10916249 0.15665868 0)
(-0.12175026 0.12173939 0)
(-0.13566838 0.077197008 0)
(-0.15111745 0.021899282 0)
(-0.16751768 -0.04475578 0)
(-0.18309348 -0.12211025 0)
(-0.19434139 -0.20668201 0)
(-0.19543691 -0.28963558 0)
(-0.17840143 -0.35307674 0)
(-0.13543058 -0.36693317 0)
(-0.069070882 -0.29373896 0)
(-0.014783435 -0.11780331 0)
(-0.0027830162 0.065473062 0)
(-0.01281352 0.15162226 0)
(-0.027489191 0.20047215 0)
(-0.040490614 0.22309728 0)
(-0.050253822 0.22876283 0)
(-0.057038229 0.22355023 0)
(-0.061686023 0.21071637 0)
(-0.06531598 0.19146337 0)
(-0.069154139 0.16565207 0)
(-0.074428016 0.13234362 0)
(-0.082286408 0.090144851 0)
(-0.093668671 0.037468387 0)
(-0.10899165 -0.027157826 0)
(-0.12769153 -0.10462786 0)
(-0.14746567 -0.19385856 0)
(-0.16312519 -0.28910957 0)
(-0.16530428 -0.37469872 0)
(-0.1410039 -0.41730904 0)
(-0.084078668 -0.36243826 0)
(-0.022005705 -0.16138732 0)
(-0.0047376125 0.073733931 0)
(-0.017310957 0.16543792 0)
(-0.031482923 0.21295358 0)
(-0.039994429 0.23168532 0)
(-0.042297035 0.23332135 0)
(-0.039851327 0.22497964 0)
(-0.034380095 0.21030386 0)
(-0.027614476 0.19063087 0)
(-0.021232111 0.16585089 0)
(-0.016862094 0.13501455 0)
(-0.016112554 0.096646329 0)
(-0.020536946 0.048935719 0)
(-0.031492913 -0.010128726 0)
(-0.049760322 -0.082626389 0)
(-0.074862953 -0.16985645 0)
(-0.10365932 -0.27022459 0)
(-0.12753543 -0.37341113 0)
(-0.12989875 -0.44838464 0)
(-0.094969301 -0.42720819 0)
(-0.03093416 -0.21595677 0)
(-0.0093177135 0.086903505 0)
(-0.027524279 0.18166678 0)
(-0.041193994 0.22272827 0)
(-0.04301775 0.23341818 0)
(-0.034859177 0.22842466 0)
(-0.020172818 0.21559007 0)
(-0.0018594117 0.19852923 0)
(0.017680697 0.17841721 0)
(0.036388845 0.15504542 0)
(0.052379609 0.1274237 0)
(0.06377159 0.09408541 0)
(0.068621225 0.053222996 0)
(0.064855257 0.0027010561 0)
(0.050542475 -0.060098754 0)
(0.02419784 -0.13815483 0)
(-0.014077858 -0.2339754 0)
(-0.059047477 -0.34498898 0)
(-0.09370198 -0.44935322 0)
(-0.094550173 -0.47538794 0)
(-0.03922961 -0.2803479 0)
(-0.018592484 0.11087062 0)
(-0.046114928 0.20168863 0)
(-0.055414708 0.22774734 0)
(-0.044289517 0.22476846 0)
(-0.019791904 0.21034389 0)
(0.011816152 0.19203283 0)
(0.046403287 0.17259184 0)
(0.081119647 0.15253431 0)
(0.11378736 0.13131512 0)
(0.14251356 0.10783714 0)
(0.16541009 0.080700616 0)
(0.18042333 0.048269515 0)
(0.18507756 0.0086315936 0)
(0.17672923 -0.040634815 0)
(0.15238495 -0.10301368 0)
(0.10917585 -0.18377531 0)
(0.046987521 -0.28845237 0)
(-0.021615846 -0.41041466 0)
(-0.072335548 -0.49091032 0)
(-0.041165806 -0.35045807 0)
(-0.033352763 0.1556436 0)
(-0.068634726 0.22038901 0)
(-0.05529408 0.21720983 0)
(-0.0162779 0.19518667 0)
(0.034213265 0.17075943 0)
(0.088117586 0.1483347 0)
(0.14130343 0.12848078 0)
(0.19145282 0.1104902 0)
(0.23700071 0.093263105 0)
(0.27658382 0.075593854 0)
(0.30870981 0.056246902 0)
(0.33158186 0.033923438 0)
(0.34277403 0.0071471545 0)
(0.33949114 -0.025791205 0)
(0.31785791 -0.067638393 0)
(0.27305894 -0.12403141 0)
(0.20027623 -0.2058002 0)
(0.1020163 -0.32503383 0)
(-0.012451152 -0.45453348 0)
(-0.023772994 -0.40860672 0)
(-0.033072395 0.23910141 0)
(-0.042632267 0.21793878 0)
(0.042197848 0.16425038 0)
(0.12754106 0.12778665 0)
(0.20756334 0.10136627 0)
(0.28006979 0.081584995 0)
(0.34459093 0.066584906 0)
(0.40124719 0.054659736 0)
(0.45018394 0.044381526 0)
(0.49124808 0.034648166 0)
(0.52380804 0.024581659 0)
(0.54667193 0.013428881 0)
(0.55795758 0.00045364331 0)
(0.55549956 -0.015083106 0)
(0.53537246 -0.03492267 0)
(0.49233978 -0.062456244 0)
(0.41789956 -0.10693235 0)
(0.30405538 -0.1931705 0)
(0.12310851 -0.33691593 0)
(0.052364604 -0.39437624 0)
(0.24300926 0.15258459 0)
(0.30532319 0.11855652 0)
(0.45484248 0.07611361 0)
(0.56002299 0.050836155 0)
(0.63221421 0.035114827 0)
(0.68648831 0.024797949 0)
(0.72933676 0.017946786 0)
(0.7636632 0.013246855 0)
(0.79112842 0.0097592038 0)
(0.8125985 0.0068578208 0)
(0.82827084 0.0041273752 0)
(0.83782729 0.0012890254 0)
(0.84048549 -0.0018337076 0)
(0.83492504 -0.0053153332 0)
(0.81884459 -0.0098193285 0)
(0.78942589 -0.016226848 0)
(0.73784959 -0.026933999 0)
(0.65317433 -0.051287742 0)
(0.45610044 -0.11374839 0)
(0.31788997 -0.17206204 0)
)
;

boundaryField
{
    movingWall
    {
        type            fixedValue;
        value           uniform (1 0 0);
    }
    fixedWalls
    {
        type            fixedValue;
        value           uniform (0 0 0);
    }
    frontAndBack
    {
        type            empty;
    }
}


// ************************************************************************* //
