/*--------------------------------*- C++ -*----------------------------------*\
| =========                 |                                                 |
| \\      /  F ield         | OpenFOAM: The Open Source CFD Toolbox           |
|  \\    /   O peration     | Version:  2112                                  |
|   \\  /    A nd           | Website:  www.openfoam.com                      |
|    \\/     M anipulation  |                                                 |
\*---------------------------------------------------------------------------*/
FoamFile
{
    version     2.0;
    format      ascii;
    arch        "LSB;label=32;scalar=64";
    class       volVectorField;
    location    "11";
    object      U_0;
}
// * * * * * * * * * * * * * * * * * * * * * * * * * * * * * * * * * * * * * //

dimensions      [0 1 -1 0 0 0 0];

internalField   nonuniform List<vector> 
400
(
(0.00028217629 -0.00027906358 0)
(0.00010721188 8.0729858e-05 0)
(-0.0013253582 0.00047665551 0)
(-0.0036095181 0.00073300588 0)
(-0.0063976407 0.00086368482 0)
(-0.0093904509 0.00090299589 0)
(-0.012332078 0.00087056526 0)
(-0.014987261 0.0007676736 0)
(-0.017115369 0.00058564465 0)
(-0.018468535 0.00031883202 0)
(-0.018819286 -2.402778e-05 0)
(-0.018010405 -0.00041530793 0)
(-0.016017745 -0.00079491384 0)
(-0.013004561 -0.0010872405 0)
(-0.0093410856 -0.0012155147 0)
(-0.0055694053 -0.0011251916 0)
(-0.0023041457 -0.00081092447 0)
(-9.1580569e-05 -0.00033853829 0)
(0.00075319352 0.00014972949 0)
(0.00040697987 0.00038695279 0)
(-8.6531459e-05 -0.00011993674 0)
(-0.001862185 0.0017813978 0)
(-0.0062772476 0.0036097861 0)
(-0.012391142 0.0048388658 0)
(-0.019501155 0.0054709217 0)
(-0.026967864 0.0055920933 0)
(-0.034182461 0.0052593179 0)
(-0.040561167 0.0044824652 0)
(-0.045528895 0.0032520787 0)
(-0.048537845 0.0015858692 0)
(-0.049134508 -0.00042737234 0)
(-0.047042427 -0.002598433 0)
(-0.042274136 -0.0046353999 0)
(-0.035225848 -0.0061846783 0)
(-0.026688071 -0.0069039094 0)
(-0.0177782 -0.0065649879 0)
(-0.0097583993 -0.0051633058 0)
(-0.0037475943 -0.0029951301 0)
(-0.00039542179 -0.00067103514 0)
(0.00028663872 0.00077661514 0)
(-0.00058518352 0.0014302257 0)
(-0.0042197391 0.0063476966 0)
(-0.011693055 0.010586311 0)
(-0.021348614 0.01341298 0)
(-0.032185997 0.014819938 0)
(-0.043347819 0.014939302 0)
(-0.053992868 0.013866017 0)
(-0.063304501 0.011629538 0)
(-0.070489692 0.008249054 0)
(-0.074812951 0.0038241024 0)
(-0.075675409 -0.0013802735 0)
(-0.072724774 -0.0068815089 0)
(-0.06598164 -0.011995177 0)
(-0.055943901 -0.01591144 0)
(-0.043619571 -0.017854586 0)
(-0.030468902 -0.01730563 0)
(-0.018200539 -0.014239755 0)
(-0.0084017732 -0.0092902755 0)
(-0.0021512614 -0.0037635193 0)
(-4.0025302e-06 0.00030709329 0)
(-0.0010465381 0.0042801399 0)
(-0.006475248 0.013493804 0)
(-0.01689733 0.020750747 0)
(-0.029854127 0.025422473 0)
(-0.044044983 0.027612976 0)
(-0.058452847 0.02754421 0)
(-0.072089631 0.025362176 0)
(-0.083997648 0.021123998 0)
(-0.093247997 0.014892816 0)
(-0.098974361 0.0068759922 0)
(-0.10045526 -0.0024510722 0)
(-0.097225505 -0.012279496 0)
(-0.08921246 -0.021468212 0)
(-0.076872368 -0.028665941 0)
(-0.061273113 -0.032546335 0)
(-0.044098474 -0.032160827 0)
(-0.02747422 -0.02734504 0)
(-0.013544046 -0.019026585 0)
(-0.0040182234 -0.0092585459 0)
(-0.00026834992 -0.0011171754 0)
(-0.0014462433 0.0083190975 0)
(-0.0084955205 0.023050754 0)
(-0.021614365 0.033860966 0)
(-0.037569756 0.040538984 0)
(-0.054781803 0.043468598 0)
(-0.072118086 0.043038479 0)
(-0.088509212 0.039473278 0)
(-0.10292766 0.032863347 0)
(-0.11436795 0.023311089 0)
(-0.12186354 0.011117985 0)
(-0.1245578 -0.0030509099 0)
(-0.12180152 -0.018070808 0)
(-0.11330246 -0.032337016 0)
(-0.099314615 -0.043894407 0)
(-0.080802586 -0.050722628 0)
(-0.059566874 -0.051222302 0)
(-0.038163823 -0.044845792 0)
(-0.019459606 -0.032654122 0)
(-0.0060752811 -0.017454634 0)
(-0.00051022568 -0.0035253334 0)
(-0.0017772793 0.013397087 0)
(-0.010207223 0.034759729 0)
(-0.025654788 0.049627655 0)
(-0.044216128 0.058473952 0)
(-0.064077847 0.062131708 0)
(-0.08403698 0.061247572 0)
(-0.10300018 0.056161685 0)
(-0.11993092 0.046999009 0)
(-0.13379765 0.033875607 0)
(-0.14355764 0.017136331 0)
(-0.14820102 -0.0024317133 0)
(-0.14682673 -0.023439204 0)
(-0.13879995 -0.043870287 0)
(-0.12399716 -0.061121554 0)
(-0.10307952 -0.072307747 0)
(-0.077797707 -0.07486369 0)
(-0.051095609 -0.067457158 0)
(-0.026725107 -0.050960327 0)
(-0.0085859228 -0.028891714 0)
(-0.00078479134 -0.0070449857 0)
(-0.0020297793 0.01932231 0)
(-0.011540859 0.048251444 0)
(-0.028840898 0.067621594 0)
(-0.049502173 0.078804483 0)
(-0.071537801 0.083235317 0)
(-0.093720117 0.081911565 0)
(-0.11498581 0.07533025 0)
(-0.13434806 0.063649677 0)
(-0.15080489 0.046959792 0)
(-0.16327626 0.025572935 0)
(-0.17059324 0.00029020535 0)
(-0.17158353 -0.027370405 0)
(-0.16519077 -0.055062524 0)
(-0.15072965 -0.0795474 0)
(-0.12831618 -0.096926214 0)
(-0.099375984 -0.10329176 0)
(-0.067044117 -0.095943896 0)
(-0.036012417 -0.074980344 0)
(-0.01189373 -0.044417575 0)
(-0.0011668469 -0.011978813 0)
(-0.0021900748 0.025863973 0)
(-0.012425196 0.063067713 0)
(-0.030997405 0.087295157 0)
(-0.05311979 0.10097254 0)
(-0.076694014 0.10626535 0)
(-0.10051013 0.10461119 0)
(-0.12358558 0.096709881 0)
(-0.14504284 0.082754886 0)
(-0.16397481 0.062766632 0)
(-0.17933244 0.036935689 0)
(-0.18986202 0.0059401265 0)
(-0.19413794 -0.028760254 0)
(-0.1906505 -0.064635822 0)
(-0.1780489 -0.097928487 0)
(-0.15564355 -0.12367284 0)
(-0.12413868 -0.13626405 0)
(-0.086428811 -0.13089097 0)
(-0.047938713 -0.10590745 0)
(-0.016383906 -0.065212242 0)
(-0.0017478203 -0.018835004 0)
(-0.0022471805 0.032753695 0)
(-0.012807046 0.078672317 0)
(-0.031985409 0.10798549 0)
(-0.054793548 0.12426371 0)
(-0.079075242 0.13050506 0)
(-0.10367353 0.12867358 0)
(-0.127733 0.11972605 0)
(-0.15054694 0.10390493 0)
(-0.17138328 0.081128561 0)
(-0.18932718 0.051379733 0)
(-0.20316427 0.015070141 0)
(-0.21132853 -0.026583206 0)
(-0.21194081 -0.071119999 0)
(-0.2029762 -0.11452127 0)
(-0.18273301 -0.15088509 0)
(-0.15073543 -0.17271204 0)
(-0.10894926 -0.17229636 0)
(-0.062891871 -0.14483114 0)
(-0.022471447 -0.092730906 0)
(-0.0026506783 -0.028352924 0)
(-0.0022041885 0.039703907 0)
(-0.012689911 0.094481535 0)
(-0.0317715 0.12893144 0)
(-0.054377872 0.14779673 0)
(-0.078334705 0.15499265 0)
(-0.102568 0.15309724 0)
(-0.12639302 0.14339111 0)
(-0.14933555 0.12620076 0)
(-0.17092815 0.10133785 0)
(-0.19051865 0.068523988 0)
(-0.2070984 0.027788773 0)
(-0.21915452 -0.020093758 0)
(-0.22466602 -0.073039952 0)
(-0.22108385 -0.12716993 0)
(-0.20563206 -0.17603409 0)
(-0.17626321 -0.21037671 0)
(-0.13316304 -0.21902413 0)
(-0.080770667 -0.19226433 0)
(-0.030583905 -0.12853782 0)
(-0.0040593629 -0.041537735 0)
(-0.0020939256 0.046454056 0)
(-0.012186858 0.10993352 0)
(-0.030521147 0.14932613 0)
(-0.051985291 0.1705485 0)
(-0.074416599 0.17852168 0)
(-0.096861585 0.176533 0)
(-0.11885467 0.16626667 0)
(-0.14021489 0.1481916 0)
(-0.16082466 0.12204571 0)
(-0.18042254 0.087289611 0)
(-0.19839608 0.043522355 0)
(-0.21353197 -0.0090848538 0)
(-0.22399992 -0.069262605 0)
(-0.22704759 -0.13362996 0)
(-0.21902342 -0.19588109 0)
(-0.19616923 -0.24563806 0)
(-0.15610562 -0.26824763 0)
(-0.10060577 -0.24744782 0)
(-0.041090318 -0.17396089 0)
(-0.0062578678 -0.059702697 0)
(-0.0020022795 0.052854068 0)
(-0.011589266 0.12460454 0)
(-0.028706504 0.16840781 0)
(-0.048120479 0.1914151 0)
(-0.067719303 0.19968847 0)
(-0.086743932 0.19733271 0)
(-0.10501905 0.18651837 0)
(-0.12271913 0.16792645 0)
(-0.14014112 0.14128265 0)
(-0.15749863 0.10583271 0)
(-0.17473203 0.060749086 0)
(-0.19130556 0.0055232837 0)
(-0.20581059 -0.059532716 0)
(-0.21567777 -0.13214497 0)
(-0.21701828 -0.2070063 0)
(-0.20462903 -0.27375157 0)
(-0.17316405 -0.31513158 0)
(-0.12012344 -0.30753065 0)
(-0.054104323 -0.22947141 0)
(-0.009661402 -0.084492259 0)
(-0.0021106875 0.059001708 0)
(-0.011464849 0.13837295 0)
(-0.02722147 0.18557367 0)
(-0.043785284 0.20928849 0)
(-0.05919157 0.21696732 0)
(-0.073034846 0.21365161 0)
(-0.085550882 0.20205891 0)
(-0.09734237 0.18313481 0)
(-0.10916452 0.15665815 0)
(-0.12175243 0.12173967 0)
(-0.13567063 0.077197988 0)
(-0.1511197 0.021900801 0)
(-0.16751982 -0.044753859 0)
(-0.1830954 -0.12210805 0)
(-0.19434295 -0.20667961 0)
(-0.195438 -0.28963298 0)
(-0.17840201 -0.35307398 0)
(-0.13543072 -0.36693043 0)
(-0.069070784 -0.29373672 0)
(-0.014783372 -0.11780233 0)
(-0.0027830989 0.065472264 0)
(-0.012813913 0.15162022 0)
(-0.027490053 0.2004693 0)
(-0.040491947 0.2230941 0)
(-0.050255585 0.22875975 0)
(-0.057040369 0.22354759 0)
(-0.061688482 0.21071439 0)
(-0.065318692 0.19146218 0)
(-0.069157034 0.1656517 0)
(-0.074431017 0.132344 0)
(-0.082289437 0.090145848 0)
(-0.093671647 0.037469837 0)
(-0.10899448 -0.027156088 0)
(-0.12769413 -0.10462597 0)
(-0.1474679 -0.1938566 0)
(-0.16312694 -0.28910753 0)
(-0.16530544 -0.37469655 0)
(-0.14100446 -0.41730677 0)
(-0.084078761 -0.36243622 0)
(-0.022005673 -0.16138631 0)
(-0.0047377099 0.073733383 0)
(-0.017311437 0.16543635 0)
(-0.031484 0.21295128 0)
(-0.039996115 0.23168266 0)
(-0.042299277 0.23331874 0)
(-0.03985404 0.22497739 0)
(-0.034383174 0.21030218 0)
(-0.027617808 0.19062989 0)
(-0.021235584 0.16585063 0)
(-0.016865602 0.13501496 0)
(-0.016116006 0.096647277 0)
(-0.020540263 0.048937047 0)
(-0.03149603 -0.010127189 0)
(-0.049763178 -0.082624797 0)
(-0.074865472 -0.1698549 0)
(-0.10366139 -0.27022309 0)
(-0.12753695 -0.3734096 0)
(-0.12989964 -0.448383 0)
(-0.094969596 -0.42720657 0)
(-0.030934179 -0.21595584 0)
(-0.0093178094 0.086903239 0)
(-0.027524779 0.18166577 0)
(-0.041195146 0.22272661 0)
(-0.043019584 0.23341616 0)
(-0.034861637 0.22842262 0)
(-0.020175802 0.21558826 0)
(-0.0018627803 0.19852787 0)
(0.01767709 0.1784164 0)
(0.03638514 0.15504521 0)
(0.05237594 0.12742405 0)
(0.063768062 0.094086214 0)
(0.068617916 0.053224121 0)
(0.064852219 0.0027023446 0)
(0.050539734 -0.060097454 0)
(0.024195423 -0.13815363 0)
(-0.014079898 -0.23397434 0)
(-0.059049072 -0.344988 0)
(-0.093703017 -0.44935221 0)
(-0.094550609 -0.47538686 0)
(-0.039229683 -0.28034717 0)
(-0.01859255 0.11087061 0)
(-0.046115336 0.20168815 0)
(-0.055415709 0.22774634 0)
(-0.044291168 0.2247671 0)
(-0.019794178 0.21034243 0)
(0.011813347 0.19203149 0)
(0.046400087 0.17259079 0)
(0.081116204 0.15253366 0)
(0.11378383 0.13131492 0)
(0.14251009 0.10783737 0)
(0.1654068 0.080701204 0)
(0.1804203 0.048270364 0)
(0.18507485 0.0086325786 0)
(0.17672687 -0.040633827 0)
(0.15238291 -0.10301281 0)
(0.10917415 -0.1837746 0)
(0.046986148 -0.28845182 0)
(-0.021616803 -0.41041414 0)
(-0.072335996 -0.49090974 0)
(-0.041165905 -0.35045761 0)
(-0.033352766 0.15564376 0)
(-0.068634905 0.22038893 0)
(-0.055294658 0.21720939 0)
(-0.016278979 0.19518592 0)
(0.034211652 0.17075854 0)
(0.088115472 0.14833383 0)
(0.14130091 0.12848006 0)
(0.19145002 0.11048973 0)
(0.23699778 0.093262916 0)
(0.27658091 0.075593954 0)
(0.30870705 0.056247255 0)
(0.33157936 0.03392398 0)
(0.34277186 0.0071478031 0)
(0.33948931 -0.025790561 0)
(0.31785642 -0.067637834 0)
(0.27305775 -0.124031 0)
(0.2002753 -0.20579994 0)
(0.10201563 -0.32503364 0)
(-0.012451499 -0.45453328 0)
(-0.023773082 -0.40860653 0)
(-0.033072348 0.23910156 0)
(-0.042632186 0.21793888 0)
(0.042197798 0.16425029 0)
(0.12754072 0.12778639 0)
(0.20756261 0.10136589 0)
(0.28006864 0.081584596 0)
(0.3445894 0.066584562 0)
(0.40124537 0.054659499 0)
(0.45018195 0.044381427 0)
(0.49124606 0.03464821 0)
(0.52380612 0.024581827 0)
(0.54667023 0.013429136 0)
(0.55795615 0.00045393501 0)
(0.55549843 -0.015082813 0)
(0.53537163 -0.034922418 0)
(0.4923392 -0.062456071 0)
(0.41789916 -0.10693227 0)
(0.3040551 -0.19317047 0)
(0.12310835 -0.33691592 0)
(0.052364551 -0.39437623 0)
(0.24300931 0.15258464 0)
(0.30532334 0.1185566 0)
(0.45484264 0.07611364 0)
(0.56002306 0.050836133 0)
(0.63221411 0.035114765 0)
(0.68648798 0.02479787 0)
(0.72933621 0.017946712 0)
(0.76366248 0.013246805 0)
(0.79112761 0.009759187 0)
(0.81259768 0.0068578398 0)
(0.82827008 0.0041274239 0)
(0.83782666 0.0012890911 0)
(0.84048503 -0.0018336513 0)
(0.83492477 -0.0053152744 0)
(0.81884447 -0.0098192763 0)
(0.78942588 -0.016226816 0)
(0.73784963 -0.026933989 0)
(0.65317436 -0.051287749 0)
(0.45610045 -0.11374841 0)
(0.31788997 -0.17206205 0)
)
;

boundaryField
{
    movingWall
    {
        type            fixedValue;
        value           uniform (1 0 0);
    }
    fixedWalls
    {
        type            fixedValue;
        value           uniform (0 0 0);
    }
    frontAndBack
    {
        type            empty;
    }
}


// ************************************************************************* //
