/*--------------------------------*- C++ -*----------------------------------*\
| =========                 |                                                 |
| \\      /  F ield         | OpenFOAM: The Open Source CFD Toolbox           |
|  \\    /   O peration     | Version:  2112                                  |
|   \\  /    A nd           | Website:  www.openfoam.com                      |
|    \\/     M anipulation  |                                                 |
\*---------------------------------------------------------------------------*/
FoamFile
{
    version     2.0;
    format      ascii;
    arch        "LSB;label=32;scalar=64";
    class       volScalarField;
    location    "80";
    object      T;
}
// * * * * * * * * * * * * * * * * * * * * * * * * * * * * * * * * * * * * * //

dimensions      [0 0 0 1 0 0 0];

internalField   nonuniform List<scalar> 
10000
(
0.998128
1.00296
0.998195
0.998943
0.999079
0.998989
0.998945
0.998192
1.00291
0.99816
0.990582
0.99705
0.992635
0.993929
0.994205
0.99413
0.993929
0.992615
0.996858
0.990711
0.99178
0.996164
0.993165
0.993959
0.994189
0.994251
0.993982
0.993194
0.996058
0.991809
0.994612
0.997364
0.995492
0.995744
0.995827
0.995918
0.995792
0.995564
0.997476
0.99456
0.995883
0.997766
0.996808
0.996904
0.996925
0.996976
0.996946
0.996852
0.99794
0.99588
0.996445
0.997722
0.997267
0.997358
0.997376
0.997406
0.99739
0.997292
0.997832
0.996444
0.996947
0.99778
0.997542
0.997637
0.99766
0.997677
0.997656
0.997556
0.997814
0.996922
0.997343
0.99788
0.997768
0.997855
0.997886
0.997891
0.997862
0.997769
0.99789
0.997325
0.997598
0.997951
0.997907
0.997988
0.998021
0.99802
0.997987
0.997902
0.997956
0.997584
0.997759
0.997999
0.997992
0.998059
0.99809
0.998087
0.998055
0.997981
0.998002
0.997746
0.99787
0.998029
0.998026
0.998093
0.998107
0.998118
0.998093
0.998012
0.998053
0.99782
0.997951
0.998055
0.998041
0.998114
0.998107
0.998135
0.998116
0.998023
0.998098
0.99785
0.99801
0.998091
0.998084
0.998133
0.998133
0.998147
0.998127
0.998058
0.998104
0.997938
0.998053
0.998121
0.998115
0.998149
0.998154
0.998159
0.998139
0.998086
0.998102
0.998015
0.998061
0.99818
0.99816
0.998171
0.998189
0.998156
0.998128
0.998119
0.99811
0.998073
0.998021
0.998235
0.998183
0.998187
0.998215
0.998137
0.998104
0.998119
0.99812
0.998067
0.998071
0.998218
0.998167
0.998199
0.998208
0.998168
0.998141
0.998092
0.99809
0.998071
0.998194
0.998189
0.99819
0.998203
0.998187
0.998199
0.998171
0.99809
0.99801
0.998156
0.998171
0.99819
0.998212
0.998185
0.998157
0.998162
0.998119
0.998067
0.997923
0.998122
0.998054
0.998227
0.998251
0.99818
0.998188
0.998128
0.998063
0.998042
0.997782
0.998099
0.998072
0.998255
0.998289
0.998235
0.998242
0.998165
0.998078
0.997991
0.997631
0.998105
0.998048
0.99824
0.998282
0.998281
0.998256
0.998204
0.998077
0.997859
0.997402
0.997936
0.99775
0.998166
0.998211
0.998238
0.998227
0.998167
0.997993
0.997655
0.996923
0.997575
0.997154
0.997898
0.99798
0.998065
0.998108
0.998059
0.997848
0.997357
0.996123
0.996927
0.996004
0.997211
0.997402
0.997609
0.997758
0.997785
0.997587
0.996932
0.994857
0.995688
0.993729
0.995615
0.996045
0.996469
0.996832
0.997069
0.997043
0.996388
0.993069
0.993442
0.989196
0.992065
0.992946
0.993749
0.994509
0.995192
0.995676
0.995556
0.990611
0.988845
0.980324
0.984554
0.986157
0.987551
0.988975
0.990532
0.992294
0.994545
0.990413
0.984078
0.963505
0.96944
0.971999
0.974114
0.976399
0.979212
0.982872
0.989661
0.991983
0.979611
0.933253
0.940978
0.944336
0.946909
0.94996
0.954423
0.961823
0.979465
1.02967
1.06303
1.00288
1.0083
1.00333
1.00423
1.00442
1.00441
1.00423
1.00336
1.00821
1.0029
0.996786
1.00553
1.00108
1.00251
1.0029
1.00294
1.00251
1.0012
1.00547
0.99683
0.996163
1.00292
1.00037
1.001
1.00123
1.0012
1.00098
1.00045
1.00304
0.996076
0.99749
1.00149
1.00004
1.00007
1.00009
0.999996
1.00002
0.999968
1.00142
0.997543
0.997937
1.00013
0.999303
0.999202
0.999163
0.9991
0.999162
0.999211
1
0.998017
0.997832
0.999144
0.99876
0.998672
0.998618
0.998589
0.998652
0.998708
0.99912
0.997892
0.997786
0.998597
0.998479
0.998422
0.998377
0.998367
0.998415
0.998458
0.998674
0.997853
0.99786
0.998388
0.998342
0.998311
0.998283
0.998279
0.998309
0.998337
0.998456
0.997915
0.997934
0.998296
0.998272
0.998259
0.998247
0.998245
0.998259
0.998275
0.99834
0.997974
0.997987
0.998244
0.998232
0.998229
0.998231
0.998228
0.998231
0.998236
0.99827
0.998019
0.998035
0.998219
0.998247
0.998224
0.998259
0.998228
0.998221
0.998248
0.998248
0.998083
0.998083
0.998216
0.998291
0.998231
0.998307
0.998234
0.998223
0.998289
0.99825
0.998151
0.998114
0.998208
0.998262
0.998225
0.998277
0.998229
0.998219
0.998253
0.998223
0.998159
0.998128
0.998206
0.998235
0.998223
0.998243
0.99822
0.99821
0.998213
0.99819
0.998159
0.998158
0.998223
0.998189
0.998213
0.998192
0.998234
0.998227
0.998156
0.998154
0.998159
0.998164
0.998276
0.998174
0.998212
0.998144
0.998279
0.998269
0.998125
0.998134
0.998181
0.9981
0.998337
0.998258
0.99822
0.998164
0.99822
0.998197
0.998161
0.998104
0.998194
0.998087
0.99827
0.998266
0.998218
0.998202
0.998127
0.998086
0.998103
0.998013
0.998144
0.998146
0.99826
0.998289
0.998268
0.998273
0.998163
0.99811
0.998048
0.997952
0.998139
0.998164
0.998376
0.998302
0.99833
0.998244
0.998221
0.998147
0.997945
0.997846
0.998113
0.998017
0.998345
0.99826
0.998266
0.998151
0.998138
0.998019
0.997746
0.997527
0.998007
0.997766
0.998277
0.998272
0.998176
0.99812
0.998014
0.997847
0.997561
0.997102
0.997883
0.997478
0.998274
0.998269
0.998142
0.998092
0.99796
0.997737
0.997319
0.99659
0.99768
0.99693
0.99815
0.998141
0.998016
0.997973
0.997853
0.997575
0.996951
0.995784
0.997233
0.995834
0.997667
0.997695
0.997605
0.997616
0.997561
0.997271
0.996417
0.994505
0.996253
0.993667
0.996358
0.996508
0.996525
0.996687
0.996816
0.996673
0.995717
0.992684
0.994334
0.989339
0.993242
0.993656
0.993897
0.994372
0.994912
0.995269
0.994712
0.990088
0.989994
0.980819
0.986337
0.987208
0.987824
0.988842
0.990187
0.991754
0.993352
0.989797
0.985716
0.964471
0.971956
0.973433
0.974485
0.976206
0.978702
0.981977
0.98861
0.989291
0.98089
0.934558
0.944034
0.945901
0.947057
0.949312
0.953249
0.959866
0.978646
1.03032
1.05466
0.998207
1.00337
0.998075
0.998867
0.999053
0.99907
0.998845
0.998073
1.00337
0.998191
0.992632
1.00115
0.996224
0.997544
0.997988
0.998061
0.997574
0.996349
1.00122
0.992603
0.993182
1.00039
0.997464
0.997967
0.998288
0.998321
0.998025
0.99761
1.00043
0.993201
0.995503
1.00002
0.998682
0.998686
0.998798
0.998799
0.998717
0.998708
0.999912
0.995615
0.99681
0.999264
0.998797
0.998771
0.998789
0.998784
0.99878
0.998777
0.999156
0.996924
0.997272
0.998733
0.998666
0.998671
0.998655
0.998648
0.99867
0.998632
0.998674
0.997362
0.997554
0.998469
0.998543
0.99857
0.998555
0.998548
0.998564
0.998506
0.998442
0.99761
0.99778
0.998342
0.998436
0.998475
0.998472
0.998468
0.998466
0.998409
0.99833
0.997807
0.997916
0.998274
0.998356
0.998398
0.998405
0.998403
0.998391
0.99834
0.99827
0.997935
0.997991
0.998232
0.9983
0.998339
0.998353
0.998352
0.998335
0.99829
0.998232
0.998006
0.998043
0.998207
0.998266
0.998295
0.998316
0.998312
0.998294
0.998259
0.998207
0.998053
0.998083
0.998195
0.998246
0.998265
0.998291
0.998283
0.998265
0.998238
0.998193
0.998093
0.998108
0.998191
0.998234
0.998248
0.99827
0.998262
0.998246
0.998222
0.998182
0.998124
0.99812
0.998197
0.998232
0.998242
0.998255
0.998245
0.99823
0.99821
0.998174
0.998154
0.998125
0.998206
0.998226
0.99824
0.998239
0.998232
0.998216
0.998189
0.998163
0.998178
0.998126
0.998226
0.998225
0.998238
0.998227
0.998227
0.998206
0.99817
0.998145
0.998199
0.998121
0.998241
0.998232
0.998231
0.99822
0.998219
0.998191
0.998151
0.998115
0.99822
0.998098
0.998235
0.998239
0.998221
0.998212
0.998198
0.998167
0.998119
0.998062
0.998238
0.998059
0.998248
0.998258
0.998226
0.998208
0.99818
0.99814
0.998074
0.997998
0.998268
0.998004
0.998282
0.998285
0.998246
0.998207
0.998171
0.998112
0.998008
0.997901
0.998306
0.997901
0.998311
0.998313
0.99826
0.998207
0.998158
0.998068
0.997911
0.997732
0.998336
0.997722
0.99833
0.998335
0.998255
0.998199
0.998129
0.997998
0.997766
0.997459
0.998345
0.997405
0.998305
0.998321
0.998217
0.998157
0.998072
0.99789
0.997541
0.997015
0.998266
0.996807
0.998159
0.998202
0.998087
0.998034
0.997951
0.997718
0.997203
0.996299
0.997975
0.995691
0.997713
0.997817
0.997719
0.997709
0.997676
0.997426
0.996715
0.995155
0.997191
0.993566
0.996536
0.996778
0.996755
0.996862
0.996987
0.996856
0.996056
0.993484
0.995489
0.989418
0.993709
0.994208
0.994351
0.994702
0.995182
0.99548
0.995044
0.991076
0.991428
0.981278
0.987314
0.988228
0.988646
0.98942
0.990564
0.991915
0.993493
0.990839
0.987912
0.965514
0.973685
0.975088
0.97577
0.97705
0.979085
0.981923
0.988208
0.989969
0.983795
0.936118
0.946496
0.948074
0.948587
0.950091
0.953173
0.958919
0.976503
1.03016
1.05966
0.998956
1.00425
0.998854
0.999669
0.999874
0.999876
0.999649
0.998835
1.00425
0.998936
0.993942
1.00252
0.997519
0.998789
0.999232
0.999259
0.998793
0.997581
1.00256
0.993878
0.993992
1.00098
0.997964
0.998335
0.998627
0.998652
0.998365
0.998064
1.00097
0.993979
0.995756
1.00006
0.9987
0.998595
0.998677
0.998689
0.998623
0.998735
0.99995
0.995868
0.996912
0.999195
0.998779
0.998702
0.998698
0.9987
0.998717
0.998776
0.999096
0.997044
0.997374
0.998662
0.998672
0.998681
0.998657
0.998657
0.998689
0.998656
0.998606
0.997481
0.997645
0.998414
0.998568
0.998631
0.998621
0.99862
0.998633
0.998548
0.998389
0.997725
0.997855
0.998306
0.998472
0.998553
0.998562
0.998561
0.998552
0.998457
0.998298
0.997911
0.997983
0.998258
0.998397
0.998476
0.998496
0.998496
0.998473
0.998387
0.998255
0.998025
0.998053
0.998232
0.998343
0.998412
0.998436
0.998436
0.998409
0.998335
0.99823
0.998089
0.9981
0.998216
0.998307
0.998361
0.998388
0.998385
0.998358
0.9983
0.998218
0.998129
0.998131
0.998209
0.998282
0.998323
0.998348
0.998344
0.998319
0.998275
0.998211
0.998158
0.998148
0.998207
0.998263
0.998293
0.998314
0.99831
0.99829
0.998253
0.998203
0.998181
0.998152
0.998208
0.99825
0.998272
0.998287
0.998283
0.998265
0.998234
0.998193
0.998199
0.998146
0.998214
0.998239
0.998256
0.998265
0.998262
0.998245
0.998215
0.998181
0.998215
0.998137
0.99822
0.998235
0.998246
0.998248
0.998247
0.998229
0.998197
0.998165
0.998232
0.998122
0.998225
0.99824
0.99824
0.998236
0.998232
0.998211
0.998177
0.998142
0.998255
0.998098
0.998226
0.998246
0.998234
0.998227
0.998215
0.998188
0.998148
0.998104
0.998281
0.998062
0.998239
0.998258
0.998235
0.998221
0.998201
0.998165
0.998108
0.99805
0.998318
0.998
0.998261
0.998276
0.998242
0.998217
0.998189
0.998137
0.998052
0.997966
0.998365
0.99788
0.998278
0.998293
0.998246
0.998209
0.998172
0.998095
0.997963
0.997817
0.998408
0.997678
0.99829
0.998307
0.998241
0.998196
0.998144
0.998031
0.997831
0.997572
0.998432
0.997353
0.99826
0.998299
0.998212
0.99816
0.998096
0.997936
0.997629
0.997171
0.998379
0.996773
0.998119
0.998202
0.998099
0.998053
0.997993
0.997784
0.997322
0.99651
0.998125
0.9957
0.997718
0.997858
0.997766
0.997755
0.99774
0.99751
0.996861
0.995425
0.997382
0.993674
0.996636
0.996906
0.996872
0.996954
0.997081
0.996952
0.996212
0.993807
0.99573
0.989714
0.994
0.994506
0.994596
0.994871
0.995309
0.995557
0.995158
0.991501
0.991857
0.981893
0.987932
0.988802
0.989084
0.98969
0.990698
0.991918
0.993506
0.991193
0.988572
0.966545
0.974736
0.976
0.976412
0.977356
0.979051
0.981545
0.987436
0.98981
0.984758
0.93738
0.947836
0.949124
0.949168
0.950094
0.95253
0.957591
0.974528
1.02916
1.06084
0.998948
1.00449
0.999069
0.999827
1.00004
1.00004
0.999814
0.999057
1.0045
0.998933
0.994058
1.00301
0.998052
0.999243
0.999664
0.999675
0.999247
0.998105
1.00306
0.994014
0.994331
1.00105
0.998284
0.998647
0.998934
0.998949
0.998672
0.998376
1.00106
0.994326
0.99594
0.999946
0.998776
0.998653
0.998727
0.99874
0.99868
0.998818
0.999866
0.996043
0.996975
0.999096
0.998771
0.998678
0.99866
0.998666
0.998692
0.998772
0.999013
0.997105
0.997401
0.998591
0.998641
0.998647
0.998613
0.998616
0.998656
0.998628
0.998539
0.99752
0.997669
0.998365
0.998545
0.998616
0.998602
0.998604
0.998621
0.99853
0.998341
0.99776
0.99788
0.998279
0.998463
0.99856
0.99857
0.99857
0.998561
0.998455
0.998269
0.997948
0.998008
0.998254
0.9984
0.998495
0.998519
0.998519
0.998495
0.998396
0.998242
0.998064
0.998083
0.998238
0.998356
0.998437
0.998466
0.998466
0.998436
0.998351
0.99823
0.998125
0.99813
0.998221
0.998326
0.998388
0.998416
0.998415
0.998385
0.998317
0.998224
0.998162
0.998156
0.998216
0.998301
0.998347
0.998373
0.998371
0.998343
0.998289
0.998219
0.998188
0.998167
0.998212
0.998278
0.998314
0.998335
0.998333
0.99831
0.998267
0.998211
0.998205
0.998165
0.998211
0.998256
0.998287
0.998304
0.998302
0.998282
0.998247
0.998202
0.998219
0.998153
0.998223
0.998241
0.998267
0.99828
0.998277
0.998259
0.998227
0.99819
0.998232
0.998142
0.998234
0.99824
0.998255
0.998261
0.998258
0.99824
0.998209
0.998176
0.998248
0.998131
0.998229
0.998249
0.998247
0.998246
0.99824
0.99822
0.998188
0.998154
0.998271
0.99811
0.998224
0.998257
0.998241
0.998235
0.998225
0.998199
0.99816
0.99812
0.998299
0.998068
0.998236
0.998266
0.99824
0.998227
0.998211
0.998176
0.998122
0.998068
0.998337
0.998
0.998254
0.998276
0.998243
0.998221
0.998197
0.998148
0.998068
0.997985
0.998384
0.997866
0.998296
0.998292
0.998245
0.998214
0.998179
0.998107
0.997984
0.997845
0.99843
0.997647
0.998349
0.99831
0.998242
0.9982
0.998153
0.998045
0.997857
0.99761
0.998459
0.997354
0.998272
0.9983
0.998213
0.998163
0.998107
0.997954
0.99766
0.997219
0.998413
0.9968
0.998098
0.998205
0.998105
0.99806
0.998007
0.997805
0.997359
0.996566
0.998168
0.995736
0.99776
0.997879
0.997785
0.997768
0.997758
0.997531
0.9969
0.995489
0.997431
0.993767
0.996718
0.996963
0.996918
0.996981
0.997104
0.996969
0.996245
0.993877
0.99579
0.98991
0.99416
0.994636
0.994687
0.99492
0.995333
0.995553
0.995162
0.99158
0.991958
0.982267
0.988228
0.989046
0.989248
0.989759
0.990694
0.991837
0.993404
0.991212
0.988724
0.967126
0.975211
0.976379
0.97663
0.977391
0.978925
0.98127
0.98705
0.989547
0.984904
0.938015
0.94842
0.949501
0.949266
0.949883
0.952009
0.956777
0.973293
1.02803
1.05985
0.999089
1.00442
0.999043
0.999864
1.00008
1.00008
0.99985
0.99903
1.00443
0.999071
0.994204
1.00289
0.997967
0.999219
0.999662
0.999668
0.999221
0.998021
1.00295
0.99414
0.994174
1.00125
0.9983
0.99863
0.998914
0.998926
0.998653
0.998387
1.00126
0.994156
0.995818
1.00012
0.998816
0.998685
0.998755
0.998767
0.998708
0.998851
1.00003
0.995922
0.996929
0.999175
0.998793
0.998699
0.998679
0.998686
0.998711
0.998793
0.999089
0.997063
0.997382
0.998624
0.998653
0.998657
0.99862
0.998625
0.998664
0.998638
0.998566
0.997506
0.99766
0.998382
0.99855
0.99862
0.998605
0.998607
0.998624
0.998534
0.998349
0.997758
0.997858
0.998318
0.998467
0.998562
0.998571
0.998571
0.998562
0.998455
0.998271
0.997949
0.997971
0.998332
0.998406
0.998497
0.998521
0.99852
0.998495
0.998394
0.998242
0.998064
0.998081
0.99826
0.99836
0.998439
0.998467
0.998466
0.998436
0.99835
0.99823
0.998126
0.998157
0.998171
0.998324
0.998387
0.998416
0.998416
0.998385
0.998315
0.998224
0.998163
0.99817
0.998176
0.998297
0.998346
0.998371
0.99837
0.998343
0.998288
0.998219
0.998187
0.998174
0.998194
0.998272
0.998313
0.998334
0.998333
0.99831
0.998266
0.998211
0.998205
0.998156
0.998237
0.998256
0.998288
0.998304
0.998302
0.998282
0.998246
0.998202
0.998219
0.998109
0.998324
0.998251
0.998271
0.998281
0.998277
0.998258
0.998228
0.998192
0.998232
0.998102
0.998326
0.998252
0.998259
0.998263
0.998257
0.998239
0.998209
0.998176
0.99825
0.998144
0.9982
0.99825
0.998248
0.998247
0.998241
0.99822
0.998188
0.998155
0.998273
0.998149
0.998129
0.998249
0.998239
0.998235
0.998225
0.9982
0.998161
0.998121
0.998301
0.998094
0.998169
0.998254
0.998237
0.998227
0.998211
0.998177
0.998124
0.998069
0.998338
0.998008
0.998226
0.998267
0.99824
0.99822
0.998197
0.998148
0.998069
0.997985
0.998384
0.997878
0.998264
0.998287
0.998243
0.998213
0.998179
0.998107
0.997986
0.997847
0.998433
0.99768
0.99828
0.998307
0.99824
0.998201
0.998154
0.998047
0.997859
0.997614
0.998462
0.997364
0.998249
0.998302
0.998213
0.998165
0.998109
0.997956
0.997662
0.997222
0.998414
0.996793
0.998122
0.99821
0.998108
0.998061
0.998008
0.997806
0.997361
0.996569
0.998167
0.995746
0.997742
0.997884
0.997788
0.99777
0.99776
0.997534
0.996904
0.995492
0.99743
0.993772
0.996713
0.996973
0.996921
0.996985
0.997109
0.996973
0.99625
0.993887
0.995802
0.989918
0.994181
0.994653
0.994696
0.994929
0.995343
0.995565
0.995172
0.991577
0.991949
0.982277
0.988291
0.989084
0.989272
0.98978
0.990709
0.991835
0.993366
0.991249
0.988928
0.967158
0.975332
0.976451
0.976689
0.97745
0.978988
0.981356
0.987252
0.989593
0.984455
0.938114
0.94858
0.949636
0.949393
0.950008
0.952141
0.956928
0.973427
1.02842
1.06112
0.99893
1.00425
0.99886
0.999652
0.999853
0.99985
0.999636
0.998842
1.00425
0.998911
0.993891
1.00254
0.997556
0.998792
0.999227
0.99923
0.998789
0.997599
1.00259
0.993825
0.993948
1.00101
0.998005
0.998354
0.998641
0.99865
0.998372
0.998086
1.00101
0.993922
0.995778
1.00004
0.998703
0.99861
0.998692
0.998702
0.998629
0.998734
0.999947
0.995877
0.996939
0.999175
0.998769
0.998706
0.998701
0.998706
0.998716
0.998767
0.999082
0.997071
0.997383
0.998658
0.998664
0.998683
0.99866
0.998663
0.998689
0.998648
0.998598
0.997503
0.997644
0.99842
0.99856
0.99863
0.998622
0.998624
0.998632
0.998541
0.998384
0.997739
0.997842
0.998318
0.998462
0.998551
0.998562
0.998562
0.99855
0.998449
0.998294
0.997919
0.997969
0.998276
0.998389
0.998474
0.998495
0.998495
0.998471
0.99838
0.998254
0.998028
0.998049
0.998244
0.998342
0.998411
0.998437
0.998435
0.998408
0.998331
0.998232
0.998093
0.998101
0.998218
0.99831
0.998363
0.998387
0.998385
0.998358
0.998296
0.998219
0.998134
0.998137
0.99821
0.998285
0.998325
0.998346
0.998345
0.99832
0.998272
0.998212
0.998163
0.998153
0.998205
0.998263
0.998295
0.998312
0.998312
0.998291
0.998251
0.998204
0.998184
0.998147
0.99821
0.998244
0.998272
0.998286
0.998284
0.998266
0.998233
0.998194
0.998201
0.998131
0.998231
0.998234
0.998257
0.998267
0.998263
0.998245
0.998217
0.998183
0.998217
0.998125
0.99824
0.998237
0.998248
0.998252
0.998246
0.998228
0.998199
0.998167
0.998235
0.998128
0.998227
0.998246
0.998242
0.99824
0.998231
0.99821
0.998177
0.998143
0.998258
0.99812
0.998219
0.998254
0.998238
0.99823
0.998217
0.998191
0.998149
0.998108
0.998287
0.998062
0.998263
0.998264
0.998238
0.998223
0.998204
0.998167
0.998111
0.998054
0.99832
0.997965
0.998336
0.998283
0.998244
0.998219
0.99819
0.998137
0.998055
0.997965
0.998361
0.997873
0.998302
0.998301
0.998248
0.998213
0.998172
0.998095
0.997969
0.99782
0.998407
0.997712
0.998235
0.998316
0.998243
0.998199
0.998146
0.998034
0.997837
0.99758
0.998432
0.997387
0.998213
0.998306
0.998214
0.998163
0.998099
0.99794
0.997634
0.99718
0.998381
0.996797
0.998101
0.998205
0.998103
0.998056
0.997997
0.997788
0.997328
0.996517
0.998133
0.995722
0.99771
0.997865
0.997774
0.99776
0.997746
0.997516
0.996873
0.995434
0.997389
0.993698
0.996645
0.996923
0.996886
0.996966
0.997091
0.996961
0.996228
0.993826
0.995741
0.989759
0.994034
0.99454
0.994626
0.994899
0.995334
0.995579
0.995184
0.991523
0.991861
0.981981
0.988016
0.988879
0.989156
0.989755
0.990748
0.991939
0.99354
0.991232
0.988602
0.966721
0.974921
0.976171
0.976577
0.977511
0.979188
0.981638
0.987556
0.989844
0.984655
0.937722
0.948199
0.949479
0.949521
0.950439
0.952859
0.957868
0.974728
1.0293
1.06073
0.998197
1.00336
0.998081
0.998856
0.99905
0.999048
0.998842
0.998068
1.00337
0.998178
0.992608
1.00118
0.996332
0.997575
0.998009
0.998018
0.997591
0.996403
1.00127
0.992555
0.993175
1.00045
0.997588
0.998042
0.998353
0.998369
0.99808
0.997705
1.0005
0.993161
0.995541
0.999989
0.998693
0.998711
0.998821
0.99883
0.998728
0.998726
0.999884
0.995632
0.996825
0.999217
0.998764
0.998759
0.998777
0.99878
0.998762
0.998755
0.999103
0.996949
0.997271
0.998706
0.998624
0.998648
0.998634
0.998635
0.998646
0.998596
0.998627
0.997377
0.997543
0.998464
0.998502
0.998547
0.998535
0.998534
0.998541
0.998469
0.998407
0.997617
0.997749
0.99834
0.998405
0.998457
0.998457
0.998455
0.99845
0.998378
0.998308
0.997809
0.997885
0.99828
0.998342
0.998388
0.998397
0.998395
0.998381
0.99832
0.998259
0.997932
0.99798
0.998249
0.998299
0.998339
0.998353
0.99835
0.998332
0.998282
0.998231
0.998009
0.998043
0.998218
0.99827
0.998303
0.998318
0.998317
0.998297
0.998256
0.998214
0.998067
0.998089
0.998202
0.998256
0.998279
0.998292
0.99829
0.998272
0.998239
0.998202
0.99811
0.998115
0.998195
0.998242
0.99826
0.998271
0.998269
0.998254
0.998224
0.99819
0.998142
0.998125
0.998201
0.998227
0.998246
0.998255
0.998252
0.998237
0.99821
0.998178
0.998167
0.998132
0.998227
0.998222
0.998237
0.998243
0.998238
0.998221
0.998195
0.998164
0.998189
0.998127
0.998242
0.998228
0.998234
0.998233
0.998225
0.998206
0.998178
0.998146
0.998209
0.998118
0.998235
0.998242
0.998233
0.998226
0.998214
0.998189
0.998156
0.998118
0.998228
0.99811
0.998229
0.998255
0.998232
0.998219
0.998201
0.998171
0.998124
0.998074
0.998249
0.998076
0.998254
0.998264
0.998234
0.998215
0.998188
0.998145
0.998079
0.998007
0.998276
0.998008
0.998302
0.998285
0.998243
0.998213
0.998173
0.998111
0.998012
0.997902
0.998305
0.997899
0.99832
0.998315
0.998251
0.998208
0.998154
0.998063
0.997913
0.997733
0.998332
0.997724
0.998317
0.99834
0.998249
0.998193
0.998123
0.997992
0.997764
0.997461
0.998332
0.997412
0.998291
0.998327
0.998217
0.998154
0.99807
0.997887
0.99754
0.997021
0.998255
0.996819
0.998149
0.998211
0.998094
0.998038
0.997956
0.997723
0.997211
0.996308
0.99798
0.99571
0.997711
0.99783
0.997734
0.99772
0.997688
0.997438
0.996733
0.99517
0.997213
0.993598
0.996556
0.996804
0.996781
0.996885
0.99701
0.996879
0.996085
0.993515
0.995542
0.989482
0.993764
0.994265
0.994404
0.994751
0.995228
0.995524
0.995094
0.991122
0.991523
0.981406
0.987441
0.988352
0.988762
0.989526
0.990655
0.99198
0.993577
0.990945
0.988148
0.965778
0.973954
0.975352
0.976027
0.977293
0.97931
0.982127
0.988503
0.990141
0.983914
0.936634
0.947032
0.948609
0.94912
0.950611
0.953678
0.959338
0.977043
1.03079
1.05992
1.0029
1.0082
1.00335
1.00423
1.00441
1.00441
1.00424
1.00337
1.00823
1.00288
0.996835
1.00544
1.00118
1.00253
1.00292
1.00293
1.00256
1.00126
1.00556
0.996773
0.996031
1.00309
1.00042
1.00099
1.00128
1.00128
1.00101
1.0005
1.0031
0.996
0.997421
1.00155
0.999924
0.999978
1.00007
1.00006
0.999954
0.999889
1.0013
0.997522
0.997927
1.00005
0.999154
0.99911
0.999111
0.999106
0.999086
0.999106
0.999885
0.998041
0.99786
0.999104
0.998667
0.998612
0.99858
0.998577
0.998599
0.998628
0.999059
0.99794
0.997803
0.998721
0.998443
0.998395
0.998358
0.998355
0.998385
0.998406
0.99865
0.997896
0.997909
0.998475
0.998332
0.998303
0.998276
0.998274
0.998296
0.998307
0.99845
0.997944
0.99802
0.998339
0.998277
0.99826
0.998245
0.998244
0.998254
0.998258
0.99834
0.997992
0.997992
0.998323
0.998246
0.998238
0.998234
0.998233
0.998232
0.99823
0.998275
0.99803
0.998008
0.99822
0.998222
0.998225
0.998228
0.998226
0.998221
0.998215
0.998237
0.998066
0.99809
0.998129
0.998213
0.998216
0.998222
0.998221
0.998214
0.998203
0.99821
0.998097
0.998125
0.998143
0.998207
0.998212
0.998218
0.998217
0.998208
0.998193
0.998187
0.998121
0.998143
0.998225
0.998206
0.998212
0.998216
0.998212
0.9982
0.998181
0.998165
0.998141
0.998134
0.99835
0.998216
0.998218
0.998216
0.998207
0.998191
0.998169
0.998143
0.998153
0.998093
0.99834
0.998223
0.998222
0.998215
0.998201
0.99818
0.998152
0.998116
0.998159
0.998112
0.998191
0.998232
0.998222
0.99821
0.998193
0.998165
0.998126
0.998076
0.998163
0.998163
0.998132
0.998246
0.998221
0.998205
0.998182
0.998145
0.998088
0.998017
0.998162
0.998153
0.998247
0.99827
0.99823
0.998205
0.99817
0.998117
0.998034
0.997928
0.998148
0.998096
0.998394
0.998304
0.998248
0.998209
0.998156
0.998077
0.997953
0.997788
0.998119
0.997994
0.998371
0.998329
0.998259
0.998206
0.998133
0.998019
0.997829
0.997567
0.998062
0.997836
0.998299
0.998346
0.998252
0.998188
0.998096
0.997934
0.997646
0.997222
0.997947
0.997555
0.998291
0.998324
0.998209
0.99814
0.99803
0.99781
0.997376
0.996678
0.997713
0.997
0.998164
0.998181
0.998063
0.998006
0.997896
0.997619
0.99699
0.995829
0.997236
0.995905
0.997684
0.997729
0.997645
0.997645
0.997591
0.9973
0.99645
0.994521
0.996221
0.993744
0.996396
0.996553
0.996569
0.996721
0.996847
0.996698
0.99575
0.992686
0.994267
0.98946
0.993323
0.993738
0.993968
0.994434
0.994971
0.995305
0.994759
0.990061
0.989876
0.98103
0.986502
0.987374
0.987977
0.988983
0.990301
0.99181
0.993453
0.989799
0.985677
0.96487
0.972301
0.973772
0.97482
0.97652
0.978969
0.982211
0.98895
0.989096
0.980335
0.935276
0.944705
0.946573
0.947733
0.949952
0.953845
0.960321
0.97937
1.03023
1.05475
0.998171
1.0029
0.998205
0.998933
0.999073
0.999069
0.99892
0.998186
1.00289
0.998174
0.990751
0.996842
0.992608
0.993859
0.994128
0.99412
0.99383
0.992567
0.996779
0.990742
0.991771
0.996079
0.993171
0.993917
0.994101
0.994096
0.993902
0.993159
0.996
0.991784
0.994463
0.997568
0.995574
0.995829
0.995878
0.995887
0.99585
0.995621
0.997518
0.994574
0.995832
0.998047
0.996889
0.997024
0.997031
0.997042
0.99705
0.99694
0.998037
0.995927
0.996417
0.997901
0.997334
0.997462
0.997474
0.997483
0.997487
0.99737
0.997936
0.996484
0.996874
0.997871
0.997592
0.997708
0.997732
0.997737
0.997727
0.997609
0.997892
0.996951
0.997283
0.997941
0.997791
0.997897
0.997933
0.997936
0.997908
0.997802
0.99794
0.99735
0.997512
0.998002
0.997918
0.998014
0.998054
0.998056
0.998017
0.997927
0.997987
0.997611
0.997716
0.998026
0.998003
0.998084
0.998117
0.998116
0.99808
0.998003
0.998024
0.997775
0.997945
0.998021
0.998069
0.998127
0.998152
0.998152
0.998121
0.998056
0.998058
0.997889
0.998043
0.998044
0.998118
0.998153
0.998173
0.998173
0.998147
0.998094
0.998086
0.997973
0.998073
0.99809
0.998143
0.998168
0.998187
0.998186
0.998163
0.998121
0.998105
0.998034
0.998045
0.99816
0.99815
0.99818
0.998197
0.998194
0.998173
0.998139
0.998118
0.998082
0.997982
0.998248
0.99816
0.998194
0.998206
0.998199
0.998179
0.998148
0.998122
0.998116
0.998081
0.998243
0.998181
0.998207
0.998209
0.998199
0.998179
0.998147
0.998113
0.998134
0.998235
0.998176
0.998213
0.998214
0.998209
0.998194
0.998173
0.998139
0.998093
0.998142
0.99826
0.998174
0.99824
0.998221
0.998212
0.998192
0.998162
0.998121
0.998056
0.998139
0.99817
0.998239
0.998252
0.998231
0.998218
0.998191
0.998145
0.998089
0.997987
0.998121
0.998056
0.998321
0.99826
0.998246
0.998227
0.998188
0.99812
0.998035
0.997875
0.998078
0.998084
0.998289
0.998268
0.998256
0.998235
0.998181
0.998086
0.99795
0.997692
0.997994
0.998056
0.998199
0.998265
0.998252
0.998233
0.998165
0.998035
0.997822
0.997391
0.997828
0.997761
0.99812
0.998204
0.998211
0.998206
0.998133
0.997957
0.997629
0.996901
0.997507
0.997175
0.997875
0.997981
0.998059
0.998101
0.998047
0.997832
0.997344
0.99611
0.996888
0.996043
0.997211
0.997416
0.997623
0.997769
0.997792
0.997588
0.996938
0.994853
0.995667
0.993794
0.995642
0.996087
0.99651
0.996867
0.997098
0.997066
0.996422
0.993082
0.993447
0.98932
0.992152
0.993044
0.99384
0.994586
0.995264
0.995737
0.995638
0.990652
0.988885
0.980557
0.984751
0.986359
0.987742
0.989145
0.990684
0.992413
0.994728
0.990576
0.984268
0.963948
0.969854
0.972409
0.974512
0.976771
0.979546
0.983155
0.990056
0.992238
0.97977
0.934051
0.941755
0.945119
0.947693
0.950716
0.955137
0.962444
0.98024
1.0305
1.06297
0.882475
0.891282
0.894343
0.89601
0.898218
0.90172
0.907677
0.913215
0.960457
1.01031
0.804217
0.812228
0.812688
0.810969
0.810011
0.810995
0.816385
0.824066
0.856776
0.940496
0.695308
0.699664
0.694327
0.686083
0.678855
0.67467
0.675858
0.683488
0.700844
0.749288
0.560382
0.558388
0.54484
0.527966
0.512084
0.499332
0.490946
0.487358
0.487689
0.49715
0.413495
0.404579
0.38369
0.360047
0.337951
0.318887
0.303252
0.290851
0.281132
0.27566
0.274906
0.261515
0.238146
0.213799
0.191736
0.172716
0.156563
0.142769
0.130949
0.121704
0.162547
0.14897
0.128773
0.109267
0.0924363
0.0783961
0.0666564
0.0566332
0.0479889
0.0410796
0.0847422
0.0742409
0.0603598
0.0479076
0.0377787
0.0297423
0.0232887
0.0179882
0.0135985
0.0103567
0.0388002
0.032348
0.0246048
0.018136
0.0132013
0.00951145
0.00672395
0.00456828
0.00293426
0.00194149
0.0156356
0.0123984
0.00882124
0.00602418
0.00402715
0.00263242
0.00165768
0.000965638
0.000510569
0.00032961
0.883349
0.894027
0.895117
0.894912
0.89597
0.898618
0.903743
0.906405
0.958961
1.00647
0.802828
0.812779
0.810658
0.806415
0.803622
0.802836
0.806659
0.811284
0.842092
0.933105
0.688956
0.695132
0.686662
0.675213
0.665313
0.658383
0.656671
0.660849
0.672842
0.721376
0.546865
0.546306
0.529629
0.50948
0.49078
0.475009
0.462993
0.45486
0.448744
0.451759
0.393408
0.385504
0.362742
0.337478
0.314066
0.293528
0.275973
0.260913
0.247431
0.237627
0.252723
0.240313
0.217164
0.193277
0.171782
0.153168
0.137098
0.122828
0.109963
0.09955
0.143684
0.131187
0.112652
0.094928
0.0797117
0.0670248
0.0562689
0.0468042
0.0385164
0.0321131
0.0718467
0.062474
0.0505528
0.0399759
0.0313978
0.0246022
0.0190382
0.014354
0.0104805
0.00794868
0.0315471
0.026009
0.0197299
0.0145442
0.0105912
0.0076324
0.00534844
0.00352503
0.00221629
0.00156175
0.0122219
0.0095479
0.00678246
0.00464616
0.00311919
0.00204581
0.0012835
0.000716312
0.000382876
0.000285104
0.884515
0.896376
0.896846
0.895584
0.895452
0.896782
0.90008
0.899571
0.952471
1.00376
0.801281
0.812636
0.809495
0.803655
0.799042
0.79619
0.797251
0.799222
0.824669
0.91862
0.680978
0.688639
0.678889
0.665445
0.653159
0.643275
0.637773
0.637311
0.642769
0.684686
0.529307
0.530075
0.512432
0.490711
0.469965
0.451494
0.435888
0.423043
0.410534
0.406323
0.367211
0.36045
0.338403
0.313495
0.289899
0.268583
0.249636
0.232565
0.216439
0.203812
0.224383
0.213396
0.192666
0.17108
0.151306
0.133851
0.118468
0.10458
0.0919541
0.0818468
0.120258
0.109536
0.0941887
0.0794826
0.0666579
0.0557972
0.0464353
0.0381583
0.0309407
0.0255907
0.0565191
0.0488908
0.0397147
0.0316031
0.0249271
0.0195515
0.0150694
0.0112639
0.00817376
0.00628151