/*--------------------------------*- C++ -*----------------------------------*\
| =========                 |                                                 |
| \\      /  F ield         | OpenFOAM: The Open Source CFD Toolbox           |
|  \\    /   O peration     | Version:  2112                                  |
|   \\  /    A nd           | Website:  www.openfoam.com                      |
|    \\/     M anipulation  |                                                 |
\*---------------------------------------------------------------------------*/
FoamFile
{
    version     2.0;
    format      ascii;
    arch        "LSB;label=32;scalar=64";
    class       volScalarField;
    location    "4";
    object      T;
}
// * * * * * * * * * * * * * * * * * * * * * * * * * * * * * * * * * * * * * //

dimensions      [0 0 0 1 0 0 0];

internalField   nonuniform List<scalar> 
1000
(
0.00448471
0.00448481
0.00448503
0.00448535
0.00448577
0.00448631
0.00448696
0.00448772
0.00448859
0.00448958
0.00449068
0.0044919
0.00449324
0.00449469
0.00449627
0.00449796
0.00449978
0.00450172
0.00450379
0.00450598
0.00450829
0.00451074
0.00451331
0.00451602
0.00451885
0.00452182
0.00452492
0.00452816
0.00453153
0.00453504
0.00453869
0.00454248
0.00454641
0.00455048
0.00455469
0.00455906
0.00456356
0.00456822
0.00457302
0.00457797
0.00458308
0.00458834
0.00459375
0.00459932
0.00460504
0.00461092
0.00461696
0.00462317
0.00462953
0.00463606
0.00464275
0.00464961
0.00465663
0.00466383
0.0046712
0.00467873
0.00468644
0.00469433
0.00470239
0.00471063
0.00471905
0.00472765
0.00473643
0.00474539
0.00475454
0.00476387
0.00477339
0.0047831
0.00479301
0.0048031
0.00481339
0.00482387
0.00483455
0.00484543
0.00485651
0.00486779
0.00487927
0.00489096
0.00490286
0.00491496
0.00492727
0.00493979
0.00495252
0.00496547
0.00497864
0.00499202
0.00500562
0.00501944
0.00503348
0.00504775
0.00506224
0.00507696
0.00509191
0.00510709
0.0051225
0.00513814
0.00515402
0.00517014
0.0051865
0.0052031
0.00521994
0.00523702
0.00525435
0.00527193
0.00528976
0.00530784
0.00532617
0.00534476
0.0053636
0.0053827
0.00540206
0.00542169
0.00544157
0.00546173
0.00548215
0.00550283
0.0055238
0.00554503
0.00556654
0.00558832
0.00561038
0.00563273
0.00565535
0.00567826
0.00570146
0.00572494
0.00574871
0.00577278
0.00579714
0.00582179
0.00584674
0.00587199
0.00589755
0.0059234
0.00594956
0.00597603
0.00600281
0.0060299
0.0060573
0.00608501
0.00611305
0.0061414
0.00617007
0.00619907
0.00622839
0.00625804
0.00628802
0.00631833
0.00634897
0.00637995
0.00641127
0.00644292
0.00647492
0.00650726
0.00653994
0.00657298
0.00660636
0.0066401
0.00667419
0.00670863
0.00674343
0.0067786
0.00681413
0.00685002
0.00688627
0.0069229
0.0069599
0.00699727
0.00703502
0.00707314
0.00711164
0.00715053
0.0071898
0.00722945
0.00726949
0.00730993
0.00735076
0.00739198
0.0074336
0.00747561
0.00751803
0.00756086
0.00760409
0.00764772
0.00769177
0.00773623
0.00778111
0.0078264
0.00787211
0.00791824
0.0079648
0.00801178
0.0080592
0.00810704
0.00815531
0.00820402
0.00825317
0.00830276
0.00835279
0.00840326
0.00845418
0.00850555
0.00855737
0.00860964
0.00866237
0.00871556
0.0087692
0.00882331
0.00887789
0.00893293
0.00898844
0.00904442
0.00910088
0.00915781
0.00921522
0.00927312
0.00933149
0.00939035
0.0094497
0.00950954
0.00956988
0.00963071
0.00969203
0.00975386
0.00981618
0.00987901
0.00994235
0.0100062
0.0100706
0.0101354
0.0102008
0.0102667
0.0103331
0.0104001
0.0104676
0.0105356
0.0106041
0.0106732
0.0107428
0.0108129
0.0108836
0.0109548
0.0110266
0.0110989
0.0111717
0.0112451
0.0113191
0.0113936
0.0114687
0.0115443
0.0116205
0.0116973
0.0117746
0.0118525
0.0119309
0.01201
0.0120896
0.0121698
0.0122506
0.0123319
0.0124139
0.0124964
0.0125795
0.0126632
0.0127476
0.0128325
0.012918
0.0130041
0.0130908
0.0131781
0.013266
0.0133546
0.0134437
0.0135335
0.0136238
0.0137148
0.0138065
0.0138987
0.0139916
0.0140851
0.0141792
0.0142739
0.0143693
0.0144654
0.014562
0.0146593
0.0147573
0.0148559
0.0149551
0.015055
0.0151556
0.0152568
0.0153586
0.0154611
0.0155643
0.0156681
0.0157726
0.0158778
0.0159836
0.0160901
0.0161973
0.0163052
0.0164137
0.0165229
0.0166328
0.0167433
0.0168546
0.0169665
0.0170791
0.0171925
0.0173065
0.0174212
0.0175366
0.0176527
0.0177695
0.0178869
0.0180051
0.0181241
0.0182437
0.018364
0.018485
0.0186068
0.0187292
0.0188524
0.0189763
0.0191009
0.0192262
0.0193523
0.019479
0.0196066
0.0197348
0.0198637
0.0199934
0.0201239
0.020255
0.0203869
0.0205196
0.0206529
0.020787
0.0209219
0.0210575
0.0211939
0.0213309
0.0214688
0.0216074
0.0217467
0.0218868
0.0220277
0.0221693
0.0223116
0.0224547
0.0225986
0.0227433
0.0228887
0.0230348
0.0231817
0.0233294
0.0234779
0.0236271
0.0237771
0.0239279
0.0240794
0.0242317
0.0243848
0.0245387
0.0246933
0.0248487
0.0250049
0.0251619
0.0253197
0.0254782
0.0256375
0.0257976
0.0259585
0.0261201
0.0262826
0.0264458
0.0266098
0.0267746
0.0269402
0.0271066
0.0272738
0.0274418
0.0276105
0.0277801
0.0279504
0.0281215
0.0282935
0.0284662
0.0286397
0.028814
0.0289891
0.029165
0.0293417
0.0295192
0.0296975
0.0298765
0.0300564
0.0302371
0.0304186
0.0306009
0.0307839
0.0309678
0.0311525
0.0313379
0.0315242
0.0317113
0.0318991
0.0320878
0.0322772
0.0324675
0.0326586
0.0328504
0.0330431
0.0332365
0.0334308
0.0336258
0.0338216
0.0340183
0.0342157
0.0344139
0.034613
0.0348128
0.0350134
0.0352148
0.035417
0.03562
0.0358238
0.0360284
0.0362338
0.0364399
0.0366469
0.0368546
0.0370631
0.0372724
0.0374826
0.0376934
0.0379051
0.0381176
0.0383308
0.0385448
0.0387596
0.0389752
0.0391916
0.0394087
0.0396266
0.0398453
0.0400648
0.040285
0.040506
0.0407278
0.0409503
0.0411736
0.0413977
0.0416226
0.0418482
0.0420745
0.0423017
0.0425295
0.0427582
0.0429876
0.0432177
0.0434486
0.0436802
0.0439126
0.0441458
0.0443796
0.0446143
0.0448496
0.0450857
0.0453226
0.0455601
0.0457984
0.0460374
0.0462772
0.0465177
0.0467589
0.0470008
0.0472434
0.0474868
0.0477308
0.0479756
0.0482211
0.0484673
0.0487142
0.0489617
0.04921
0.049459
0.0497087
0.049959
0.0502101
0.0504618
0.0507142
0.0509673
0.0512211
0.0514755
0.0517306
0.0519864
0.0522428
0.0524999
0.0527577
0.0530161
0.0532751
0.0535348
0.0537951
0.0540561
0.0543177
0.05458
0.0548429
0.0551064
0.0553705
0.0556352
0.0559006
0.0561666
0.0564331
0.0567003
0.0569681
0.0572365
0.0575055
0.057775
0.0580452
0.0583159
0.0585872
0.0588591
0.0591315
0.0594045
0.0596781
0.0599522
0.0602269
0.0605021
0.0607779
0.0610542
0.0613311
0.0616084
0.0618863
0.0621647
0.0624437
0.0627231
0.0630031
0.0632836
0.0635645
0.063846
0.0641279
0.0644103
0.0646933
0.0649766
0.0652605
0.0655448
0.0658296
0.0661148
0.0664005
0.0666866
0.0669732
0.0672602
0.0675476
0.0678355
0.0681238
0.0684125
0.0687016
0.0689911
0.069281
0.0695713
0.069862
0.070153
0.0704445
0.0707363
0.0710285
0.071321
0.0716139
0.0719071
0.0722007
0.0724946
0.0727889
0.0730835
0.0733784
0.0736736
0.0739691
0.074265
0.0745611
0.0748575
0.0751542
0.0754512
0.0757485
0.076046
0.0763438
0.0766418
0.0769401
0.0772386
0.0775374
0.0778364
0.0781356
0.0784351
0.0787347
0.0790346
0.0793347
0.0796349
0.0799354
0.080236
0.0805368
0.0808377
0.0811389
0.0814401
0.0817416
0.0820431
0.0823448
0.0826467
0.0829486
0.0832507
0.0835529
0.0838551
0.0841575
0.08446
0.0847625
0.0850651
0.0853678
0.0856706
0.0859734
0.0862763
0.0865791
0.0868821
0.087185
0.087488
0.087791
0.088094
0.088397
0.0887
0.089003
0.089306
0.0896089
0.0899118
0.0902146
0.0905175
0.0908202
0.0911229
0.0914255
0.0917281
0.0920305
0.0923329
0.0926352
0.0929374
0.0932394
0.0935414
0.0938432
0.0941449
0.0944464
0.0947478
0.095049
0.0953501
0.095651
0.0959518
0.0962523
0.0965527
0.0968528
0.0971528
0.0974525
0.0977521
0.0980514
0.0983505
0.0986493
0.0989479
0.0992462
0.0995443
0.0998421
0.10014
0.100437
0.100734
0.10103
0.101327
0.101623
0.101919
0.102214
0.102509
0.102804
0.103098
0.103392
0.103686
0.103979
0.104272
0.104565
0.104857
0.105149
0.10544
0.105731
0.106021
0.106311
0.106601
0.10689
0.107179
0.107467
0.107755
0.108043
0.10833
0.108616
0.108902
0.109188
0.109473
0.109757
0.110041
0.110324
0.110607
0.11089
0.111172
0.111453
0.111734
0.112014
0.112293
0.112572
0.112851
0.113129
0.113406
0.113683
0.113959
0.114234
0.114509
0.114783
0.115057
0.11533
0.115602
0.115874
0.116145
0.116415
0.116685
0.116954
0.117222
0.11749
0.117757
0.118023
0.118288
0.118553
0.118817
0.119081
0.119343
0.119605
0.119866
0.120127
0.120386
0.120645
0.120903
0.121161
0.121417
0.121673
0.121928
0.122182
0.122436
0.122689
0.12294
0.123191
0.123442
0.123691
0.12394
0.124187
0.124434
0.12468
0.124925
0.12517
0.125413
0.125656
0.125898
0.126139
0.126379
0.126618
0.126856
0.127093
0.12733
0.127566
0.1278
0.128034
0.128267
0.128499
0.12873
0.12896
0.129189
0.129417
0.129645
0.129871
0.130096
0.130321
0.130544
0.130767
0.130989
0.131209
0.131429
0.131648
0.131866
0.132082
0.132298
0.132513
0.132727
0.13294
0.133152
0.133362
0.133572
0.133781
0.133989
0.134196
0.134402
0.134607
0.13481
0.135013
0.135215
0.135416
0.135616
0.135814
0.136012
0.136209
0.136405
0.136599
0.136793
0.136985
0.137177
0.137367
0.137557
0.137745
0.137933
0.138119
0.138304
0.138488
0.138672
0.138854
0.139035
0.139215
0.139394
0.139572
0.139749
0.139924
0.140099
0.140273
0.140445
0.140617
0.140787
0.140957
0.141125
0.141293
0.141459
0.141624
0.141788
0.141951
0.142113
0.142274
0.142434
0.142593
0.14275
0.142907
0.143063
0.143217
0.143371
0.143523
0.143675
0.143825
0.143974
0.144122
0.144269
0.144415
0.14456
0.144704
0.144847
0.144989
0.14513
0.14527
0.145408
0.145546
0.145682
0.145818
0.145952
0.146086
0.146218
0.14635
0.14648
0.146609
0.146737
0.146864
0.146991
0.147116
0.14724
0.147363
0.147485
0.147606
0.147726
0.147845
0.147963
0.148079
0.148195
0.14831
0.148424
0.148537
0.148648
0.148759
0.148869
0.148978
0.149086
0.149192
0.149298
0.149403
0.149507
0.149609
0.149711
0.149812
0.149912
0.150011
0.150108
0.150205
0.150301
0.150396
0.15049
0.150583
0.150675
0.150766
0.150856
0.150945
0.151033
0.15112
0.151206
0.151292
0.151376
0.151459
0.151542
0.151623
0.151704
0.151783
0.151862
0.151939
0.152016
0.152092
0.152167
0.152241
0.152314
0.152386
0.152457
0.152527
0.152596
0.152665
0.152732
0.152799
0.152864
0.152929
0.152993
0.153056
0.153117
0.153178
0.153239
0.153298
0.153356
0.153413
0.15347
0.153525
0.15358
0.153633
0.153686
0.153738
0.153789
0.153839
0.153888
0.153936
0.153983
0.15403
0.154075
0.15412
0.154163
0.154206
0.154248
0.154289
0.154328
0.154367
0.154405
0.154442
0.154479
0.154514
0.154548
0.154581
0.154614
0.154645
0.154676
0.154705
0.154734
0.154761
0.154788
0.154813
0.154838
0.154861
0.154884
0.154906
0.154926
0.154946
0.154965
0.154982
0.154999
0.155014
0.155029
0.155042
0.155054
0.155065
0.155076
0.155085
0.155093
0.1551
0.155105
0.15511
0.155113
0.155116
0.155117
)
;

boundaryField
{
    sides
    {
        type            zeroGradient;
    }
    empty
    {
        type            empty;
    }
}


// ************************************************************************* //
