/*--------------------------------*- C++ -*----------------------------------*\
| =========                 |                                                 |
| \\      /  F ield         | OpenFOAM: The Open Source CFD Toolbox           |
|  \\    /   O peration     | Version:  2112                                  |
|   \\  /    A nd           | Website:  www.openfoam.com                      |
|    \\/     M anipulation  |                                                 |
\*---------------------------------------------------------------------------*/
FoamFile
{
    version     2.0;
    format      ascii;
    arch        "LSB;label=32;scalar=64";
    class       volScalarField;
    location    "70";
    object      T;
}
// * * * * * * * * * * * * * * * * * * * * * * * * * * * * * * * * * * * * * //

dimensions      [0 0 0 1 0 0 0];

internalField   nonuniform List<scalar> 
10000
(
0.998128
1.00296
0.998195
0.998943
0.999079
0.998989
0.998945
0.998192
1.00291
0.99816
0.990582
0.99705
0.992635
0.993929
0.994205
0.99413
0.993929
0.992615
0.996858
0.990711
0.99178
0.996164
0.993165
0.993959
0.994189
0.994251
0.993982
0.993194
0.996058
0.991809
0.994612
0.997364
0.995492
0.995744
0.995827
0.995918
0.995792
0.995564
0.997476
0.99456
0.995883
0.997766
0.996808
0.996904
0.996925
0.996976
0.996946
0.996852
0.99794
0.99588
0.996445
0.997722
0.997267
0.997358
0.997376
0.997406
0.99739
0.997292
0.997832
0.996444
0.996947
0.99778
0.997542
0.997637
0.99766
0.997677
0.997656
0.997556
0.997813
0.996922
0.997343
0.99788
0.997768
0.997855
0.997886
0.997891
0.997862
0.997769
0.99789
0.997325
0.997598
0.997951
0.997907
0.997987
0.998021
0.99802
0.997987
0.997902
0.997956
0.997584
0.997759
0.997999
0.997992
0.998059
0.99809
0.998087
0.998055
0.997981
0.998002
0.997746
0.99787
0.998028
0.998026
0.998093
0.998107
0.998118
0.998093
0.998012
0.998053
0.997819
0.997951
0.998054
0.998041
0.998114
0.998107
0.998135
0.998116
0.998023
0.998098
0.997849
0.99801
0.998091
0.998084
0.998133
0.998133
0.998147
0.998127
0.998057
0.998103
0.997938
0.998053
0.998121
0.998114
0.998149
0.998153
0.998158
0.998139
0.998086
0.998102
0.998015
0.99806
0.998179
0.99816
0.99817
0.998188
0.998155
0.998127
0.998118
0.998109
0.998072
0.99802
0.998234
0.998181
0.998186
0.998214
0.998136
0.998103
0.998118
0.998119
0.998066
0.998069
0.998216
0.998165
0.998197
0.998207
0.998167
0.998139
0.998091
0.998088
0.998069
0.998191
0.998186
0.998187
0.9982
0.998184
0.998196
0.998168
0.998088
0.998007
0.998152
0.998165
0.998185
0.998207
0.99818
0.998152
0.998158
0.998115
0.998063
0.997919
0.998117
0.998045
0.998219
0.998244
0.998173
0.998181
0.998121
0.998057
0.998035
0.997776
0.998093
0.998058
0.998242
0.998278
0.998224
0.998232
0.998156
0.998068
0.997981
0.997622
0.998095
0.998026
0.99822
0.998263
0.998264
0.99824
0.998189
0.998063
0.997845
0.997388
0.997922
0.997715
0.998133
0.998181
0.998211
0.998203
0.998144
0.997972
0.997634
0.996902
0.997554
0.997097
0.997845
0.997932
0.998022
0.998069
0.998024
0.997816
0.997326
0.996093
0.996897
0.995911
0.997124
0.997324
0.997539
0.997696
0.99773
0.997537
0.996886
0.994814
0.995645
0.993575
0.995472
0.995915
0.996354
0.99673
0.99698
0.996964
0.996318
0.993006
0.993381
0.988943
0.991828
0.992731
0.993557
0.99434
0.995046
0.99555
0.995449
0.990518
0.988759
0.979917
0.984171
0.985805
0.987233
0.988693
0.990287
0.992087
0.994373
0.990272
0.983955
0.962871
0.968836
0.971437
0.973598
0.975935
0.978804
0.982527
0.98938
0.99176
0.979432
0.932312
0.94007
0.943476
0.946104
0.949221
0.953762
0.961251
0.978991
1.02928
1.06273
1.00288
1.0083
1.00333
1.00423
1.00442
1.00441
1.00423
1.00336
1.00821
1.0029
0.996786
1.00553
1.00108
1.00251
1.0029
1.00294
1.00251
1.0012
1.00547
0.99683
0.996163
1.00292
1.00037
1.001
1.00123
1.0012
1.00098
1.00045
1.00304
0.996076
0.99749
1.00149
1.00004
1.00007
1.00009
0.999996
1.00002
0.999968
1.00142
0.997543
0.997937
1.00013
0.999303
0.999202
0.999163
0.9991
0.999162
0.999211
1
0.998017
0.997832
0.999144
0.99876
0.998672
0.998618
0.998589
0.998652
0.998708
0.99912
0.997892
0.997786
0.998597
0.998479
0.998422
0.998377
0.998367
0.998415
0.998458
0.998673
0.997853
0.99786
0.998388
0.998342
0.998311
0.998283
0.998279
0.998309
0.998337
0.998456
0.997915
0.997934
0.998296
0.998272
0.998259
0.998247
0.998245
0.998259
0.998275
0.99834
0.997974
0.997987
0.998244
0.998232
0.998229
0.998231
0.998228
0.99823
0.998236
0.99827
0.998019
0.998035
0.998219
0.998247
0.998224
0.998258
0.998228
0.99822
0.998247
0.998248
0.998083
0.998083
0.998216
0.998291
0.99823
0.998307
0.998234
0.998222
0.998289
0.99825
0.998151
0.998114
0.998207
0.998262
0.998224
0.998277
0.998228
0.998219
0.998253
0.998223
0.998158
0.998127
0.998205
0.998235
0.998223
0.998243
0.998219
0.99821
0.998213
0.99819
0.998158
0.998157
0.998222
0.998188
0.998212
0.998191
0.998233
0.998227
0.998155
0.998153
0.998158
0.998163
0.998275
0.998172
0.998211
0.998143
0.998278
0.998267
0.998123
0.998132
0.99818
0.998098
0.998335
0.998256
0.998219
0.998162
0.998218
0.998195
0.998159
0.998102
0.998192
0.998084
0.998267
0.998264
0.998216
0.9982
0.998124
0.998084
0.9981
0.99801
0.998141
0.998141
0.998255
0.998284
0.998264
0.998269
0.998159
0.998106
0.998044
0.997948
0.998135
0.998156
0.998368
0.998295
0.998323
0.998237
0.998215
0.998141
0.997939
0.997839
0.998107
0.998004
0.998333
0.998249
0.998256
0.998141
0.998129
0.99801
0.997737
0.997518
0.997997
0.997745
0.998258
0.998254
0.998159
0.998105
0.998
0.997834
0.997547
0.997088
0.997869
0.997445
0.998243
0.998241
0.998116
0.998068
0.997939
0.997717
0.997299
0.99657
0.997659
0.996876
0.9981
0.998096
0.997975
0.997936
0.997819
0.997544
0.996922
0.995755
0.997204
0.995747
0.997585
0.997621
0.997538
0.997556
0.997507
0.997223
0.996372
0.994463
0.996212
0.993522
0.996222
0.996384
0.996414
0.996588
0.99673
0.996597
0.995649
0.992622
0.994275
0.989101
0.993018
0.993451
0.993713
0.994208
0.99477
0.995146
0.994607
0.989996
0.98991
0.980435
0.985972
0.986871
0.987517
0.988569
0.989949
0.991551
0.993184
0.989658
0.985595
0.963868
0.971377
0.97289
0.973984
0.975754
0.978303
0.981637
0.98833
0.989071
0.980713
0.933654
0.943155
0.945064
0.946271
0.948587
0.952596
0.959299
0.978172
1.02994
1.05437
0.998207
1.00337
0.998075
0.998867
0.999053
0.99907
0.998845
0.998073
1.00337
0.998191
0.992632
1.00115
0.996224
0.997544
0.997988
0.998061
0.997574
0.996349
1.00122
0.992603
0.993182
1.00039
0.997464
0.997967
0.998288
0.998321
0.998025
0.99761
1.00043
0.993201
0.995503
1.00002
0.998682
0.998686
0.998798
0.998799
0.998717
0.998708
0.999912
0.995615
0.99681
0.999264
0.998797
0.998771
0.998789
0.998784
0.99878
0.998777
0.999156
0.996924
0.997272
0.998733
0.998666
0.998671
0.998655
0.998648
0.99867
0.998631
0.998674
0.997362
0.997554
0.998469
0.998543
0.99857
0.998555
0.998548
0.998564
0.998506
0.998442
0.99761
0.99778
0.998342
0.998436
0.998475
0.998472
0.998468
0.998466
0.998409
0.99833
0.997807
0.997916
0.998274
0.998356
0.998398
0.998405
0.998403
0.998391
0.99834
0.99827
0.997935
0.997991
0.998232
0.9983
0.998339
0.998353
0.998352
0.998335
0.99829
0.998232
0.998006
0.998043
0.998207
0.998265
0.998295
0.998316
0.998312
0.998294
0.998258
0.998207
0.998053
0.998082
0.998195
0.998246
0.998265
0.998291
0.998283
0.998265
0.998238
0.998193
0.998093
0.998108
0.998191
0.998233
0.998247
0.99827
0.998262
0.998246
0.998222
0.998182
0.998124
0.998119
0.998196
0.998231
0.998242
0.998255
0.998245
0.99823
0.998209
0.998174
0.998153
0.998124
0.998205
0.998225
0.998239
0.998238
0.998232
0.998215
0.998189
0.998162
0.998177
0.998124
0.998225
0.998224
0.998237
0.998226
0.998226
0.998205
0.998169
0.998144
0.998198
0.998119
0.998239
0.99823
0.99823
0.998218
0.998217
0.99819
0.99815
0.998113
0.998219
0.998095
0.998232
0.998236
0.998218
0.99821
0.998196
0.998164
0.998116
0.99806
0.998235
0.998054
0.998243
0.998254
0.998222
0.998204
0.998176
0.998137
0.99807
0.997995
0.998264
0.997997
0.998275
0.998278
0.99824
0.998201
0.998165
0.998106
0.998002
0.997896
0.998299
0.997889
0.9983
0.998302
0.99825
0.998198
0.998149
0.998059
0.997902
0.997723
0.998327
0.997703
0.998312
0.998319
0.99824
0.998185
0.998116
0.997985
0.997753
0.997446
0.998331
0.997375
0.998276
0.998295
0.998193
0.998135
0.998051
0.99787
0.997522
0.996996
0.998246
0.996758
0.998112
0.998159
0.998048
0.997999
0.997919
0.997688
0.997174
0.996271
0.997948
0.99561
0.997636
0.997746
0.997655
0.997652
0.997625
0.997379
0.996672
0.995114
0.997151
0.993432
0.99641
0.996661
0.996649
0.996768
0.996904
0.996783
0.99599
0.993424
0.995432
0.989198
0.993499
0.994015
0.994175
0.994545
0.995044
0.99536
0.994941
0.990987
0.991346
0.980919
0.98697
0.987907
0.988352
0.989155
0.990332
0.991716
0.993326
0.990701
0.987793
0.964945
0.973135
0.974567
0.975286
0.976608
0.978693
0.981586
0.987929
0.989749
0.983619
0.935256
0.945652
0.947264
0.94782
0.949379
0.952527
0.958353
0.976026
1.02977
1.05936
0.998956
1.00425
0.998854
0.999669
0.999874
0.999876
0.999649
0.998835
1.00425
0.998936
0.993942
1.00252
0.997519
0.998789
0.999232
0.999259
0.998793
0.997581
1.00256
0.993878
0.993992
1.00098
0.997964
0.998335
0.998627
0.998652
0.998365
0.998064
1.00097
0.993979
0.995756
1.00006
0.9987
0.998595
0.998677
0.998689
0.998623
0.998735
0.99995
0.995868
0.996912
0.999195
0.998779
0.998702
0.998698
0.9987
0.998717
0.998776
0.999096
0.997044
0.997374
0.998662
0.998672
0.998681
0.998657
0.998657
0.998689
0.998656
0.998606
0.997481
0.997645
0.998414
0.998568
0.998631
0.99862
0.99862
0.998633
0.998548
0.998389
0.997725
0.997855
0.998305
0.998472
0.998553
0.998562
0.998561
0.998552
0.998457
0.998298
0.997911
0.997983
0.998258
0.998397
0.998476
0.998496
0.998496
0.998473
0.998387
0.998255
0.998025
0.998053
0.998232
0.998343
0.998412
0.998436
0.998436
0.998409
0.998335
0.99823
0.998089
0.9981
0.998216
0.998307
0.998361
0.998387
0.998385
0.998358
0.9983
0.998218
0.998129
0.998131
0.998209
0.998282
0.998323
0.998347
0.998343
0.998319
0.998275
0.998211
0.998158
0.998147
0.998207
0.998263
0.998293
0.998314
0.99831
0.998289
0.998253
0.998202
0.998181
0.998151
0.998208
0.998249
0.998272
0.998287
0.998283
0.998265
0.998233
0.998193
0.998199
0.998146
0.998213
0.998238
0.998256
0.998264
0.998261
0.998244
0.998214
0.99818
0.998214
0.998136
0.998219
0.998234
0.998245
0.998247
0.998246
0.998228
0.998196
0.998164
0.998231
0.99812
0.998223
0.998238
0.998238
0.998235
0.998231
0.998209
0.998175
0.998141
0.998254
0.998095
0.998223
0.998243
0.998232
0.998225
0.998213
0.998186
0.998145
0.998101
0.998278
0.998057
0.998235
0.998254
0.998231
0.998218
0.998198
0.998162
0.998105
0.998047
0.998314
0.997993
0.998254
0.99827
0.998236
0.998211
0.998183
0.998132
0.998046
0.99796
0.998359
0.997869
0.998268
0.998283
0.998236
0.9982
0.998163
0.998086
0.997955
0.997809
0.9984
0.99766
0.998273
0.998291
0.998227
0.998183
0.998131
0.998019
0.997818
0.997559
0.998419
0.997324
0.998233
0.998274
0.998188
0.998139
0.998076
0.997917
0.997611
0.997153
0.99836
0.996726
0.998075
0.998161
0.998062
0.998019
0.997962
0.997755
0.997295
0.996483
0.998098
0.995624
0.997646
0.997791
0.997706
0.9977
0.99769
0.997465
0.996819
0.995385
0.997343
0.993548
0.996517
0.996796
0.996771
0.996863
0.997
0.99688
0.996148
0.993748
0.995674
0.989506
0.993801
0.994322
0.994426
0.994719
0.995174
0.995439
0.995056
0.991413
0.991776
0.981553
0.987605
0.988495
0.9888
0.989432
0.99047
0.991721
0.993341
0.991056
0.988453
0.966002
0.974209
0.975498
0.975941
0.976924
0.978664
0.98121
0.987157
0.989588
0.984582
0.936552
0.947021
0.948337
0.948418
0.949393
0.95189
0.957026
0.974048
1.02876
1.06054
0.998948
1.00449
0.999069
0.999827
1.00004
1.00004
0.999814
0.999057
1.0045
0.998933
0.994058
1.00301
0.998052
0.999243
0.999664
0.999675
0.999247
0.998105
1.00306
0.994014
0.994331
1.00105
0.998284
0.998647
0.998934
0.998949
0.998672
0.998376
1.00106
0.994326
0.99594
0.999946
0.998776
0.998653
0.998727
0.99874
0.99868
0.998818
0.999866
0.996043
0.996975
0.999096
0.998771
0.998678
0.99866
0.998666
0.998692
0.998772
0.999013
0.997105
0.997401
0.998591
0.998641
0.998647
0.998613
0.998616
0.998656
0.998628
0.998539
0.99752
0.997669
0.998365
0.998545
0.998616
0.998602
0.998604
0.998621
0.99853
0.998341
0.99776
0.99788
0.998279
0.998463
0.99856
0.99857
0.99857
0.998561
0.998455
0.998269
0.997948
0.998008
0.998254
0.9984
0.998495
0.998519
0.998519
0.998495
0.998396
0.998242
0.998064
0.998083
0.998238
0.998356
0.998437
0.998466
0.998466
0.998436
0.998351
0.99823
0.998125
0.99813
0.998221
0.998326
0.998388
0.998416
0.998415
0.998385
0.998316
0.998223
0.998161
0.998156
0.998216
0.998301
0.998347
0.998372
0.99837
0.998343
0.998289
0.998218
0.998188
0.998166
0.998212
0.998277
0.998314
0.998335
0.998333
0.99831
0.998267
0.998211
0.998205
0.998164
0.998211
0.998255
0.998287
0.998304
0.998302
0.998282
0.998246
0.998202
0.998218
0.998152
0.998222
0.99824
0.998267
0.998279
0.998277
0.998258
0.998227
0.99819
0.998231
0.998141
0.998233
0.998239
0.998254
0.99826
0.998257
0.998239
0.998208
0.998175
0.998247
0.99813
0.998227
0.998247
0.998246
0.998245
0.998239
0.998218
0.998187
0.998153
0.998269
0.998108
0.998222
0.998254
0.998239
0.998233
0.998222
0.998196
0.998157
0.998117
0.998296
0.998064
0.998232
0.998262
0.998237
0.998224
0.998207
0.998173
0.998119
0.998064
0.998333
0.997993
0.998248
0.99827
0.998237
0.998216
0.998191
0.998143
0.998063
0.99798
0.998378
0.997855
0.998286
0.998282
0.998236
0.998206
0.998171
0.998099
0.997976
0.997837
0.998422
0.99763
0.998333
0.998295
0.998228
0.998186
0.99814
0.998033
0.997845
0.997598
0.998447
0.997326
0.998245
0.998275
0.998191
0.998142
0.998087
0.997935
0.997642
0.997201
0.998395
0.996755
0.998056
0.998166
0.998069
0.998026
0.997976
0.997776
0.997331
0.996539
0.998141
0.995662
0.99769
0.997814
0.997725
0.997714
0.997709
0.997487
0.996859
0.99545
0.997393
0.993646
0.996603
0.996856
0.996819
0.996892
0.997024
0.996898
0.996181
0.993819
0.995734
0.989709
0.993968
0.994456
0.994521
0.99477
0.9952
0.995437
0.995062
0.991492
0.991878
0.981937
0.98791
0.988746
0.988969
0.989506
0.990468
0.991642
0.99324
0.991076
0.988606
0.966598
0.974697
0.975888
0.976167
0.976965
0.978542
0.980937
0.986771
0.989325
0.984727
0.937205
0.947621
0.948726
0.948526
0.949189
0.951373
0.956213
0.972812
1.02763
1.05954
0.999089
1.00442
0.999043
0.999864
1.00008
1.00008
0.99985
0.99903
1.00443
0.999071
0.994204
1.00289
0.997967
0.999219
0.999662
0.999668
0.999221
0.998021
1.00295
0.99414
0.994174
1.00125
0.9983
0.99863
0.998914
0.998926
0.998653
0.998387
1.00126
0.994156
0.995818
1.00012
0.998816
0.998685
0.998755
0.998767
0.998708
0.998851
1.00003
0.995922
0.996929
0.999175
0.998793
0.998699
0.998679
0.998686
0.998711
0.998793
0.999089
0.997063
0.997382
0.998624
0.998653
0.998657
0.99862
0.998625
0.998664
0.998638
0.998566
0.997506
0.99766
0.998382
0.99855
0.99862
0.998605
0.998607
0.998624
0.998533
0.998349
0.997758
0.997858
0.998317
0.998467
0.998562
0.998571
0.998571
0.998562
0.998454
0.998271
0.997949
0.997971
0.998332
0.998406
0.998497
0.998521
0.99852
0.998495
0.998394
0.998242
0.998064
0.998081
0.99826
0.99836
0.998439
0.998467
0.998466
0.998436
0.99835
0.99823
0.998126
0.998157
0.998171
0.998324
0.998387
0.998416
0.998416
0.998385
0.998315
0.998224
0.998163
0.998169
0.998176
0.998297
0.998346
0.998371
0.99837
0.998343
0.998288
0.998218
0.998187
0.998174
0.998194
0.998272
0.998313
0.998334
0.998332
0.99831
0.998266
0.998211
0.998204
0.998156
0.998237
0.998255
0.998287
0.998303
0.998302
0.998281
0.998246
0.998202
0.998218
0.998108
0.998323
0.998251
0.998271
0.998281
0.998277
0.998258
0.998227
0.998191
0.998231
0.998101
0.998325
0.998251
0.998258
0.998262
0.998256
0.998238
0.998208
0.998175
0.998249
0.998142
0.998199
0.998248
0.998246
0.998246
0.998239
0.998219
0.998186
0.998153
0.998271
0.998147
0.998127
0.998246
0.998237
0.998233
0.998223
0.998198
0.998159
0.998119
0.998298
0.998089
0.998165
0.99825
0.998234
0.998223
0.998208
0.998174
0.99812
0.998065
0.998334
0.998001
0.998219
0.99826
0.998234
0.998214
0.998191
0.998142
0.998064
0.99798
0.998378
0.997867
0.998253
0.998277
0.998234
0.998204
0.99817
0.998099
0.997978
0.997838
0.998425
0.997663
0.998264
0.998292
0.998226
0.998187
0.998141
0.998035
0.997847
0.997602
0.99845
0.997336
0.998223
0.998277
0.998191
0.998144
0.998089
0.997937
0.997644
0.997204
0.998396
0.996748
0.998079
0.998171
0.998071
0.998028
0.997977
0.997778
0.997334
0.996542
0.998141
0.995673
0.997672
0.997819
0.997729
0.997716
0.997711
0.997489
0.996863
0.995453
0.997392
0.993651
0.996598
0.996866
0.996823
0.996896
0.997029
0.996903
0.996186
0.993829
0.995747
0.989718
0.99399
0.994474
0.994531
0.99478
0.995211
0.995449
0.995072
0.991489
0.991869
0.981948
0.987973
0.988784
0.988993
0.989527
0.990484
0.99164
0.993201
0.991113
0.988811
0.96663
0.974818
0.97596
0.976227
0.977024
0.978605
0.981023
0.986973
0.989371
0.984279
0.937306
0.947782
0.948863
0.948653
0.949315
0.951505
0.956364
0.972947
1.02803
1.06081
0.99893
1.00425
0.99886
0.999652
0.999853
0.99985
0.999636
0.998842
1.00425
0.998911
0.993891
1.00254
0.997556
0.998792
0.999227
0.99923
0.998789
0.997599
1.00259
0.993825
0.993948
1.00101
0.998005
0.998354
0.998641
0.99865
0.998372
0.998086
1.00101
0.993922
0.995778
1.00004
0.998703
0.99861
0.998692
0.998702
0.998629
0.998734
0.999947
0.995877
0.996939
0.999175
0.998769
0.998706
0.998701
0.998706
0.998716
0.998767
0.999082
0.997071
0.997383
0.998658
0.998664
0.998683
0.99866
0.998663
0.998689
0.998648
0.998598
0.997503
0.997644
0.998419
0.99856
0.99863
0.998622
0.998624
0.998632
0.998541
0.998384
0.997739
0.997842
0.998318
0.998462
0.998551
0.998562
0.998562
0.99855
0.998449
0.998294
0.997919
0.997969
0.998276
0.998389
0.998474
0.998495
0.998495
0.998471
0.99838
0.998254
0.998028
0.998049
0.998244
0.998342
0.998411
0.998437
0.998435
0.998408
0.998331
0.998232
0.998093
0.998101
0.998218
0.99831
0.998363
0.998387
0.998385
0.998358
0.998296
0.998219
0.998134
0.998137
0.998209
0.998285
0.998325
0.998346
0.998344
0.99832
0.998272
0.998211
0.998162
0.998153
0.998205
0.998263
0.998295
0.998312
0.998311
0.99829
0.998251
0.998203
0.998184
0.998146
0.998209
0.998243
0.998272
0.998286
0.998284
0.998265
0.998233
0.998194
0.998201
0.99813
0.99823
0.998234
0.998257
0.998267
0.998262
0.998245
0.998216
0.998182
0.998216
0.998123
0.998239
0.998236
0.998247
0.998251
0.998245
0.998227
0.998198
0.998166
0.998234
0.998126
0.998226
0.998245
0.998241
0.998238
0.99823
0.998209
0.998176
0.998141
0.998256
0.998117
0.998217
0.998251
0.998235
0.998228
0.998215
0.998188
0.998147
0.998105
0.998284
0.998057
0.998258
0.99826
0.998234
0.99822
0.998201
0.998164
0.998107
0.99805
0.998317
0.997958
0.998329
0.998277
0.998238
0.998213
0.998184
0.998132
0.998049
0.99796
0.998356
0.997862
0.998292
0.998291
0.998238
0.998204
0.998164
0.998087
0.99796
0.997811
0.998398
0.997695
0.998218
0.9983
0.998229
0.998185
0.998133
0.998021
0.997824
0.997567
0.998419
0.997358
0.998186
0.99828
0.998191
0.998141
0.998079
0.997921
0.997616
0.997162
0.998363
0.996751
0.998057
0.998165
0.998066
0.998022
0.997966
0.997759
0.997301
0.99649
0.998106
0.995647
0.997638
0.997798
0.997713
0.997705
0.997696
0.99747
0.996831
0.995395
0.99735
0.993573
0.996527
0.996812
0.996786
0.996875
0.997011
0.99689
0.996164
0.993768
0.995685
0.989552
0.993836
0.994357
0.994457
0.994748
0.995199
0.995462
0.995083
0.991436
0.99178
0.981642
0.98769
0.988573
0.988873
0.989498
0.990521
0.991743
0.993375
0.991095
0.988484
0.966181
0.974396
0.975671
0.976109
0.977081
0.978803
0.981305
0.987278
0.989623
0.984479
0.936897
0.947387
0.948695
0.948774
0.94974
0.952221
0.957305
0.97425
1.02891
1.06042
0.998197
1.00336
0.998081
0.998856
0.99905
0.999048
0.998842
0.998068
1.00337
0.998178
0.992608
1.00118
0.996332
0.997575
0.998009
0.998018
0.997591
0.996403
1.00127
0.992555
0.993175
1.00045
0.997588
0.998042
0.998353
0.998369
0.99808
0.997705
1.0005
0.993161
0.995541
0.999989
0.998693
0.998711
0.998821
0.99883
0.998728
0.998726
0.999884
0.995632
0.996825
0.999217
0.998764
0.998759
0.998777
0.99878
0.998762
0.998755
0.999103
0.996949
0.997271
0.998706
0.998624
0.998648
0.998634
0.998635
0.998646
0.998596
0.998627
0.997377
0.997543
0.998464
0.998502
0.998547
0.998535
0.998534
0.998541
0.998469
0.998407
0.997617
0.997749
0.99834
0.998405
0.998457
0.998457
0.998455
0.99845
0.998378
0.998308
0.997809
0.997885
0.99828
0.998342
0.998388
0.998397
0.998395
0.998381
0.99832
0.998259
0.997931
0.99798
0.998249
0.998299
0.998339
0.998353
0.99835
0.998332
0.998281
0.99823
0.998009
0.998042
0.998218
0.99827
0.998303
0.998318
0.998317
0.998297
0.998256
0.998213
0.998067
0.998088
0.998202
0.998256
0.998279
0.998292
0.99829
0.998272
0.998239
0.998201
0.99811
0.998115
0.998194
0.998241
0.99826
0.998271
0.998269
0.998253
0.998224
0.99819
0.998141
0.998125
0.9982
0.998226
0.998245
0.998255
0.998252
0.998237
0.99821
0.998178
0.998166
0.998131
0.998226
0.998221
0.998237
0.998242
0.998237
0.998221
0.998195
0.998164
0.998189
0.998126
0.998241
0.998226
0.998233
0.998232
0.998224
0.998205
0.998177
0.998145
0.998208
0.998116
0.998233
0.998241
0.998232
0.998224
0.998212
0.998188
0.998155
0.998116
0.998226
0.998107
0.998226
0.998252
0.998229
0.998217
0.998199
0.998168
0.998122
0.998071
0.998246
0.998071
0.998249
0.99826
0.99823
0.998211
0.998184
0.998142
0.998075
0.998003
0.998271
0.998001
0.998295
0.998278
0.998237
0.998207
0.998168
0.998105
0.998007
0.997896
0.998299
0.997888
0.998309
0.998305
0.998241
0.998198
0.998145
0.998054
0.997905
0.997724
0.998323
0.997705
0.9983
0.998324
0.998234
0.998179
0.99811
0.997979
0.997751
0.997448
0.998319
0.997382
0.998262
0.998301
0.998193
0.998132
0.998049
0.997868
0.997521
0.997002
0.998235
0.99677
0.998103
0.998168
0.998055
0.998002
0.997924
0.997693
0.997182
0.996281
0.997953
0.995629
0.997635
0.99776
0.997671
0.997663
0.997636
0.997392
0.99669
0.995129
0.997173
0.993465
0.99643
0.996689
0.996677
0.996791
0.996927
0.996805
0.99602
0.993455
0.995485
0.989263
0.993555
0.994072
0.994229
0.994595
0.995091
0.995405
0.994991
0.991033
0.991441
0.981049
0.987099
0.988033
0.988469
0.989263
0.990424
0.991782
0.993411
0.990809
0.98803
0.965212
0.973407
0.974834
0.975546
0.976854
0.978921
0.981792
0.988226
0.989922
0.983739
0.935776
0.946192
0.947803
0.948358
0.949903
0.953036
0.958775
0.976569
1.0304
1.05962
1.0029
1.0082
1.00335
1.00423
1.00441
1.00441
1.00424
1.00337
1.00823
1.00288
0.996835
1.00544
1.00118
1.00253
1.00292
1.00293
1.00256
1.00126
1.00556
0.996773
0.996031
1.00309
1.00042
1.00099
1.00128
1.00128
1.00101
1.0005
1.0031
0.996
0.997421
1.00155
0.999924
0.999978
1.00007
1.00006
0.999954
0.999889
1.0013
0.997522
0.997927
1.00005
0.999154
0.99911
0.999111
0.999106
0.999086
0.999106
0.999885
0.998041
0.99786
0.999104
0.998667
0.998612
0.99858
0.998577
0.998599
0.998628
0.999059
0.99794
0.997803
0.998721
0.998443
0.998395
0.998358
0.998355
0.998385
0.998406
0.99865
0.997896
0.997909
0.998475
0.998332
0.998303
0.998276
0.998273
0.998296
0.998307
0.99845
0.997944
0.99802
0.998339
0.998277
0.99826
0.998245
0.998244
0.998254
0.998258
0.99834
0.997992
0.997992
0.998323
0.998246
0.998238
0.998234
0.998233
0.998232
0.99823
0.998275
0.99803
0.998008
0.99822
0.998222
0.998225
0.998227
0.998226
0.99822
0.998215
0.998237
0.998066
0.998089
0.998129
0.998213
0.998216
0.998222
0.998221
0.998214
0.998203
0.99821
0.998096
0.998124
0.998143
0.998206
0.998211
0.998218
0.998217
0.998207
0.998192
0.998187
0.998121
0.998143
0.998224
0.998206
0.998211
0.998215
0.998211
0.998199
0.998181
0.998164
0.99814
0.998133
0.99835
0.998215
0.998217
0.998215
0.998206
0.99819
0.998168
0.998142
0.998153
0.998092
0.998339
0.998222
0.998221
0.998214
0.9982
0.998179
0.998151
0.998115
0.998158
0.99811
0.998189
0.99823
0.99822
0.998209
0.998191
0.998164
0.998124
0.998074
0.998161
0.99816
0.998129
0.998243
0.998218
0.998202
0.998179
0.998143
0.998086
0.998015
0.998159
0.998148
0.998242
0.998265
0.998226
0.998201
0.998166
0.998113
0.99803
0.997924
0.998144
0.998088
0.998386
0.998297
0.998242
0.998203
0.99815
0.998071
0.997947
0.997782
0.998112
0.997981
0.998359
0.998318
0.998249
0.998196
0.998124
0.99801
0.99782
0.997558
0.998053
0.997815
0.99828
0.998328
0.998236
0.998173
0.998082
0.997921
0.997633
0.997208
0.997933
0.997523
0.998261
0.998296
0.998184
0.998117
0.998009
0.997789
0.997357
0.996658
0.997693
0.996947
0.998114
0.998136
0.998022
0.997969
0.997863
0.997588
0.99696
0.995801
0.997207
0.995818
0.997603
0.997655
0.997578
0.997586
0.997538
0.997252
0.996406
0.99448
0.996179
0.9936
0.996261
0.996431
0.996459
0.996624
0.996762
0.996622
0.995683
0.992625
0.994209
0.989223
0.993101
0.993535
0.993785
0.994272
0.99483
0.995184
0.994655
0.98997
0.989793
0.980648
0.98614
0.987039
0.987673
0.988711
0.990065
0.991609
0.993286
0.989661
0.985558
0.96427
0.971726
0.973233
0.974323
0.976071
0.978573
0.981873
0.988673
0.988878
0.980161
0.934377
0.943831
0.945741
0.946953
0.949232
0.953197
0.959758
0.9789
1.02985
1.05446
0.998171
1.0029
0.998205
0.998933
0.999073
0.999069
0.99892
0.998186
1.00289
0.998174
0.990751
0.996842
0.992608
0.993859
0.994128
0.99412
0.99383
0.992567
0.996779
0.990742
0.991771
0.996079
0.993171
0.993917
0.994101
0.994096
0.993902
0.993159
0.996
0.991784
0.994463
0.997568
0.995574
0.995829
0.995878
0.995887
0.99585
0.995621
0.997518
0.994574
0.995832
0.998047
0.996889
0.997024
0.997031
0.997042
0.99705
0.99694
0.998037
0.995927
0.996417
0.997901
0.997334
0.997462
0.997474
0.997483
0.997487
0.99737
0.997936
0.996484
0.996874
0.997871
0.997591
0.997708
0.997732
0.997737
0.997727
0.997609
0.997892
0.996951
0.997283
0.997941
0.997791
0.997897
0.997933
0.997936
0.997908
0.997802
0.99794
0.997349
0.997512
0.998002
0.997918
0.998014
0.998054
0.998055
0.998017
0.997927
0.997987
0.997611
0.997716
0.998026
0.998003
0.998084
0.998117
0.998116
0.998079
0.998003
0.998024
0.997775
0.997945
0.998021
0.998069
0.998127
0.998152
0.998152
0.998121
0.998056
0.998058
0.997889
0.998043
0.998044
0.998118
0.998153
0.998173
0.998173
0.998147
0.998094
0.998086
0.997973
0.998072
0.99809
0.998143
0.998168
0.998187
0.998186
0.998162
0.99812
0.998105
0.998034
0.998044
0.998159
0.99815
0.99818
0.998197
0.998193
0.998173
0.998139
0.998118
0.998082
0.997981
0.998247
0.998159
0.998194
0.998205
0.998198
0.998178
0.998147
0.998121
0.998115
0.99808
0.998242
0.99818
0.998206
0.998208
0.998198
0.998178
0.998146
0.998111
0.998133
0.998233
0.998174
0.998211
0.998212
0.998207
0.998193
0.998172
0.998137
0.998091
0.99814
0.998257
0.998171
0.998237
0.998218
0.998209
0.998189
0.99816
0.998118
0.998053
0.998136
0.998164
0.998234
0.998247
0.998226
0.998214
0.998187
0.998141
0.998084
0.997983
0.998116
0.998048
0.998313
0.998253
0.998239
0.998221
0.998182
0.998114
0.998028
0.997868
0.998071
0.998071
0.998277
0.998256
0.998246
0.998225
0.998171
0.998077
0.997941
0.997682
0.997984
0.998034
0.998179
0.998246
0.998236
0.998218
0.998151
0.998021
0.997808
0.997377
0.997814
0.997726
0.998087
0.998175
0.998184
0.998182
0.998111
0.997936
0.997608
0.99688
0.997486
0.997119
0.997822
0.997934
0.998017
0.998063
0.998012
0.9978
0.997314
0.99608
0.996858
0.99595
0.997125
0.997338
0.997554
0.997708
0.997737
0.997539
0.996893
0.99481
0.995625
0.99364
0.9955
0.995959
0.996396
0.996767
0.99701
0.996988
0.996353
0.993019
0.993387
0.989069
0.991918
0.992831
0.99365
0.994419
0.995118
0.995613
0.995532
0.990559
0.988799
0.980153
0.98437
0.98601
0.987427
0.988866
0.990442
0.992209
0.994559
0.990436
0.984147
0.963317
0.969255
0.971852
0.974
0.97631
0.979143
0.982813
0.989777
0.992018
0.979593
0.933115
0.940852
0.944265
0.946895
0.949984
0.954481
0.961877
0.979771
1.03012
1.06267
0.881166
0.89
0.893109
0.894835
0.897115
0.900706
0.906774
0.912446
0.959813
1.00979
0.802538
0.810565
0.811065
0.809401
0.808512
0.809584
0.815078
0.822887
0.855725
0.939544
0.693353
0.697714
0.692415
0.684225
0.677063
0.672956
0.67423
0.681953
0.699408
0.747929
0.558345
0.556359
0.542863
0.526061
0.510259
0.497591
0.489288
0.485781
0.486196
0.495732
0.411622
0.402738
0.381934
0.358396
0.336408
0.317448
0.301909
0.289598
0.279962
0.274563
0.273404
0.260073
0.236821
0.212603
0.190663
0.171755
0.155702
0.141999
0.13026
0.121084
0.161504
0.148004
0.127929
0.108545
0.0918238
0.0778783
0.06622
0.0562678
0.0476852
0.0408261
0.0841182
0.0736877
0.0599043
0.0475428
0.03749
0.0295154
0.0231122
0.0178535
0.0134983
0.0102818
0.0384781
0.032076
0.0243951
0.0179799
0.0130872
0.00942929
0.00666621
0.00452945
0.00290961
0.00192516
0.0154913
0.0122825
0.00873759
0.00596645
0.00398834
0.00260705
0.00164177
0.000956443
0.000505724
0.000326256
0.882081
0.892776
0.893907
0.893757
0.894881
0.897614
0.902842
0.905634
0.958307
1.00595
0.80119
0.811145
0.809059
0.804868
0.80214
0.801435
0.805355
0.810101
0.841028
0.932135
0.687045
0.693213
0.684779
0.673385
0.66355
0.656695
0.655063
0.659327
0.671413
0.720011
0.544886
0.544324
0.527704
0.507631
0.489015
0.473329
0.461398
0.453349
0.447318
0.45041
0.391622
0.383741
0.36107
0.335916
0.312615
0.292183
0.274728
0.259761
0.246369
0.236645
0.251333
0.238977
0.215943
0.192183
0.170808
0.152303
0.136332
0.122151
0.109369
0.0990265
0.142753
0.130326
0.111905
0.0942929
0.0791768
0.0665759
0.0558947
0.0464965
0.0382669
0.0319093
0.0713113
0.0620023
0.0501664
0.0396677
0.0311548
0.0244121
0.0188919
0.0142447
0.0104015
0.00788979
0.0312818
0.0257873
0.0195595
0.0144175
0.0104985
0.00756564
0.00530189
0.00349454
0.00219728
0.00154836
0.0121076
0.00945734
0.00671725
0.00460105
0.00308875
0.00202585
0.00127102
0.000709372
0.000379176
0.00028219
0.883293
0.895162
0.895664
0.894448
0.894376
0.895783
0.899177
0.898792
0.951805
1.00322
0.79969
0.811038
0.807924
0.802129
0.797574
0.794797
0.795948
0.798031
0.823592
0.917628
0.679119
0.686762
0.677043
0.663649
0.651425
0.641614
0.63619
0.635809
0.641354
0.683329
0.527404
0.52816
0.51057
0.488927
0.468266
0.449883
0.434364
0.421606
0.409189
0.405061
0.365541
0.358797
0.336837
0.312037
0.288551
0.267341
0.248496
0.23152
0.215488
0.202944
0.22314
0.212201
0.191576
0.170105
0.150442
0.133089
0.117798
0.103996
0.0914484
0.0814063
0.119471
0.108811
0.0935582
0.0789466
0.0662071
0.0554203
0.0461235
0.0379043
0.0307372
0.0254252
0.0560929
0.0485173
0.0394079
0.0313571
0.0247325
0.019399
0.0149525