/*--------------------------------*- C++ -*----------------------------------*\
| =========                 |                                                 |
| \\      /  F ield         | OpenFOAM: The Open Source CFD Toolbox           |
|  \\    /   O peration     | Version:  2112                                  |
|   \\  /    A nd           | Website:  www.openfoam.com                      |
|    \\/     M anipulation  |                                                 |
\*---------------------------------------------------------------------------*/
FoamFile
{
    version     2.0;
    format      ascii;
    arch        "LSB;label=32;scalar=64";
    class       volScalarField;
    location    "3";
    object      T;
}
// * * * * * * * * * * * * * * * * * * * * * * * * * * * * * * * * * * * * * //

dimensions      [0 0 0 1 0 0 0];

internalField   nonuniform List<scalar> 
1000
(
0
0
0
0
0
0
0
0
0
0
0
0
0
0
0
0
0
0
0
0
0
0
0
0
0
0
0
0
0
0
0
0
0
0
0
0
0
0
0
0
0
0
0
0
0
0
0
0
0
0
0
0
0
0
0
0
0
0
0
0
0
0
0
0
0
0
0
0
0
0
0
0
0
0
0
0
0
0
0
0
0
0
0
0
0
0
0
0
0
0
0
0
0
0
0
0
0
0
0
0
0
0
0
0
0
0
0
0
0
0
0
0
0
0
0
0
0
0
0
0
0
0
0
0
0
0
0
0
0
0
0
0
0
0
0
0
0
0
0
0
0
0
0
0
0
0
0
0
0
0
1.18305e-271
-1.59594e-268
1.07171e-265
-4.77661e-263
1.58958e-260
-4.2129e-258
9.26265e-256
-1.73767e-253
2.83937e-251
-4.1051e-249
5.31689e-247
-6.23127e-245
6.66302e-243
-6.5457e-241
5.94286e-239
-5.01186e-237
3.94355e-235
-2.90634e-233
2.01312e-231
-1.31457e-229
8.11484e-228
-4.74715e-226
2.63763e-224
-1.39478e-222
7.03256e-221
-3.38672e-219
1.56021e-217
-6.88577e-216
2.91519e-214
-1.1854e-212
4.63496e-211
-1.74452e-209
6.32694e-208
-2.21311e-206
7.47282e-205
-2.4378e-203
7.68919e-202
-2.34665e-200
6.93422e-199
-1.98524e-197
5.51009e-196
-1.4835e-194
3.87646e-193
-9.83624e-192
2.42484e-190
-5.8103e-189
1.35385e-187
-3.06886e-186
6.7701e-185
-1.45408e-183
3.0417e-182
-6.19904e-181
1.23128e-179
-2.38422e-178
4.50218e-177
-8.29293e-176
1.49045e-174
-2.61434e-173
4.47656e-172
-7.48456e-171
1.22214e-169
-1.94938e-168
3.03794e-167
-4.62646e-166
6.8862e-165
-1.00195e-163
1.42531e-162
-1.9826e-161
2.69701e-160
-3.58846e-159
4.67045e-158
-5.94681e-157
7.40843e-156
-9.03077e-155
1.07725e-153
-1.25756e-152
1.4368e-151
-1.60672e-150
1.75865e-149
-1.88422e-148
1.97611e-147
-2.02874e-146
2.03883e-145
-2.00575e-144
1.93156e-143
-1.82083e-142
1.68015e-141
-1.51749e-140
1.34147e-139
-1.16061e-138
9.82668e-138
-8.14154e-137
6.59994e-136
-5.23426e-135
4.06064e-134
-3.08099e-133
2.28597e-132
-1.65826e-131
1.17582e-130
-8.1477e-130
5.51591e-129
-3.6472e-128
2.35462e-127
-1.48367e-126
9.12079e-126
-5.46772e-125
3.19472e-124
-1.81826e-123
1.00737e-122
-5.42882e-122
2.8433e-121
-1.44579e-120
7.12918e-120
-3.40426e-119
1.57155e-118
-6.99961e-118
3.00024e-117
-1.23359e-116
4.84476e-116
-1.80686e-115
6.34535e-115
-2.07087e-114
6.1393e-114
-1.578e-113
3.0904e-113
-1.88804e-113
-2.14475e-112
1.46485e-111
-6.29924e-111
2.10768e-110
-5.50423e-110
9.42247e-110
3.23386e-110
-1.10904e-108
5.61196e-108
-1.87967e-107
4.36187e-107
-4.40708e-107
-1.89923e-106
1.35908e-105
-4.91071e-105
1.12698e-104
-9.01205e-105
-5.94581e-104
3.56688e-103
-1.10407e-102
1.84108e-102
1.44493e-102
-2.22614e-101
8.38551e-101
-1.68181e-100
-1.6018e-104
1.40545e-99
-5.74002e-99
1.15648e-98
8.57674e-100
-9.67781e-98
3.66407e-97
-6.24248e-97
-5.4736e-97
6.89988e-96
-2.08807e-95
2.18954e-95
8.17631e-95
-4.5061e-94
9.3462e-94
1.89313e-94
-7.5316e-93
2.33734e-92
-2.09886e-92
-1.01506e-91
4.69322e-91
-7.33709e-91
-1.06516e-90
8.32879e-90
-1.72837e-89
-6.87413e-90
1.37741e-88
-3.43226e-88
3.05112e-89
2.2063e-87
-6.16419e-87
1.90154e-87
3.5226e-86
-1.03153e-85
3.54983e-86
5.69239e-85
-1.62463e-84
3.54418e-85
9.29126e-84
-2.3967e-83
-1.86748e-84
1.50514e-82
-3.24462e-82
-1.93498e-82
2.35534e-81
-3.85025e-81
-5.83429e-81
3.44723e-80
-3.56326e-80
-1.28066e-79
4.53268e-79
-1.39464e-79
-2.29552e-78
5.01963e-78
3.67109e-78
-3.42748e-77
3.9776e-77
1.18533e-76
-4.14954e-76
4.87311e-77
2.13638e-75
-3.65716e-75
-5.54547e-75
2.76153e-74
-1.26053e-74
-1.23992e-73
2.43232e-73
2.88142e-73
-1.62863e-72
7.56369e-73
7.12725e-72
-1.29919e-71
-1.86276e-71
8.66917e-71
-1.46141e-71
-4.01392e-70
5.35259e-70
1.30778e-69
-3.98081e-69
-1.86e-69
2.05719e-68
-1.2478e-68
-8.24775e-68
1.37671e-67
2.45141e-67
-8.50174e-67
-3.38276e-67
4.09786e-66
-1.98144e-66
-1.64594e-65
2.1892e-65
5.47533e-65
-1.36159e-64
-1.36393e-64
6.79233e-64
1.1596e-64
-2.94837e-63
1.39223e-63
1.14579e-62
-1.25634e-62
-4.01157e-62
7.34788e-62
1.24915e-61
-3.60571e-61
-3.2942e-61
1.59488e-60
6.11565e-61
-6.5635e-60
1.93967e-61
2.55818e-59
-9.80965e-60
-9.55459e-59
6.75431e-59
3.45017e-58
-3.50152e-58
-1.21369e-57
1.5947e-57
4.18892e-57
-6.71749e-57
-1.42861e-56
2.68071e-56
4.84926e-56
-1.02683e-55
-1.64982e-55
3.80449e-55
5.66071e-55
-1.36951e-54
-1.96727e-54
4.79978e-54
6.93637e-54
-1.63806e-53
-2.47783e-53
5.43393e-53
8.93115e-53
-1.74507e-52
-3.22894e-52
5.38659e-52
1.16297e-51
-1.57868e-51
-4.14381e-51
4.29616e-51
1.45068e-50
-1.03579e-50
-4.95593e-50
1.93389e-50
1.64039e-49
-9.88977e-51
-5.21708e-49
-1.5011e-49
1.57714e-48
1.06644e-48
-4.4595e-48
-5.12331e-48
1.14687e-47
2.07145e-47
-2.52497e-47
-7.45311e-47
3.91604e-47
2.42539e-46
1.04296e-47
-7.11828e-46
-4.24951e-46
1.84313e-45
2.31582e-45
-3.95776e-45
-9.11785e-45
5.62828e-45
2.96973e-44
3.57144e-45
-8.16969e-44
-6.63645e-44
1.82504e-43
3.16435e-43
-2.75385e-43
-1.08137e-42
-6.52789e-44
2.91422e-42
2.48157e-42
-5.92182e-42
-1.15615e-41
6.31936e-42
3.63516e-41
1.44226e-41
-8.40078e-41
-1.12819e-40
1.19579e-40
4.05599e-40
6.46512e-41
-9.94434e-40
-1.11917e-39
1.48021e-39
4.33284e-39
5.32218e-40
-1.05085e-38
-1.21116e-38
1.40172e-38
4.52371e-38
1.29317e-38
-9.91695e-38
-1.40262e-37
9.13928e-38
4.48649e-37
2.81192e-37
-7.79903e-37
-1.58747e-36
4.7594e-38
3.90937e-36
4.54524e-36
-3.9473e-36
-1.57228e-35
-9.88565e-36
2.52322e-35
5.51642e-35
1.00889e-35
-1.17416e-34
-1.75411e-34
4.69209e-35
4.72228e-34
5.1773e-34
-4.04416e-34
-1.74743e-33
-1.44907e-33
2.03384e-33
6.15427e-33
3.955e-33
-8.48236e-33
-2.10919e-32
-1.09957e-32
3.19049e-32
7.14102e-32
3.30555e-32
-1.11653e-31
-2.40952e-31
-1.12748e-31
3.6706e-31
8.1208e-31
4.34362e-31
-1.12715e-30
-2.72177e-30
-1.79408e-30
3.15271e-30
8.97466e-30
7.50584e-30
-7.50181e-30
-2.86189e-29
-3.05801e-29
1.17923e-29
8.60229e-29
1.18337e-28
1.30715e-29
-2.33509e-28
-4.2639e-28
-2.28925e-28
5.21261e-28
1.3969e-27
1.32476e-27
-6.5902e-28
-3.99583e-27
-5.70471e-27
-1.69934e-27
9.07558e-27
2.00427e-26
1.7243e-26
-1.08909e-26
-5.65449e-26
-8.16817e-26
-3.26987e-26
1.11039e-25
2.77848e-25
2.92037e-25
-2.85929e-26
-6.67905e-25
-1.22359e-24
-9.63713e-25
6.9109e-25
3.36462e-24
5.1533e-24
3.12812e-24
-4.55976e-24
-1.55965e-23
-2.16832e-23
-1.10854e-23
2.27435e-23
6.91733e-23
9.36633e-23
4.80336e-23
-9.56574e-23
-2.97204e-22
-4.18216e-22
-2.55527e-22
3.31488e-22
1.22582e-21
1.90177e-21
1.49617e-21
-7.46991e-22
-4.68973e-21
-8.52518e-21
-8.69175e-21
-1.21062e-21
1.53117e-20
3.59123e-20
4.70898e-20
2.95008e-20
-3.197e-20
-1.31703e-19
-2.27189e-19
-2.36065e-19
-6.11442e-20
3.48822e-19
9.14087e-19
1.35422e-18
1.19918e-18
-5.02626e-20
-2.58534e-18
-5.8449e-18
-8.17095e-18
-6.89481e-18
7.97273e-19
1.60618e-17
3.59651e-17
5.14113e-17
4.71077e-17
5.50978e-18
-8.39813e-17
-2.1132e-16
-3.31763e-16
-3.59616e-16
-1.80845e-16
3.05123e-16
1.11124e-15
2.06837e-15
2.74492e-15
2.43837e-15
3.1129e-16
-4.26694e-15
-1.1162e-14
-1.8792e-14
-2.35584e-14
-1.9789e-14
-7.00887e-16
3.91411e-14
9.96776e-14
1.69946e-13
2.22806e-13
2.12404e-13
7.81068e-14
-2.40855e-13
-7.76573e-13
-1.48899e-12
-2.21299e-12
-2.60979e-12
-2.14719e-12
-1.43641e-13
4.0823e-12
1.0919e-11
2.00067e-11
2.96459e-11
3.61671e-11
3.34603e-11
1.29859e-11
-3.52915e-11
-1.2052e-10
-2.46613e-10
-4.056e-10
-5.68754e-10
-6.76361e-10
-6.28123e-10
-2.77823e-10
5.62222e-10
2.09923e-09
4.51096e-09
7.85889e-09
1.19533e-08
1.61631e-08
1.91715e-08
1.86908e-08
1.11724e-08
-8.42002e-09
-4.6663e-08
-1.11381e-07
-2.10765e-07
-3.51561e-07
-5.35899e-07
-7.56172e-07
-9.87281e-07
-1.17539e-06
-1.22223e-06
-9.63695e-07
-1.41748e-07
1.63205e-06
4.92251e-06
1.05278e-05
1.95488e-05
3.34719e-05
5.42661e-05
8.44955e-05
0.000127447
0.000187272
0.000269144
0.000379425
0.000525847
0.000717695
0.000965995
0.0012837
0.00168588
0.00218985
0.00281536
0.00358469
0.00452274
0.00565706
0.00701786
0.00863794
0.0105526
0.0127994
0.015418
0.0184499
0.0219378
0.0259253
0.0304568
0.0355763
0.0413272
0.0477516
0.0548895
0.0627786
0.0714529
0.0809428
0.0912741
0.102467
0.114537
0.127493
0.141336
0.156064
0.171663
0.188116
0.205397
0.223473
0.242305
0.261847
0.282048
0.30285
0.32419
0.346001
0.368214
0.390754
0.413546
0.436513
0.459578
0.482662
0.505691
0.528588
0.551281
0.573701
0.595781
0.61746
0.638681
0.65939
0.679539
0.699088
0.717998
0.736239
0.753785
0.770614
0.786713
0.802071
0.816682
0.830547
0.843668
0.856054
0.867716
0.878669
0.888929
0.898517
0.907455
0.915766
0.923477
0.930614
0.937203
0.943274
0.948853
0.953969
0.95865
0.962923
0.966816
0.970354
0.973562
0.976466
0.979089
0.981452
0.983576
0.985482
0.987187
0.988708
0.990061
0.99126
0.992316
0.993241
0.994044
0.994731
0.995308
0.995778
0.99614
0.996395
0.996537
0.996561
0.996456
0.996212
0.995811
0.995237
0.994468
0.99348
0.992245
0.990734
0.988913
0.986746
0.984196
0.981223
0.977786
0.973841
0.969346
0.964258
0.958533
0.952131
0.945012
0.937139
0.928478
0.919
0.908678
0.897493
0.88543
0.87248
0.858641
0.843917
0.828321
0.811871
0.794593
0.776518
0.757688
0.738147
0.717947
0.697146
0.675807
0.653996
0.631784
0.609245
0.586453
0.563486
0.540421
0.517337
0.494309
0.471412
0.448719
0.426299
0.404219
0.38254
0.361319
0.34061
0.32046
0.300912
0.282002
0.263761
0.246215
0.229386
0.213287
0.197929
0.183318
0.169453
0.156332
0.143946
0.132284
0.121331
0.111071
0.101483
0.0925452
0.0842335
0.0765226
0.0693861
0.0627966
0.0567264
0.0511473
0.0460313
0.0413504
0.0370773
0.0331849
0.0296471
0.0264386
0.0235348
0.0209125
0.0185493
0.0164241
0.0145167
0.0128084
0.0112815
0.00991948
0.00870689
0.00762948
0.00667405
0.00582841
0.00508139
0.00442273
0.00384307
0.00333389
0.00288745
0.00249672
0.00215538
0.00185772
0.00159861
0.00137347
0.00117817
0.00100906
0.000862884
0.000736741
0.000628074
0.000534618
0.000454378
0.000385599
0.000326742
0.000276457
0.000233565
0.000197038
0.000165981
0.000139616
0.00011727
9.83594e-05
8.23809e-05
6.89006e-05
5.75452e-05
4.79941e-05
3.99728e-05
3.32462e-05
2.76136e-05
2.29041e-05
1.89721e-05
1.56939e-05
1.29649e-05
1.06961e-05
8.81277e-06
7.2515e-06
5.95904e-06
4.89059e-06
4.00854e-06
3.28137e-06
2.6827e-06
2.19047e-06
1.78631e-06
1.4549e-06
1.18351e-06
9.61548e-07
7.80257e-07
6.32375e-07
5.11899e-07
4.13875e-07
3.34221e-07
2.69576e-07
2.17176e-07
1.74756e-07
1.40457e-07
1.12758e-07
9.04173e-08
7.24193e-08
5.79375e-08
4.62989e-08
3.69564e-08
2.9466e-08
2.34675e-08
1.86693e-08
1.48358e-08
1.17764e-08
9.33777e-09
7.39605e-09
5.85177e-09
4.62495e-09
3.65143e-09
2.87976e-09
2.26877e-09
1.78554e-09
1.40376e-09
1.10246e-09
8.64939e-10
6.77893e-10
5.30752e-10
4.15127e-10
3.24362e-10
2.53187e-10
1.97433e-10
1.53802e-10
1.19695e-10
9.30599e-11
7.22808e-11
5.60866e-11
4.34785e-11
3.36721e-11
2.60525e-11
2.01379e-11
1.55513e-11
1.19978e-11
9.24884e-12
7.11456e-12
5.52682e-12
3.87887e-12
)
;

boundaryField
{
    sides
    {
        type            zeroGradient;
    }
    empty
    {
        type            empty;
    }
}


// ************************************************************************* //
