/*--------------------------------*- C++ -*----------------------------------*\
| =========                 |                                                 |
| \\      /  F ield         | OpenFOAM: The Open Source CFD Toolbox           |
|  \\    /   O peration     | Version:  2112                                  |
|   \\  /    A nd           | Website:  www.openfoam.com                      |
|    \\/     M anipulation  |                                                 |
\*---------------------------------------------------------------------------*/
FoamFile
{
    version     2.0;
    format      ascii;
    arch        "LSB;label=32;scalar=64";
    class       surfaceScalarField;
    location    "27.5";
    object      phi;
}
// * * * * * * * * * * * * * * * * * * * * * * * * * * * * * * * * * * * * * //

dimensions      [0 3 -1 0 0 0 0];

oriented        oriented;

internalField   nonuniform List<scalar> 
17370
(
-0.0916071
0.0960071
0.284611
-0.0775907
0.0594143
0.364952
-0.0430358
0.0316159
0.427588
-0.0223104
0.0162551
0.505307
-0.0116572
0.00877732
0.602282
-0.00655954
0.00507175
0.720545
-0.00383839
0.00296798
0.863777
-0.002211
0.0016485
1.03601
-0.00113282
0.000723027
1.24291
-0.000318806
-6.41901e-05
1.49157
0.000444753
-0.000855888
1.4916
0.0012622
-0.0017708
1.2432
0.00232549
-0.00307335
1.03639
0.00393514
-0.00515895
0.86413
0.00663811
-0.00884604
0.721265
0.0117152
-0.0162993
0.603799
0.0223411
-0.0316324
0.508731
0.0430379
-0.0594078
0.432538
0.0775867
-0.0960033
0.365192
0.0916174
0.197393
-0.127087
0.0880186
0.0390687
-0.36435
0.354024
-0.0714776
0.0818036
-0.446654
0.454246
-0.0791677
0.0715758
-0.521009
0.529107
-0.0637266
0.0556291
-0.612987
0.620757
-0.0482424
0.0404722
-0.727158
0.733679
-0.0338594
0.0273389
-0.867574
0.872418
-0.0221382
0.0172947
-1.03856
1.04188
-0.0136094
0.01029
-1.24471
1.24709
-0.00775903
0.00537656
-1.49283
1.49482
-0.00343573
0.00144922
-1.49269
1.49449
0.000348871
-0.00214883
-1.2441
1.24601
0.00410993
-0.00602175
-1.0376
1.0401
0.00836663
-0.0108609
-0.866188
0.869834
0.0141387
-0.0177842
-0.724602
0.729764
0.0225838
-0.0277451
-0.609073
0.615649
0.0342242
-0.0408006
-0.515129
0.522477
0.0485312
-0.0558789
-0.439881
0.447676
0.0639204
-0.0717156
-0.374717
0.377366
0.0792298
-0.0818794
-0.256915
0.224468
0.0715368
-0.0390903
-0.0688015
0.0591893
0.00961217
-0.0521114
0.0589453
-0.374831
0.367997
-0.0581
0.0542604
-0.453936
0.457776
-0.0487738
0.0442131
-0.5276
0.532161
-0.0396585
0.0357561
-0.620778
0.624681
-0.0315383
0.0275498
-0.734639
0.738627
-0.023216
0.0193617
-0.873941
0.877795
-0.0153623
0.0119488
-1.04334
1.04675
-0.00847641
0.00548031
-1.24862
1.25161
-0.00230522
-0.000654212
-1.4969
1.49986
0.00359895
-0.0067353
-1.49739
1.50053
0.0096755
-0.0130752
-1.25007
1.25347
0.0164167
-0.0203339
-1.04567
1.04959
0.0241126
-0.0283656
-0.877165
0.881418
0.032283
-0.0364255
-0.739008
0.743151
0.0402638
-0.0447559
-0.625995
0.630487
0.0492667
-0.0547058
-0.53504
0.540479
0.0584912
-0.0592744
-0.458107
0.45889
0.0523531
-0.0320094
-0.336814
0.31647
0.00965543
-0.0686956
0.0590402
-0.0533994
0.0492893
0.00411014
-0.0332395
0.0436651
-0.358545
0.34812
-0.0473432
0.0467588
-0.459562
0.460146
-0.0438317
0.0406187
-0.536109
0.539322
-0.0369417
0.0335902
-0.628363
0.631715
-0.0299669
0.0267449
-0.741991
0.745213
-0.0233207
0.0201597
-0.881274
0.884435
-0.0166182
0.0133148
-1.05017
1.05347
-0.00967117
0.0063176
-1.25486
1.25821
-0.00258613
-0.000974994
-1.50319
1.50675
0.00451469
-0.00818675
-1.50401
1.50768
0.0114595
-0.0149967
-1.25702
1.26055
0.0181934
-0.0216137
-1.05328
1.0567
0.0246645
-0.0279718
-0.885031
0.888338
0.0310915
-0.0346092
-0.746852
0.750369
0.0378704
-0.0414554
-0.63463
0.638215
0.0445906
-0.0474315
-0.544643
0.547484
0.047928
-0.0441297
-0.457035
0.453237
0.033559
-0.0163122
-0.297204
0.279957
0.00415811
-0.0532078
0.0490497
-0.0461198
0.0435687
0.00255105
-0.0230154
0.0333537
-0.337524
0.327186
-0.039083
0.040037
-0.459879
0.458925
-0.0387977
0.036487
-0.541949
0.544259
-0.033863
0.0313324
-0.634646
0.637177
-0.0283751
0.0255561
-0.748279
0.751098
-0.0223649
0.0194039
-0.887492
0.890452
-0.0161164
0.0130471
-1.05663
1.0597
-0.00956706
0.0062386
-1.26157
1.26489
-0.00240061
-0.00133785
-1.51044
1.51418
0.00504717
-0.00879949
-1.51143
1.51518
0.0120163
-0.015352
-1.264
1.26734
0.0182785
-0.0214047
-1.05993
1.06306
0.0242209
-0.0272602
-0.891559
0.894598
0.029943
-0.0327556
-0.753569
0.756382
0.0351621
-0.0376622
-0.641178
0.643678
0.0398708
-0.0409788
-0.549338
0.550446
0.0398908
-0.0339689
-0.448163
0.442241
0.0234216
-0.010279
-0.264852
0.251709
0.0026103
-0.0458278
0.0432176
-0.0414551
0.0396628
0.0017923
-0.0168804
0.0261393
-0.317332
0.308073
-0.032716
0.0348234
-0.457362
0.455254
-0.0343755
0.0326632
-0.546271
0.547983
-0.0304218
0.0282929
-0.639453
0.641582
-0.0258802
0.0235579
-0.753655
0.755977
-0.0208377
0.0181932
-0.893272
0.895916
-0.0151255
0.0121947
-1.0627
1.06563
-0.00883461
0.00561455
-1.26815
1.27137
-0.0018796
-0.00176981
-1.51789
1.52154
0.00538243
-0.00900462
-1.51889
1.52251
0.0120756
-0.0152464
-1.27058
1.27375
0.0179912
-0.0208465
-1.06606
1.06892
0.0232987
-0.0258174
-0.897377
0.899895
0.0279646
-0.0301955
-0.758846
0.761077
0.0321662
-0.0342469
-0.645938
0.648018
0.0358114
-0.0360807
-0.551075
0.551344
0.0337697
-0.0269156
-0.435755
0.428901
0.0173813
-0.00734385
-0.240258
0.230221
0.00186433
-0.0410404
0.039176
-0.0381217
0.0367863
0.00133534
-0.0128088
0.0207393
-0.299471
0.29154
-0.0274592
0.0303744
-0.45269
0.449775
-0.0306081
0.0295236
-0.549392
0.550476
-0.0275775
0.0256946
-0.643598
0.645481
-0.0235302
0.0214415
-0.758181
0.76027
-0.0190111
0.0166307
-0.898419
0.900799
-0.0138221
0.0110751
-1.06846
1.07121
-0.00787303
0.00478465
-1.27452
1.27761
-0.0012058
-0.00227909
-1.52509
1.52858
0.00571335
-0.00914297
-1.52604
1.52947
0.0120344
-0.0149869
-1.27683
1.27978
0.0174906
-0.020029
-1.07161
1.07415
0.0221726
-0.0243566
-0.902217
0.904401
0.0262273
-0.0281615
-0.763154
0.765088
0.0298459
-0.0315973
-0.649922
0.651673
0.0324705
-0.0319928
-0.551229
0.550751
0.0287931
-0.0217006
-0.421854
0.414761
0.0134216
-0.00558707
-0.221381
0.213547
0.00142325
-0.0375579
0.0361346
-0.0356236
0.034606
0.00101767
-0.00990161
0.0165526
-0.284264
0.277613
-0.0229606
0.0262864
-0.446614
0.443288
-0.0270508
0.0263709
-0.551316
0.551996
-0.0246424
0.0229099
-0.647285
0.649017
-0.0209323
0.0190371
-0.762284
0.764179
-0.016833
0.0146748
-0.90308
0.905238
-0.0121337
0.0096333
-1.0738
1.0763
-0.00668553
0.00379196
-1.28057
1.28346
-0.000396737
-0.00292059
-1.53198
1.53529
0.00617464
-0.00937307
-1.53281
1.53601
0.0120105
-0.0146395
-1.28258
1.28521
0.016827
-0.0190175
-1.07651
1.0787
0.0208672
-0.0227553
-0.906432
0.90832
0.0243792
-0.0260743
-0.766885
0.76858
0.0275617
-0.029028
-0.653292
0.654759
0.0294438
-0.028338
-0.549952
0.548846
0.0246249
-0.0177317
-0.407734
0.400841
0.010648
-0.00439639
-0.206569
0.200318
0.0011247
-0.034879
0.0337543
-0.0337192
0.032944
0.000775233
-0.00768133
0.0131807
-0.271557
0.266057
-0.019045
0.0225463
-0.439855
0.436354
-0.023789
0.0233635
-0.552573
0.552999
-0.0219119
0.0202966
-0.650716
0.652331
-0.0184375
0.0166729
-0.76603
0.767795
-0.0146309
0.0126264
-0.907303
0.909307
-0.0102488
0.0079078
-1.07866
1.081
-0.00515806
0.00247798
-1.2862
1.28888
0.000646324
-0.00368135
-1.53846
1.5415
0.00663834
-0.00952721
-1.53908
1.54197
0.0118886
-0.014224
-1.28769
1.29002
0.0161592
-0.0180894
-1.08075
1.08268
0.0197107
-0.0213649
-0.910068
0.911722
0.0228009
-0.0243199
-0.770164
0.771683
0.0256277
-0.0267318
-0.656062
0.657166
0.0268048
-0.0250986
-0.547446
0.54574
0.021089
-0.014615
-0.394144
0.38767
0.008587
-0.00352492
-0.194711
0.189649
0.000905359
-0.0327544
0.0318491
-0.0322709
0.0316861
0.000584783
-0.00591072
0.0103797
-0.261089
0.25662
-0.015539
0.0189797
-0.432858
0.429417
-0.0205517
0.0204145
-0.55328
0.553417
-0.0192993
0.0178578
-0.653873
0.655315
-0.0161544
0.0144998
-0.769546
0.7712
-0.012552
0.0106281
-0.911268
0.913192
-0.0083573
0.0061449
-1.08322
1.08543
-0.00356934
0.00107741
-1.29142
1.29391
0.00181582
-0.00461271
-1.54438
1.54718
0.00731136
-0.00990976
-1.54474
1.54733
0.0120067
-0.0140681
-1.29227
1.29433
0.0157726
-0.0174746
-1.08452
1.08622
0.018915
-0.0203826
-0.913257
0.914724
0.0216308
-0.0229154
-0.773054
0.774339
0.0239923
-0.0246456
-0.658058
0.658712
0.0243244
-0.0221405
-0.543795
0.541612
0.0180457
-0.0121276
-0.381473
0.375555
0.00701403
-0.00287313
-0.185084
0.180943
0.000744424
-0.0310385
0.0302941
-0.0311879
0.0307671
0.000420884
-0.00440616
0.00793988
-0.252636
0.249102
-0.0123058
0.0154791
-0.426099
0.422926
-0.0171532
0.0171815
-0.553462
0.553434
-0.0162662
0.0149061
-0.65672
0.65808
-0.0132986
0.0117597
-0.772858
0.774397
-0.00996953
0.00820425
-0.915032
0.916797
-0.0061181
0.00408252
-1.08749
1.08952
-0.00171021
-0.00057787
-1.29625
1.29854
0.00322831
-0.00577422
-1.54982
1.55236
0.00819797
-0.0104867
-1.54979
1.55208
0.0122988
-0.0140498
-1.29626
1.29801
0.0154672
-0.0168502
-1.0878
1.08919
0.0179868
-0.0191423
-0.916044
0.917199
0.0201565
-0.0212335
-0.775462
0.776539
0.0221299
-0.0224453
-0.659168
0.659483
0.0218198
-0.0193566
-0.539302
0.536838
0.0153616
-0.0100646
-0.369968
0.364671
0.00574845
-0.00235388
-0.17721
0.173816
0.000616136
-0.029628
0.0290119
-0.0304211
0.0301433
0.000277781
-0.003078
0.00574357
-0.246015
0.24335
-0.00927721
0.0120648
-0.419944
0.417156
-0.0137146
0.0138632
-0.553359
0.55321
-0.013054
0.0118107
-0.659434
0.660677
-0.0103229
0.00892074
-0.775938
0.77734
-0.00729788
0.00568049
-0.918435
0.920053
-0.00375466
0.00186663
-1.09138
1.09327
0.000332657
-0.00245988
-1.30068
1.30281
0.00489281
-0.0071809
-1.55475
1.55704
0.00932673
-0.0113155
-1.55423
1.55622
0.0128398
-0.0142404
-1.29963
1.30103
0.0153283
-0.0163501
-1.09039
1.09141
0.0171698
-0.0180123
-0.918189
0.919031
0.0188016
-0.0196806
-0.77745
0.778329
0.0203452
-0.0204205
-0.659695
0.659771
0.0194898
-0.0168282
-0.534326
0.531664
0.0130142
-0.00834185
-0.359717
0.355045
0.00472525
-0.00194726
-0.170761
0.167983
0.00052061
-0.0284598
0.0279392
-0.0299297
0.0297836
0.000146046
-0.00183321
0.00365906
-0.241112
0.239286
-0.00631859
0.00863546
-0.414598
0.412281
-0.010228
0.0105776
-0.552971
0.552621
-0.0100221
0.00903814
-0.661841
0.662825
-0.00770772
0.00636292
-0.778782
0.780126
-0.00473461
0.00310667
-0.921618
0.923245
-0.00119556
-0.000637213
-1.09504
1.09687
0.00273154
-0.00470722
-1.3048
1.30677
0.00691539
-0.00894414
-1.55915
1.56118
0.0107937
-0.0124648
-1.55805
1.55973
0.0137127
-0.0148621
-1.30235
1.3035
0.0157518
-0.0165829
-1.09239
1.09322
0.0172479
-0.0178739
-0.919765
0.920391
0.0183541
-0.0188083
-0.778908
0.779363
0.019014
-0.018643
-0.659613
0.659242
0.0172969
-0.0144454
-0.528949
0.526098
0.0108794
-0.0068424
-0.350732
0.346695
0.00385851
-0.0016113
-0.165506
0.163259
0.00044552
-0.0274723
0.0270268
-0.0297083
0.0297017
6.62735e-06
-0.000619477
0.00163715
-0.237868
0.236851
-0.00339716
0.005112
-0.410268
0.408554
-0.00642336
0.00678101
-0.552243
0.551885
-0.00633965
0.00550492
-0.663771
0.664606
-0.00429661
0.00303209
-0.781507
0.782772
-0.00148022
-6.74896e-05
-0.924762
0.92631
0.00186444
-0.00357455
-1.09856
1.10027
0.00551568
-0.00733065
-1.30861
1.31043
0.00934511
-0.0111662
-1.56307
1.56489
0.0127538
-0.014076
-1.56124
1.56256
0.0149807
-0.0156982
-1.3045
1.30522
0.0161713
-0.0165459
-1.09389
1.09427
0.0168179
-0.0170618
-0.920861
0.921104
0.0172629
-0.017467
-0.779619
0.779823
0.0173834
-0.0166768
-0.658609
0.657903
0.0150859
-0.0122273
-0.523276
0.520417
0.00899
-0.00555419
-0.343016
0.33958
0.00311942
-0.00131909
-0.161281
0.159481
0.00037546
-0.026636
0.0262605
-0.0297674
0.029903
-0.000135589
0.000421612
-0.000132207
-0.236202
0.235913
-0.000773152
0.00186077
-0.407189
0.406101
-0.00276746
0.0029641
-0.55164
0.551443
-0.0024757
0.00166982
-0.665507
0.666313
-0.000529409
-0.000656094
-0.784041
0.785226
0.00211168
-0.00356773
-0.927681
0.929137
0.00527148
-0.00690248
-1.10182
1.10345
0.00874668
-0.0104521
-1.31209
1.3138
0.0122931
-0.0138784
-1.56654
1.56812
0.0151871
-0.0161914
-1.56371
1.56472
0.0167804
-0.017167
-1.30581
1.3062
0.0173137
-0.0173181
-1.09455
1.09455
0.0172346
-0.0171069
-0.921146
0.921019
0.0169619
-0.0167645
-0.779624
0.779426
0.016333
-0.015331
-0.657021
0.656019
0.0135465
-0.0106835
-0.517677
0.514814
0.00770442
-0.00472361
-0.336472
0.333491
0.00266816
-0.00114302
-0.157895
0.15637
0.000328543
-0.0259402
0.0256117
-0.030093
0.0303239
-0.000230985
0.00121622
-0.00145851
-0.235922
0.236164
0.00127905
-0.000762077
-0.405335
0.404818
0.000208954
-0.000131359
-0.551367
0.551289
0.000634832
-0.00143016
-0.667239
0.668035
0.00256475
-0.00377788
-0.786458
0.787671
0.00528776
-0.00680047
-0.930448
0.931961
0.00857957
-0.0102872
-1.10496
1.10666
0.0122179
-0.0139717
-1.31542
1.31717
0.0157992
-0.0172876
-1.56959
1.57108
0.018429
-0.0192372
-1.56562
1.56643
0.0196045
-0.0196919
-1.30649
1.30658
0.0195656
-0.0192415
-1.09441
1.09409
0.0188298
-0.0183306
-0.920679
0.92018
0.0178976
-0.0174125
-0.778973
0.778488
0.0166163
-0.0151908
-0.654804
0.653379
0.0131127
-0.0101488
-0.512024
0.50906
0.00730832
-0.00456852
-0.330741
0.328002
0.00264757
-0.00115907
-0.154943
0.153455
0.000336075
-0.0253137
0.0249776
-0.0306045
0.0309273
-0.00032278
0.00185319
-0.00257787
-0.236643
0.237368
0.00305158
-0.00315337
-0.40463
0.404732
0.00304039
-0.00311178
-0.551366
0.551438
0.00359879
-0.00439637
-0.668979
0.669776
0.00558784
-0.00693909
-0.788953
0.790304
0.0086818
-0.0104417
-0.933392
0.935152
0.0124785
-0.0143868
-1.10831
1.11022
0.0164683
-0.0182993
-1.31887
1.3207
0.0201316
-0.0215461
-1.57248
1.57389
0.0225243
-0.0230599
-1.5671
1.56764
0.0231588
-0.02294
-1.30655
1.30633
0.0225307
-0.0219237
-1.09362
1.09301
0.0212871
-0.0205413
-0.919482
0.918736
0.0198122
-0.0189103
-0.777663
0.776762
0.0177127
-0.0158774
-0.651792
0.649956
0.0135392
-0.0104886
-0.506213
0.503163
0.00769513
-0.00497001
-0.325409
0.322684
0.00295818
-0.00131776
-0.151976
0.150336
0.000384755
-0.0246566
0.0242719
-0.0313009
0.0317228
-0.000421821
0.002509
-0.00364078
-0.238312
0.239444
0.00470369
-0.00542322
-0.405142
0.405861
0.00597764
-0.0064847
-0.551843
0.55235
0.00724052
-0.00823605
-0.670804
0.6718
0.00968138
-0.0113166
-0.791763
0.793398
0.0133819
-0.0153979
-0.936823
0.938839
0.0176759
-0.0197455
-1.11204
1.11411
0.0219365
-0.0237871
-1.32243
1.32428
0.0255575
-0.0268187
-1.57517
1.57643
0.0275454
-0.0277279
-1.56798
1.56816
0.0274829
-0.0268716
-1.30596
1.30535
0.0261196
-0.025167
-1.09222
1.09126
0.0242083
-0.0231074
-0.917725
0.916624
0.0220716
-0.0208179
-0.775535
0.774281
0.0193465
-0.0172354
-0.648037
0.645926
0.0147594
-0.0116404
-0.500289
0.49717
0.00872837
-0.00575466
-0.320006
0.317032
0.00347049
-0.00155927
-0.148649
0.146738
0.000457794
-0.0238936
0.0234358
-0.032206
0.0327498
-0.000543808
0.0032965
-0.00485709
-0.240805
0.242366
0.00644886
-0.0077344
-0.406898
0.408184
0.00895865
-0.0100829
-0.553398
0.554522
0.0114777
-0.013026
-0.673239
0.674788
0.0150002
-0.0170434
-0.795147
0.79719
0.0194667
-0.0217509
-0.940725
0.943009
0.0242498
-0.0264673
-1.11604
1.11826
0.0287492
-0.0306043
-1.32598
1.32784
0.032269
-0.0333038
-1.57749
1.57853
0.0336893
-0.0334196
-1.56809
1.56782
0.0327389
-0.031662
-1.30454
1.30346
0.0305031
-0.029121
-1.09008
1.0887
0.0278177
-0.026385
-0.91522
0.913787
0.0250617
-0.0235233
-0.7727
0.771161
0.0218682
-0.0196086
-0.643836
0.641576
0.0169736
-0.0135535
-0.494208
0.490788
0.0102499
-0.00679892
-0.314013
0.310562
0.00411597
-0.00186161
-0.144759
0.142504
0.00055171
-0.0229845
0.0224328
-0.0333667
0.034083
-0.000716347
0.00439251
-0.00651025
-0.244191
0.246309
0.00868069
-0.0104357
-0.409773
0.411528
0.0121626
-0.0137611
-0.556248
0.557846
0.0157103
-0.0178107
-0.676839
0.67894
0.0203931
-0.0229485
-0.799328
0.801884
0.0258783
-0.0285577
-0.945184
0.947863
0.0314434
-0.033978
-1.12038
1.12291
0.0365595
-0.0386251
-1.32959
1.33166
0.0403946
-0.0413743
-1.57939
1.58037
0.0415667
-0.0409725
-1.5673
1.56671
0.0398736
-0.0382781
-1.3021
1.30051
0.0365882
-0.0346792
-1.08704
1.08513
0.0330144
-0.0312849
-0.912082
0.910352
0.0297341
-0.0280215
-0.769316
0.767603
0.0261487
-0.0234635
-0.639264
0.636579
0.0202359
-0.016011
-0.487354
0.483129
0.0120092
-0.0079247
-0.307014
0.30293
0.00480545
-0.00218578
-0.140196
0.137577
0.00065216
-0.0218942
0.021242
-0.0348787
0.0358326
-0.000953932
0.00589673
-0.00878239
-0.248747
0.251632
0.0117144
-0.0139604
-0.41362
0.415866
0.0160017
-0.0178205
-0.560076
0.561895
0.0200343
-0.0224871
-0.681462
0.683915
0.025604
-0.0287256
-0.804493
0.807614
0.0322654
-0.0355262
-0.950484
0.953745
0.0390804
-0.0422255
-1.12546
1.12861
0.0454481
-0.0480284
-1.33376
1.33634
0.0502491
-0.0515089
-1.58133
1.58259
0.0518357
-0.0512425
-1.56601
1.56542
0.050053
-0.0482699
-1.29875
1.29697
0.0463233
-0.0439899
-1.08286
1.08053
0.0417485
-0.0393284
-0.908128
0.905708
0.0372949
-0.0349004
-0.765419
0.763025
0.0322382
-0.0284061
-0.633574
0.629742
0.0240349
-0.0186946
-0.478745
0.473404
0.0139065
-0.0091891
-0.298822
0.294104
0.00559973
-0.00255848
-0.134917
0.131876
0.000764698
-0.0206091
0.0198444
-0.0368663
0.0381674
-0.00130114
0.00804646
-0.0120265
-0.25489
0.25887
0.0160689
-0.0190554
-0.418631
0.421617
0.0215151
-0.0234793
-0.564467
0.566431
0.0257786
-0.0284648
-0.686732
0.689419
0.0320065
-0.0356073
-0.810662
0.814263
0.039856
-0.0438937
-0.957022
0.96106
0.0483612
-0.0523336
-1.13188
1.13585
0.0563855
-0.0596151
-1.33904
1.34227
0.0624042
-0.0640245
-1.5839
1.58552
0.0645327
-0.0639709
-1.56479
1.56423
0.0627071
-0.0607384
-1.29505
1.29308
0.0585596
-0.0558651
-1.07789
1.0752
0.0532178
-0.0501785
-0.90275
0.89971
0.0471535
-0.0433126
-0.759675
0.755834
0.0391157
-0.0335773
-0.625204
0.619665
0.027905
-0.0215303
-0.467947
0.461573
0.0160614
-0.0106984
-0.289456
0.284093
0.00655415
-0.00299782
-0.128798
0.125242
0.000893249
-0.0191002
0.0182069
-0.0395482
0.0413751
-0.00182681
0.0111311
-0.0166077
-0.263258
0.268735
0.0221774
-0.0263093
-0.425526
0.429658
0.0295983
-0.031993
-0.569493
0.571888
0.0346139
-0.0376021
-0.692472
0.69546
0.0416849
-0.0459871
-0.817769
0.822071
0.0511501
-0.0560513
-0.965139
0.97004
0.0614363
-0.0661442
-1.13991
1.14462
0.0708481
-0.0745055
-1.34552
1.34918
0.077555
-0.0791946
-1.58705
1.58869
0.0795051
-0.0785671
-1.56345
1.56251
0.0768705
-0.0743405
-1.29083
1.2883
0.0715746
-0.0681715
-1.07205
1.06865
0.0647742
-0.0606742
-0.895852
0.891752
0.0563787
-0.0510024
-0.750909
0.745533
0.0453807
-0.0385436
-0.613511
0.606673
0.0319977
-0.0248931
-0.455329
0.448225
0.0187661
-0.0126096
-0.278846
0.27269
0.00774598
-0.00353271
-0.121642
0.117428
0.00104517
-0.0173406
0.0162954
-0.0432495
0.0459102
-0.00266073
0.0157654
-0.0232862
-0.274621
0.282142
0.0308465
-0.0365503
-0.435308
0.441012
0.0412081
-0.0446606
-0.57601
0.579463
0.0483373
-0.0522827
-0.699016
0.702962
0.0573986
-0.0626059
-0.826344
0.831552
0.0686596
-0.0742533
-0.974897
0.980491
0.0802222
-0.0852741
-1.14922
1.15427
0.0901247
-0.0936838
-1.35259
1.35615
0.0963448
-0.097354
-1.5899
1.59091
0.0968275
-0.0948663
-1.56102
1.55906
0.0921718
-0.0884883
-1.28518
1.2815
0.0846483
-0.0800529
-1.06453
1.05993
0.0755106
-0.070103
-0.886587
0.88118
0.0646693
-0.0581466
-0.739068
0.732545
0.0516669
-0.0441384
-0.59949
0.591962
0.0370451
-0.0292286
-0.441412
0.433596
0.0222318
-0.0149753
-0.266668
0.259411
0.00916041
-0.00413605
-0.113182
0.108158
0.00120625
-0.015291
0.0140848
-0.0485499
0.0526535
-0.00410364
0.0231792
-0.0335628
-0.290142
0.300526
0.0437394
-0.0515599
-0.449194
0.457015
0.0581605
-0.063298
-0.585437
0.590575
0.0689058
-0.0744659
-0.707722
0.713282
0.0809746
-0.0871052
-0.836692
0.842822
0.0938413
-0.0997733
-0.985839
0.991771
0.105804
-0.110642
-1.1589
1.16374
0.11495
-0.117729
-1.3591
1.36188
0.11921
-0.118844
-1.59108
1.59071
0.116782
-0.113135
-1.55618
1.55254
0.108927
-0.10364
-1.27696
1.27167
0.0983973
-0.0923124
-1.05441
1.04832
0.0864958
-0.0798787
-0.874642
0.868025
0.0735897
-0.0664039
-0.725031
0.717846
0.0594694
-0.0514623
-0.584176
0.576169
0.0437323
-0.0348743
-0.426021
0.417163
0.0266269
-0.0178807
-0.252306
0.24356
0.0108375
-0.00481905
-0.103154
0.0971354
0.00137654
-0.012938
0.0115615
-0.0565325
0.0637255
-0.00719306
0.0365891
-0.0512212
-0.311985
0.326617
0.0650835
-0.0754447
-0.468707
0.479068
0.0840499
-0.0910829
-0.59891
0.605943
0.0990204
-0.106245
-0.719536
0.72676
0.113968
-0.120697
-0.848726
0.855454
0.127603
-0.133295
-0.997166
1.00286
0.138686
-0.142608
-1.16778
1.1717
0.145598
-0.146863
-1.36365
1.36491
0.1464
-0.143977
-1.58911
1.58669
0.139812
-0.134026
-1.54767
1.54189
0.127996
-0.120888
-1.26537
1.25827
0.114113
-0.106515
-1.04126
1.03366
0.099517
-0.0918779
-0.860294
0.852655
0.0849227
-0.0772544
-0.709554
0.701885
0.0699228
-0.0612071
-0.56768
0.558964
0.0524154
-0.0419551
-0.408307
0.397847
0.0319703
-0.0213367
-0.234997
0.224363
0.0127935
-0.00558908
-0.0913178
0.0841133
0.00155134
-0.0102814
0.00873004
-0.0705493
0.0743757
-0.0038264
0.0272198
-0.0398632
-0.344016
0.356659
0.0522094
-0.0616385
-0.494566
0.503995
0.0704369
-0.0794282
-0.616533
0.625524
0.0895676
-0.0985535
-0.733868
0.742854
0.108616
-0.117611
-0.861442
0.870438
0.127105
-0.135415
-1.00753
1.01584
0.143888
-0.150905
-1.17436
1.18137
0.157473
-0.162152
-1.36475
1.36943
0.165334
-0.165938
-1.58273
1.58333
0.163792
-0.159239
-1.53466
1.53011
0.153377
-0.145559
-1.25006
1.24224
0.137679
-0.127974
-1.0251
1.0154
0.118986
-0.109071
-0.843895
0.83398
0.10014
-0.0904009
-0.692783
0.683044
0.0808132
-0.0693531
-0.549289
0.537829
0.0578576
-0.0441082
-0.387013
0.373264
0.0316377
-0.0193618
-0.213831
0.201555
0.010516
-0.00407796
-0.0775666
0.0711286
0.000943877
-0.00744727
0.00650339
-0.0813825
0.0791937
0.00218877
0.00540959
-0.0134655
-0.372286
0.380342
0.0226002
-0.029773
-0.518178
0.525351
0.0377678
-0.04572
-0.636387
0.644339
0.0550916
-0.0635985
-0.751786
0.760293
0.072646
-0.0809089
-0.878999
0.887262
0.0895777
-0.0968173
-1.02386
1.0311
0.104336
-0.110139
-1.18812
1.19393
0.115406
-0.118731
-1.37359
1.37691
0.120137
-0.119148
-1.58274
1.58175
0.115425
-0.10936
-1.52424
1.51818
0.10213
-0.0930879
-1.23351
1.22447
0.0842963
-0.0741786
-1.00503
0.994914
0.0647075
-0.054274
-0.82245
0.812017
0.0451196
-0.0359712
-0.669896
0.660747
0.0282678
-0.0200766
-0.524062
0.51587
0.0128002
-0.00630494
-0.358777
0.352282
0.00222453
0.000373274
-0.189276
0.186678
-0.00129744
0.00111141
-0.0645286
0.0647146
-0.000508475
-0.00520407
0.00571255
-0.0821611
0.0791768
0.0029843
-0.00315698
-0.00117494
-0.391274
0.395606
0.00713891
-0.0126626
-0.536551
0.542075
0.0192599
-0.0262141
-0.653636
0.66059
0.0343339
-0.0417487
-0.768291
0.775706
0.049853
-0.0570753
-0.894909
0.902131
0.0643965
-0.0708465
-1.03817
1.04462
0.0773224
-0.0823844
-1.19928
1.20434
0.0864957
-0.0887779
-1.37951
1.38179
0.0894025
-0.0875926
-1.57991
1.5781
0.0832293
-0.0767228
-1.51134
1.50483
0.0693775
-0.0606371
-1.21519
1.20645
0.0519451
-0.0423561
-0.984421
0.974832
0.03349
-0.0238565
-0.801465
0.791832
0.0156524
-0.00745524
-0.649602
0.641404
0.000968086
0.00531712
-0.505014
0.498729
-0.00945635
0.0113567
-0.343518
0.341617
-0.0109389
0.00890775
-0.181665
0.183696
-0.00626265
0.00324326
-0.0639526
0.066972
-0.00109181
-0.00562986
0.00672167
-0.0806331
0.0778226
0.00281045
-0.00625828
0.00434224
-0.40363
0.405546
-0.000759204
-0.00355926
-0.550682
0.555001
0.00945455
-0.015337
-0.668051
0.673934
0.0223283
-0.0287562
-0.782835
0.789263
0.0357371
-0.0419706
-0.908956
0.91519
0.048667
-0.0541734
-1.0507
1.05621
0.0598797
-0.0638918
-1.20903
1.21304
0.0674155
-0.069273
-1.38387
1.38573
0.0694153
-0.0671566
-1.57588
1.57363
0.0629392
-0.056832
-1.49787
1.49176
0.0500076
-0.041663
-1.19759
1.18925
0.0338112
-0.0252307
-0.965077
0.956496
0.017199
-0.00880274
-0.782112
0.773716
0.00131367
0.005823
-0.631555
0.624418
-0.0112337
0.0155624
-0.490322
0.485993
-0.0177002
0.017445
-0.336138
0.336393
-0.0150507
0.0111748
-0.182904
0.18678
-0.00755324
0.00371
-0.0685979
0.0724412
-0.00117798
-0.00716277
0.00834075
-0.0790062
0.0765985
0.00240766
-0.00696192
0.00646095
-0.411823
0.412324
-0.00378657
0.000605786
-0.562306
0.565487
0.00436709
-0.00974019
-0.680279
0.685652
0.015668
-0.0213802
-0.795269
0.800981
0.027482
-0.0329507
-0.921106
0.926574
0.0387652
-0.043748
-1.06165
1.06663
0.0486641
-0.0524605
-1.21699
1.22078
0.0555685
-0.0571676
-1.3873
1.3889
0.0572083
-0.0550674
-1.5713
1.56916
0.051199
-0.0454864
-1.48517
1.47946
0.0393611
-0.0320647
-1.18112
1.17382
0.0251437
-0.0175003
-0.947844
0.940201
0.0106225
-0.00335333
-0.765169
0.7579
-0.00288557
0.00889263
-0.616303
0.610296
-0.0132477
0.0165231
-0.479172
0.475896
-0.0181102
0.0174577
-0.332874
0.333527
-0.0147147
0.0108373
-0.187514
0.191391
-0.00723562
0.00348443
-0.0745186
0.0782698
-0.00111776
-0.00886672
0.00998448
-0.0776265
0.0756014
0.00202502
-0.00657853
0.00642805
-0.417426
0.417576
-0.00485551
0.00211965
-0.571361
0.574097
0.00255678
-0.00717744
-0.690806
0.695427
0.0123451
-0.0173808
-0.806131
0.811167
0.0228799
-0.0278422
-0.931822
0.936784
0.0332559
-0.0377125
-1.07141
1.07587
0.0422512
-0.0457894
-1.22438
1.22791
0.0486651
-0.0501707
-1.39033
1.39184
0.0502469
-0.0486901
-1.56705
1.56549
0.0452121
-0.040281
-1.47351
1.46858
0.0348501
-0.0284117
-1.16661
1.16018
0.0225666
-0.0158202
-0.932686
0.92594
0.00986894
-0.00378414
-0.75068
0.744595
-0.00145431
0.00644245
-0.6037
0.598712
-0.010036
0.0127621
-0.470412
0.467686
-0.0137006
0.0131756
-0.331062
0.331587
-0.0111935
0.00807876
-0.191862
0.194976
-0.0052899
0.00258302
-0.0797716
0.0824785
-0.000843417
-0.0103625
0.0112059
-0.0766541
0.0750999
0.00155418
-0.00553092
0.00560043
-0.421625
0.421555
-0.00417655
0.00202246
-0.579447
0.581601
0.0022274
-0.00643474
-0.700047
0.704254
0.0113967
-0.0158058
-0.815982
0.820391
0.0207149
-0.0251928
-0.941823
0.9463
0.0304208
-0.034567
-1.08043
1.08458
0.0387191
-0.0421946
-1.23135
1.23482
0.0453839
-0.0469303
-1.39345
1.395
0.0473182
-0.0460139
-1.56366
1.56236
0.0432922
-0.0387346
-1.46359
1.45903
0.0341068
-0.0286014
-1.15379
1.14829
0.023388
-0.0176854
-0.919462
0.913759
0.0124898
-0.00708626
-0.738386
0.732982
0.0028248
0.00153623
-0.593133
0.588772
-0.00470855
0.00689081
-0.463129
0.460947
-0.00786231
0.00778912
-0.329403
0.329476
-0.00652864
0.00453631
-0.194707
0.196699
-0.00286751
0.00140189
-0.0829709
0.0844366
-0.000485297
-0.0112971
0.0117824
-0.0762154
0.0750077
0.00120763
-0.00436699
0.00448703
-0.42502
0.4249
-0.00307329
0.000990174
-0.586582
0.588666
0.00295007
-0.00675409
-0.708448
0.712252
0.0110742
-0.0153776
-0.824883
0.829187
0.0199841
-0.0246563
-0.950685
0.955357
0.0292491
-0.0332928
-1.08888
1.09292
0.0376679
-0.0410108
-1.23825
1.24159
0.0438738
-0.0459741
-1.39653
1.39863
0.0467377
-0.0459345
-1.5612
1.5604
0.043615
-0.0398742
-1.45476
1.45102
0.0357908
-0.0308758
-1.14257
1.13765
0.0263074
-0.0212211
-0.908057
0.902971
0.0166111
-0.0119465
-0.727692
0.723027
0.00786674
-0.00400264
-0.583935
0.58007
0.00114158
0.00118431
-0.456983
0.454657
-0.00235394
0.00259097
-0.326979
0.326742
-0.00233746
0.00169221
-0.195421
0.196066
-0.00111978
0.000604795
-0.0840394
0.0845543
-0.000263292
-0.0116061
0.0118694
-0.0763088
0.0753047
0.00100415
-0.00306748
0.00296584
-0.428165
0.428266
-0.00172768
-0.000415869
-0.593147
0.595291
0.00407788
-0.00778174
-0.716324
0.720028
0.0119634
-0.0159112
-0.833396
0.837344
0.0206774
-0.0246302
-0.959548
0.963501
0.0292493
-0.0331779
-1.09718
1.10111
0.0375199
-0.0411372
-1.24498
1.2486
0.044387
-0.0463904
-1.40056
1.40256
0.0476308
-0.0473615
-1.55958
1.55931
0.0458039
-0.0425027
-1.44722
1.44391
0.0389422
-0.0344822
-1.13285
1.12839
0.0303243
-0.0255787
-0.897672
0.892926
0.021418
-0.0169869
-0.718123
0.713692
0.0131879
-0.00946182
-0.575712
0.571985
0.00653807
-0.004257
-0.450881
0.4486
0.00267877
-0.00184914
-0.323707
0.322877
0.00115709
-0.000647131
-0.194089
0.193579
0.000259183
7.142e-05
-0.0832612
0.0829306
-0.000123811
-0.0114342
0.011558
-0.0766727
0.075979
0.000693698
-0.00192678
0.00144941
-0.43149
0.431968
-0.000396541
-0.00202768
-0.598911
0.601335
0.00531621
-0.00889525
-0.723732
0.727311
0.0129317
-0.0170315
-0.841249
0.845349
0.0212388
-0.0253842
-0.967721
0.971866
0.0300117
-0.0337855
-1.1055
1.10928
0.0382764
-0.0419146
-1.25207
1.25571
0.0453054
-0.0479132
-1.40502
1.40763
0.0497367
-0.0498444
-1.55913
1.55924
0.0486102
-0.0460481
-1.44079
1.43823
0.04302
-0.0388982
-1.12379
1.11967
0.0349465
-0.0306584
-0.88807
0.883782
0.0263646
-0.0222473
-0.708966
0.704849
0.0185604
-0.0147905
-0.56798
0.56421
0.0119135
-0.00923179
-0.444675
0.441994
0.00728688
-0.00561891
-0.319508
0.31784
0.00424366
-0.00273258
-0.190939
0.189428
0.00142259
-0.000412464
-0.0810089
0.0799988
6.37002e-06
-0.0108847
0.0108784
-0.0774369
0.0768874
0.000549501
-0.000982627
0.000597084
-0.43504
0.435426
0.00111061
-0.00334797
-0.604861
0.607098
0.00676466
-0.0102178
-0.73066
0.734113
0.014117
-0.0178487
-0.849202
0.852934
0.0222053
-0.0260734
-0.976073
0.979941
0.0306855
-0.0349197
-1.11353
1.11777
0.0391057
-0.0431155
-1.25943
1.26344
0.0469817
-0.0497472
-1.41018
1.41295
0.0520148
-0.0529587
-1.55959
1.56054
0.0522123
-0.0502814
-1.43554
1.43361
0.0474389
-0.043703
-1.11553
1.11179
0.0400634
-0.0358249
-0.879029
0.874791
0.0317759
-0.027635
-0.700177
0.696036
0.0239467
-0.0200328
-0.560037
0.556123
0.0168667
-0.0138899
-0.438092
0.435115
0.0112808
-0.00889291
-0.313972
0.311584
0.00673698
-0.00441582
-0.186042
0.183721
0.00249807
-0.000931718
-0.0776158
0.0760494
0.000171376
-0.0101038
0.00993244
-0.0784433
0.0780621
0.000381208
-2.19797e-05
-0.00062667
-0.438682
0.439331
0.00223243
-0.00472311
-0.610413
0.612904
0.008045
-0.0113417
-0.737362
0.740659
0.0153262
-0.0189242
-0.856703
0.860301
0.0231495
-0.0271565
-0.984322
0.988329
0.0316983
-0.035924
-1.1219
1.12612
0.0403595
-0.0444312
-1.26741
1.27148
0.0485271
-0.0520755
-1.41603
1.41958
0.0548412
-0.0561327
-1.56145
1.56275
0.0561079
-0.0545109
-1.43157
1.42997
0.0521926
-0.0489107
-1.10794
1.10466
0.0452492
-0.0411082
-0.870196
0.866055
0.0371129
-0.0328099
-0.691457
0.687154