/*--------------------------------*- C++ -*----------------------------------*\
| =========                 |                                                 |
| \\      /  F ield         | OpenFOAM: The Open Source CFD Toolbox           |
|  \\    /   O peration     | Version:  2112                                  |
|   \\  /    A nd           | Website:  www.openfoam.com                      |
|    \\/     M anipulation  |                                                 |
\*---------------------------------------------------------------------------*/
FoamFile
{
    version     2.0;
    format      ascii;
    arch        "LSB;label=32;scalar=64";
    class       volVectorField;
    location    "27.5";
    object      U;
}
// * * * * * * * * * * * * * * * * * * * * * * * * * * * * * * * * * * * * * //

dimensions      [0 1 -1 0 0 0 0];

internalField   nonuniform List<vector> 
8800
(
(0.980152 -0.0915211 0)
(1.00234 -0.058724 0)
(0.999609 -0.032124 0)
(0.999997 -0.0165141 0)
(1.00005 -0.0088249 0)
(1.00002 -0.00506857 0)
(1.00001 -0.00297068 0)
(1 -0.00168641 0)
(1 -0.00081103 0)
(1.00005 -0.000123763 0)
(1 0.000567286 0)
(1.00001 0.00132587 0)
(1.00001 0.00235812 0)
(1.00002 0.00396787 0)
(1.00004 0.00672103 0)
(1.00005 0.0120323 0)
(0.999883 0.0230857 0)
(0.999077 0.0431532 0)
(1.00722 0.0790286 0)
(0.775024 0.0478396 0)
(0.358981 -0.0147487 0)
(1.04649 -0.0724907 0)
(1.08849 -0.0660281 0)
(1.04947 -0.0509219 0)
(1.02553 -0.0377021 0)
(1.01267 -0.0258948 0)
(1.00648 -0.0167053 0)
(1.00357 -0.010239 0)
(1.00216 -0.00564465 0)
(1.00151 -0.00209533 0)
(1.00139 0.00107742 0)
(1.00175 0.00436384 0)
(1.00271 0.00826704 0)
(1.00473 0.0136112 0)
(1.00897 0.0213091 0)
(1.01799 0.0318088 0)
(1.0359 0.0445976 0)
(1.06752 0.0580592 0)
(1.09475 0.0699589 0)
(0.845717 0.055495 0)
(0.217769 -0.00138063 0)
(1.07568 -0.0506546 0)
(1.09942 -0.0489408 0)
(1.06436 -0.0400243 0)
(1.03981 -0.0325555 0)
(1.02368 -0.0253334 0)
(1.01391 -0.0181506 0)
(1.00844 -0.0116028 0)
(1.0056 -0.00592295 0)
(1.00446 -0.000685655 0)
(1.00479 0.00439763 0)
(1.00665 0.0096725 0)
(1.01058 0.0156457 0)
(1.0179 0.0224187 0)
(1.03053 0.0295506 0)
(1.05057 0.0366726 0)
(1.08019 0.0444786 0)
(1.10582 0.0518319 0)
(0.943486 0.0409581 0)
(0.21733 0.00139833 0)
(0.176631 -0.000628076 0)
(1.0194 -0.0354551 0)
(1.10573 -0.0414029 0)
(1.07796 -0.0363867 0)
(1.05235 -0.0303392 0)
(1.03505 -0.0244757 0)
(1.02319 -0.0187285 0)
(1.01542 -0.0128124 0)
(1.01086 -0.00680374 0)
(1.00887 -0.000663571 0)
(1.00943 0.00541218 0)
(1.01253 0.0113073 0)
(1.01848 0.0170949 0)
(1.02809 0.0227057 0)
(1.04234 0.0282848 0)
(1.06326 0.034101 0)
(1.09411 0.0400316 0)
(1.09475 0.0416105 0)
(0.830717 0.0226994 0)
(0.175887 0.000642476 0)
(0.154738 -0.000461398 0)
(0.958202 -0.0256517 0)
(1.10437 -0.0350658 0)
(1.08798 -0.0326348 0)
(1.06106 -0.0281575 0)
(1.04297 -0.0232257 0)
(1.0306 -0.0179968 0)
(1.02203 -0.0125586 0)
(1.01652 -0.00677303 0)
(1.01391 -0.00043686 0)
(1.01461 0.00593988 0)
(1.01848 0.01177 0)
(1.02529 0.017103 0)
(1.03545 0.02216 0)
(1.05023 0.027024 0)
(1.07223 0.0314909 0)
(1.10134 0.0354027 0)
(1.07026 0.0336932 0)
(0.743524 0.0143335 0)
(0.153628 0.000477672 0)
(0.140096 -0.000333175 0)
(0.901307 -0.0192527 0)
(1.09681 -0.0301147 0)
(1.09609 -0.0292119 0)
(1.06869 -0.0254085 0)
(1.04976 -0.0213671 0)
(1.03678 -0.0168232 0)
(1.02783 -0.0117632 0)
(1.02194 -0.00621629 0)
(1.01904 -3.14391e-05 0)
(1.01975 0.00620048 0)
(1.02385 0.0117719 0)
(1.03092 0.0167323 0)
(1.04147 0.0211917 0)
(1.05694 0.0251534 0)
(1.07986 0.0287398 0)
(1.10385 0.0315648 0)
(1.03899 0.0277254 0)
(0.677415 0.0101373 0)
(0.138538 0.000352487 0)
(0.129436 -0.000250153 0)
(0.851683 -0.0147736 0)
(1.08445 -0.0258912 0)
(1.1017 -0.0262772 0)
(1.07542 -0.0230436 0)
(1.05595 -0.0194707 0)
(1.04251 -0.0154128 0)
(1.03316 -0.0107286 0)
(1.02698 -0.00543684 0)
(1.02384 0.00047861 0)
(1.0245 0.00640551 0)
(1.02868 0.0116423 0)
(1.03597 0.0161986 0)
(1.04687 0.0201315 0)
(1.06277 0.0235344 0)
(1.08614 0.0265878 0)
(1.10332 0.0284518 0)
(1.00507 0.0229676 0)
(0.626411 0.00765957 0)
(0.127333 0.000273854 0)
(0.121383 -0.000191067 0)
(0.809702 -0.0114934 0)
(1.06923 -0.0221066 0)
(1.10501 -0.0233803 0)
(1.08138 -0.0205707 0)
(1.06152 -0.0172862 0)
(1.04782 -0.0136385 0)
(1.03816 -0.00940887 0)
(1.03169 -0.00450655 0)
(1.02837 0.001106 0)
(1.02889 0.00671499 0)
(1.03308 0.0115088 0)
(1.04052 0.0155077 0)
(1.05159 0.0188677 0)
(1.06774 0.0218138 0)
(1.09147 0.0245727 0)
(1.10003 0.0256378 0)
(0.971225 0.019131 0)
(0.586126 0.00600435 0)
(0.118619 0.000220112 0)
(0.115239 -0.000144574 0)
(0.774754 -0.00896221 0)
(1.05271 -0.0186902 0)
(1.10731 -0.0206917 0)
(1.08704 -0.0182664 0)
(1.06667 -0.0151791 0)
(1.05269 -0.0117946 0)
(1.04287 -0.00785335 0)
(1.0362 -0.00329538 0)
(1.03264 0.00188813 0)
(1.03302 0.0069975 0)
(1.03716 0.0112973 0)
(1.04456 0.0148181 0)
(1.05568 0.0177658 0)
(1.07219 0.0203707 0)
(1.09579 0.0228233 0)
(1.09434 0.0231316 0)
(0.938957 0.0159904 0)
(0.553727 0.00480425 0)
(0.11167 0.000180041 0)
(0.110571 -0.000108446 0)
(0.746078 -0.0069275 0)
(1.03587 -0.0155039 0)
(1.1084 -0.0180275 0)
(1.09214 -0.0160866 0)
(1.07148 -0.0132631 0)
(1.05726 -0.0100299 0)
(1.04726 -0.00626252 0)
(1.04039 -0.00200096 0)
(1.03658 0.00279396 0)
(1.03677 0.00746172 0)
(1.04078 0.0112757 0)
(1.0481 0.01438 0)
(1.05924 0.0170079 0)
(1.07602 0.0192695 0)
(1.09872 0.0212329 0)
(1.08643 0.0207639 0)
(0.909062 0.0133947 0)
(0.527325 0.00390338 0)
(0.106022 0.000152354 0)
(0.107117 -7.60948e-05 0)
(0.72308 -0.00519624 0)
(1.01991 -0.012472 0)
(1.10858 -0.0151651 0)
(1.09684 -0.0135078 0)
(1.07606 -0.010835 0)
(1.06156 -0.00787209 0)
(1.05131 -0.00440764 0)
(1.04425 -0.000476285 0)
(1.04024 0.00390995 0)
(1.04013 0.00809464 0)
(1.04387 0.0113979 0)
(1.05111 0.0139892 0)
(1.06231 0.0160643 0)
(1.07926 0.0179011 0)
(1.10025 0.0194795 0)
(1.07705 0.018439 0)
(0.882081 0.0111966 0)
(0.505701 0.00318745 0)
(0.101368 0.000130115 0)
(0.104718 -4.82275e-05 0)
(0.705271 -0.00366265 0)
(1.00555 -0.00957427 0)
(1.10824 -0.0122471 0)
(1.10129 -0.0108087 0)
(1.08022 -0.00831019 0)
(1.06534 -0.0056199 0)
(1.05487 -0.00243455 0)
(1.04753 0.0012202 0)
(1.04321 0.00524379 0)
(1.04275 0.00895025 0)
(1.04625 0.0117409 0)
(1.05331 0.0137176 0)
(1.06454 0.0152116 0)
(1.08185 0.0166328 0)
(1.10094 0.0178503 0)
(1.06683 0.0162858 0)
(0.858115 0.00932817 0)
(0.487972 0.0026204 0)
(0.0974884 0.000116432 0)
(0.103251 -2.27414e-05 0)
(0.69239 -0.0022238 0)
(0.993272 -0.00669111 0)
(1.10731 -0.00928794 0)
(1.1052 -0.00831942 0)
(1.08424 -0.00609588 0)
(1.06919 -0.00339419 0)
(1.05862 -0.000228173 0)
(1.0511 0.00323534 0)
(1.04638 0.00688067 0)
(1.04553 0.0100839 0)
(1.04862 0.0123666 0)
(1.05534 0.014011 0)
(1.06637 0.0152211 0)
(1.08368 0.0160862 0)
(1.1005 0.016537 0)
(1.05581 0.0142087 0)
(0.837222 0.00767349 0)
(0.473565 0.00214802 0)
(0.0941969 0.000107532 0)
(0.102737 3.18212e-06 0)
(0.68422 -0.000830671 0)
(0.983572 -0.00380458 0)
(1.10576 -0.0059535 0)
(1.10826 -0.00520024 0)
(1.08794 -0.00318453 0)
(1.07267 -0.000605766 0)
(1.06173 0.00236435 0)
(1.0538 0.00556831 0)
(1.04864 0.00889569 0)
(1.04724 0.0116493 0)
(1.04989 0.0132972 0)
(1.05639 0.0141719 0)
(1.0674 0.0146922 0)
(1.08451 0.0150213 0)
(1.09844 0.0149745 0)
(1.04431 0.0121926 0)
(0.819344 0.00624233 0)
(0.46202 0.00174704 0)
(0.0914243 9.54914e-05 0)
(0.103185 5.11982e-05 0)
(0.68048 0.000345454 0)
(0.976936 -0.00117853 0)
(1.1047 -0.00266725 0)
(1.11118 -0.00184845 0)
(1.09146 4.25778e-05 0)
(1.07609 0.0024556 0)
(1.06498 0.00527274 0)
(1.05671 0.00831923 0)
(1.05102 0.0113548 0)
(1.04892 0.0136112 0)
(1.05093 0.0147239 0)
(1.05689 0.0150263 0)
(1.06747 0.0148828 0)
(1.08418 0.0146086 0)
(1.09555 0.0139217 0)
(1.03305 0.0107616 0)
(0.804116 0.00529382 0)
(0.452666 0.00151722 0)
(0.0891065 8.36234e-05 0)
(0.104484 6.78888e-05 0)
(0.680516 0.00125334 0)
(0.973168 0.000917078 0)
(1.10429 1.27364e-05 0)
(1.1141 0.000850836 0)
(1.09484 0.00271827 0)
(1.07931 0.00522779 0)
(1.06803 0.00816291 0)
(1.05941 0.0113492 0)
(1.05304 0.0143514 0)
(1.05011 0.0163381 0)
(1.05132 0.0170575 0)
(1.0566 0.0168339 0)
(1.06674 0.0160923 0)
(1.08314 0.0153168 0)
(1.09148 0.0140056 0)
(1.02154 0.0102417 0)
(0.790573 0.00505826 0)
(0.444205 0.0015449 0)
(0.0869276 8.48309e-05 0)
(0.106417 9.59177e-05 0)
(0.683282 0.00197977 0)
(0.972169 0.00278488 0)
(1.10437 0.00254933 0)
(1.11702 0.00340245 0)
(1.09836 0.00538137 0)
(1.08281 0.00827282 0)
(1.07132 0.0116329 0)
(1.06213 0.0150688 0)
(1.05483 0.0180775 0)
(1.05092 0.0197816 0)
(1.05117 0.0199998 0)
(1.0556 0.0192775 0)
(1.0651 0.0181328 0)
(1.08097 0.0168109 0)
(1.08607 0.0147485 0)
(1.00971 0.0105037 0)
(0.777716 0.0054351 0)
(0.435395 0.00175821 0)
(0.0845631 9.71474e-05 0)
(0.109013 0.000124805 0)
(0.688761 0.00272357 0)
(0.974033 0.00442858 0)
(1.10565 0.00531732 0)
(1.12021 0.00663628 0)
(1.1025 0.00904675 0)
(1.08699 0.0124606 0)
(1.07505 0.0162114 0)
(1.06509 0.0198163 0)
(1.05668 0.0227184 0)
(1.05145 0.023975 0)
(1.05056 0.0235697 0)
(1.0541 0.0222359 0)
(1.0629 0.0205207 0)
(1.07779 0.0186026 0)
(1.07956 0.0159988 0)
(0.997728 0.0115081 0)
(0.764398 0.00626639 0)
(0.425339 0.00207626 0)
(0.0817825 0.000116529 0)
(0.112378 0.000159094 0)
(0.696649 0.00359086 0)
(0.978825 0.00618531 0)
(1.10934 0.00819377 0)
(1.12474 0.0105706 0)
(1.1075 0.0138546 0)
(1.09166 0.0178577 0)
(1.07895 0.0219773 0)
(1.06787 0.025723 0)
(1.05807 0.028441 0)
(1.05128 0.0291123 0)
(1.04916 0.0279187 0)
(1.05177 0.0258586 0)
(1.05973 0.0234962 0)
(1.07365 0.0210394 0)
(1.07247 0.0180805 0)
(0.985267 0.0133444 0)
(0.749326 0.00738665 0)
(0.413519 0.00247088 0)
(0.0784539 0.000143019 0)
(0.116732 0.000208694 0)
(0.707307 0.00480041 0)
(0.986174 0.00832656 0)
(1.11555 0.0111716 0)
(1.1313 0.0144813 0)
(1.11372 0.0187588 0)
(1.09709 0.0235913 0)
(1.0833 0.02834 0)
(1.07086 0.0325865 0)
(1.05931 0.035468 0)
(1.05062 0.0358107 0)
(1.04696 0.0339134 0)
(1.04858 0.030881 0)
(1.05593 0.0278633 0)
(1.06886 0.0249897 0)
(1.06467 0.0216555 0)
(0.970843 0.0158517 0)
(0.731592 0.00861002 0)
(0.399721 0.00289516 0)
(0.0744849 0.000170678 0)
(0.122431 0.000277918 0)
(0.721643 0.00646099 0)
(0.995788 0.0112254 0)
(1.12346 0.0145678 0)
(1.13942 0.0183507 0)
(1.12135 0.0235255 0)
(1.10356 0.0293648 0)
(1.08846 0.0352126 0)
(1.07435 0.0405113 0)
(1.06063 0.0441417 0)
(1.04969 0.0447373 0)
(1.04411 0.0426504 0)
(1.04423 0.0391615 0)
(1.05091 0.0351607 0)
(1.06315 0.0311928 0)
(1.05454 0.0264409 0)
(0.952591 0.0186353 0)
(0.711076 0.00995274 0)
(0.383821 0.00338908 0)
(0.069827 0.000199922 0)
(0.129982 0.000382357 0)
(0.740948 0.00883145 0)
(1.00833 0.0153944 0)
(1.13234 0.0193997 0)
(1.14851 0.0233363 0)
(1.13034 0.0292316 0)
(1.11158 0.036235 0)
(1.09501 0.0436091 0)
(1.07882 0.0502793 0)
(1.06243 0.0548526 0)
(1.04885 0.0557635 0)
(1.04105 0.0535371 0)
(1.03926 0.0496341 0)
(1.04433 0.0448742 0)
(1.05426 0.0393493 0)
(1.03936 0.0316725 0)
(0.930068 0.0214419 0)
(0.687941 0.0115502 0)
(0.365486 0.00397858 0)
(0.0643867 0.000231072 0)
(0.140234 0.000546974 0)
(0.766999 0.0122034 0)
(1.02576 0.0212423 0)
(1.14265 0.0266347 0)
(1.15842 0.0310576 0)
(1.14071 0.0378883 0)
(1.12151 0.046363 0)
(1.10312 0.0552545 0)
(1.08419 0.0630131 0)
(1.06454 0.0680244 0)
(1.04783 0.0686013 0)
(1.03745 0.0655948 0)
(1.0333 0.0606223 0)
(1.03577 0.0544867 0)
(1.04111 0.0467025 0)
(1.01888 0.0365051 0)
(0.904368 0.0246317 0)
(0.66186 0.0135869 0)
(0.344074 0.0047043 0)
(0.05806 0.000265962 0)
(0.154453 0.000815685 0)
(0.801943 0.0172053 0)
(1.05044 0.0294886 0)
(1.15646 0.0371695 0)
(1.17008 0.0433528 0)
(1.15326 0.0518537 0)
(1.1332 0.0618356 0)
(1.11225 0.0716897 0)
(1.08981 0.0797059 0)
(1.06626 0.0840855 0)
(1.0459 0.0832203 0)
(1.03248 0.0783997 0)
(1.02551 0.0714646 0)
(1.02429 0.0632409 0)
(1.02389 0.0533712 0)
(0.995184 0.041598 0)
(0.876444 0.0287316 0)
(0.63203 0.016164 0)
(0.318903 0.00553683 0)
(0.0507551 0.000298388 0)
(0.174839 0.0012862 0)
(0.848937 0.0250394 0)
(1.08516 0.0415731 0)
(1.17661 0.0526155 0)
(1.18576 0.0620058 0)
(1.16814 0.0726724 0)
(1.14598 0.0838249 0)
(1.12146 0.093808 0)
(1.09474 0.100945 0)
(1.06662 0.103385 0)
(1.04215 0.09986 0)
(1.02526 0.0922699 0)
(1.01504 0.0827656 0)
(1.00974 0.0722095 0)
(1.00405 0.0607533 0)
(0.969797 0.0481435 0)
(0.845714 0.034149 0)
(0.597157 0.0193784 0)
(0.289445 0.00649643 0)
(0.0424799 0.00032703 0)
(0.204784 0.0023503 0)
(0.913574 0.038571 0)
(1.13285 0.0611928 0)
(1.20453 0.0756253 0)
(1.20649 0.0890261 0)
(1.18508 0.101609 0)
(1.1589 0.113082 0)
(1.12966 0.122025 0)
(1.09791 0.126994 0)
(1.06473 0.126221 0)
(1.03583 0.11902 0)
(1.0153 0.108069 0)
(1.00166 0.0957523 0)
(0.992564 0.0830194 0)
(0.98248 0.0703113 0)
(0.94268 0.0569442 0)
(0.810575 0.0410614 0)
(0.556118 0.0232298 0)
(0.255883 0.00759994 0)
(0.0334835 0.000346743 0)
(0.245975 0.00872352 3.87413e-20)
(0.999454 0.0659604 3.4039e-20)
(1.19059 0.0943902 -1.20006e-20)
(1.23894 0.111025 0)
(1.23015 0.127452 -3.12651e-34)
(1.2024 0.140213 4.58489e-21)
(1.17055 0.150461 -8.36679e-21)
(1.13566 0.157099 0)
(1.09836 0.158889 1.74188e-34)
(1.05965 0.15415 -1.05906e-20)
(1.02585 0.142821 0)
(1.00124 0.128383 -1.26657e-20)
(0.983804 0.113337 -3.74047e-20)
(0.970955 0.0988072 -1.76795e-20)
(0.956837 0.0853387 -5.3367e-21)
(0.910583 0.0713455 -3.17104e-21)
(0.766355 0.0523134 0)
(0.504921 0.0296386 2.22951e-21)
(0.218447 0.0104379 2.63588e-21)
(0.0253494 0.000905885 4.73229e-20)
(0.273607 0.0245399 2.6796e-20)
(1.06982 0.109153 5.07088e-22)
(1.23846 0.142244 3.14636e-21)
(1.2712 0.160491 0)
(1.25201 0.175846 -1.57094e-20)
(1.21755 0.187261 -1.79676e-20)
(1.17954 0.195617 -8.41237e-21)
(1.13856 0.199872 -3.03545e-20)
(1.09518 0.198642 0)
(1.05016 0.190276 4.52831e-20)
(1.01026 0.175206 4.51333e-20)
(0.980328 0.157704 1.34914e-20)
(0.958151 0.140324 4.93303e-20)
(0.940816 0.123998 6.93464e-20)
(0.921184 0.109016 0)
(0.868341 0.0933394 9.84616e-20)
(0.713871 0.0701033 1.41693e-19)
(0.453405 0.0414348 1.57351e-19)
(0.187398 0.0161753 -1.80361e-19)
(0.0191662 0.00166614 -3.38141e-21)
(0.272872 0.0399699 0)
(1.11342 0.165446 4.41053e-21)
(1.27226 0.201879 0)
(1.29625 0.21965 -1.96272e-20)
(1.26924 0.231793 0)
(1.22883 0.240074 -3.49999e-20)
(1.18499 0.245213 1.71421e-20)
(1.1382 0.24613 -6.08498e-20)
(1.08894 0.241365 -1.57351e-21)
(1.03793 0.22918 2.3464e-20)
(0.992412 0.210651 1.00037e-19)
(0.957723 0.190565 -3.09787e-22)
(0.931557 0.171533 -3.60521e-20)
(0.910721 0.154196 -6.60344e-20)
(0.887832 0.138342 7.84453e-20)
(0.83314 0.120928 -1.39428e-19)
(0.68417 0.0930764 -1.85208e-20)
(0.438492 0.0581337 0)
(0.190235 0.0249955 3.72591e-23)
(0.0216105 0.00303758 0)
(0.265667 0.0535267 4.7362e-20)
(1.13588 0.224765 -2.49402e-20)
(1.29376 0.26641 -2.14983e-20)
(1.31277 0.283432 9.05775e-21)
(1.28035 0.291903 -1.53473e-20)
(1.2353 0.296366 7.33141e-20)
(1.1866 0.297683 3.58004e-20)
(1.13477 0.294761 0)
(1.0803 0.286116 -1.16799e-19)
(1.02384 0.270035 0)
(0.973312 0.24814 -5.26014e-20)
(0.934592 0.225716 -6.54328e-20)
(0.905216 0.20524 -3.94973e-20)
(0.881834 0.187023 -4.82051e-20)
(0.857182 0.170293 0)
(0.804234 0.151505 0)
(0.667666 0.12055 -1.22179e-19)
(0.44167 0.0798183 2.41171e-20)
(0.204177 0.037145 -1.4166e-20)
(0.0270654 0.00525142 -1.65571e-20)
(0.257968 0.0656537 -1.17693e-20)
(1.14482 0.283825 0)
(1.30581 0.331878 4.08109e-20)
(1.3217 0.348449 2.471e-20)
(1.28545 0.353376 3.60601e-20)
(1.23691 0.353978 0)
(1.18436 0.351398 3.46645e-20)
(1.12834 0.344558 6.74058e-20)
(1.0694 0.331957 5.96355e-20)
(1.00826 0.31193 1.11476e-19)
(0.95343 0.286713 0)
(0.911369 0.262026 -1.41498e-19)
(0.879505 0.240132 -8.5564e-20)
(0.854201 0.221136 -5.06028e-20)
(0.828623 0.203919 3.12836e-19)
(0.778604 0.184104 3.75694e-20)
(0.655593 0.150514 1.77357e-19)
(0.448658 0.10355 -8.42811e-19)
(0.218562 0.0511706 5.00466e-19)
(0.0324349 0.00797209 -6.03191e-19)
(0.250991 0.0766501 3.48302e-21)
(1.1453 0.340742 2.02062e-21)
(1.31088 0.396752 -3.54259e-21)
(1.3246 0.412888 -2.23189e-20)
(1.28552 0.414513 -2.88276e-20)
(1.23428 0.411442 1.70843e-21)
(1.17865 0.405126 -3.76632e-20)
(1.11918 0.394473 6.94966e-20)
(1.05647 0.378007 -1.2855e-19)
(0.991334 0.354083 0)
(0.932918 0.325529 -6.39158e-20)
(0.88815 0.298525 -1.56867e-21)
(0.854348 0.27517 -9.37413e-20)
(0.827713 0.255364 0)
(0.801785 0.237676 -6.77724e-20)
(0.754871 0.216889 -1.62125e-19)
(0.643586 0.18142 4.37401e-19)
(0.451959 0.128106 -4.31704e-19)
(0.228191 0.0655208 6.13629e-19)
(0.0364316 0.0107913 -6.37679e-19)
(0.245346 0.0868935 -4.11402e-22)
(1.14059 0.394929 2.06355e-21)
(1.31083 0.459845 -4.96897e-21)
(1.32283 0.475683 7.61686e-21)
(1.28163 0.47433 -1.41965e-20)
(1.22826 0.467853 0)
(1.17011 0.458036 -3.42587e-20)
(1.10776 0.443774 -7.25304e-20)
(1.04183 0.423597 -6.65647e-20)
(0.973222 0.395864 0)
(0.911769 0.363931 -6.60062e-20)
(0.86486 0.334508 -8.23522e-20)
(0.829633 0.309552 1.016e-19)
(0.802181 0.288722 -6.19595e-20)
(0.776358 0.27039 -2.95312e-19)
(0.732326 0.24878 1.7753e-19)
(0.629994 0.211235 5.39279e-20)
(0.44954 0.151307 0)
(0.230817 0.0784206 -5.90404e-19)
(0.0382338 0.0131839 -2.16767e-20)
(0.241019 0.0966913 3.60047e-21)
(1.13284 0.446241 -4.90716e-21)
(1.30687 0.520375 1.39217e-21)
(1.3175 0.53613 2.88415e-20)
(1.27466 0.532169 -4.95329e-20)
(1.21959 0.522645 6.5384e-20)
(1.15937 0.509604 7.37113e-20)
(1.09457 0.491979 -1.15689e-19)
(1.02583 0.468292 4.17323e-20)
(0.954163 0.436856 -2.73773e-19)
(0.890008 0.401508 -7.49741e-20)
(0.841348 0.369447 0)
(0.805113 0.34266 1.10029e-19)
(0.777249 0.320569 1.31938e-19)
(0.751814 0.301238 1.58431e-19)
(0.710227 0.278514 -1.92202e-19)
(0.614301 0.238362 -5.71444e-20)
(0.441796 0.171365 6.73718e-20)
(0.22822 0.0887676 0)
(0.0382105 0.014925 -4.68961e-20)
(0.23784 0.106182 -6.07599e-20)
(1.12355 0.494788 3.24352e-20)
(1.30018 0.578055 2.53984e-22)
(1.30958 0.593927 1.52636e-20)
(1.26539 0.587686 -2.04972e-20)
(1.20894 0.575429 -3.97098e-21)
(1.14699 0.559479 -8.06457e-20)
(1.08007 0.538776 -4.1882e-20)
(1.00884 0.511804 -1.1558e-19)
(0.934382 0.476808 2.12816e-22)
(0.867778 0.438012 -2.33509e-19)
(0.817522 0.403144 1.98641e-19)
(0.780537 0.374156 -1.20647e-19)
(0.752484 0.350463 1.45208e-19)
(0.727499 0.329838 0)
(0.687809 0.305468 -1.03741e-19)
(0.596529 0.262172 -9.94926e-22)
(0.429508 0.188147 -2.92195e-19)
(0.221317 0.0964893 -4.30549e-20)
(0.0368684 0.0160114 0)
(0.235635 0.115478 0)
(1.11355 0.540771 3.79757e-20)
(1.29155 0.632789 1.18404e-20)
(1.29977 0.648924 -1.15718e-20)
(1.25445 0.640682 -2.79805e-20)
(1.19686 0.626004 0)
(1.13346 0.607447 -3.53605e-20)
(1.06469 0.583959 -1.18639e-21)
(0.991189 0.55397 2.47128e-19)
(0.914124 0.515591 -3.72851e-20)
(0.845182 0.473356 -1.68583e-19)
(0.793449 0.435486 1.02997e-19)
(0.755746 0.404079 -1.99932e-21)
(0.727579 0.378443 1.54074e-19)
(0.703022 0.356176 9.56213e-20)
(0.664768 0.329772 -2.24105e-19)
(0.576498 0.282535 2.67202e-19)
(0.413368 0.201469 7.91292e-20)
(0.210762 0.101618 3.26279e-19)
(0.0343741 0.016373 -8.7405e-19)
(0.234328 0.124689 -2.17248e-20)
(1.1034 0.584385 2.83311e-20)
(1.28173 0.684615 -1.84405e-20)
(1.28863 0.701101 4.14262e-21)
(1.24235 0.69106 0)
(1.18381 0.674243 -2.69855e-20)
(1.11916 0.653381 1.19394e-19)
(1.04875 0.627404 9.06189e-20)
(0.973174 0.594681 0)
(0.893608 0.553147 -5.37567e-19)
(0.822333 0.507517 4.54916e-19)
(0.76906 0.466515 0)
(0.730587 0.432404 1.40537e-19)
(0.702303 0.404526 -1.99311e-21)
(0.678116 0.380296 -3.04433e-19)
(0.640795 0.351414 1.19395e-19)
(0.554358 0.29955 0)
(0.39416 0.211173 4.26724e-19)
(0.197492 0.104259 0)
(0.0311503 0.0161707 -4.13151e-19)
(0.233701 0.133877 2.65796e-20)
(1.09347 0.625798 3.82746e-20)
(1.27101 0.733587 -1.80128e-20)
(1.27659 0.750446 0)
(1.2295 0.738813 -1.93796e-20)
(1.17017 0.72011 0)
(1.10444 0.697213 -1.15273e-19)
(1.03256 0.669041 -4.09641e-20)
(0.955048 0.633887 4.28579e-20)
(0.87303 0.58946 -2.65552e-19)
(0.799296 0.540544 4.67375e-20)
(0.744302 0.49631 0)
(0.704996 0.459269 -2.99746e-19)
(0.676519 0.428852 2.04878e-21)
(0.652577 0.402334 0)
(0.615689 0.370498 2.34843e-21)
(0.529959 0.313302 3.88445e-19)
(0.372083 0.217318 -3.69298e-19)
(0.182112 0.104461 1.08929e-19)
(0.0274296 0.0153861 0)
(0.23344 0.142882 0)
(1.08402 0.665067 4.7156e-20)
(1.25977 0.779856 2.85477e-20)
(1.26404 0.797009 -2.25966e-21)
(1.21624 0.78396 -3.46337e-21)
(1.15624 0.763606 -5.88476e-20)
(1.08958 0.738925 4.34805e-20)
(1.01637 0.70884 -4.90144e-20)
(0.937033 0.671556 1.91957e-19)
(0.852553 0.624547 -4.22432e-19)
(0.776218 0.572523 -3.29435e-21)
(0.719322 0.52502 -1.30731e-19)
(0.678917 0.484817 4.86153e-19)
(0.650126 0.451584 -2.42227e-21)
(0.626299 0.422468 -2.36182e-19)
(0.589363 0.38715 -4.24206e-19)
(0.50337 0.32389 0)
(0.347519 0.220097 0)
(0.164987 0.102227 1.17955e-19)
(0.0234179 0.0140638 -6.90445e-20)
(0.23373 0.151849 3.85132e-20)
(1.07498 0.702079 -1.08429e-19)
(1.24829 0.823499 -3.08849e-20)
(1.25124 0.840872 0)
(1.20282 0.826557 -1.55079e-21)
(1.14226 0.804754 -4.92734e-20)
(1.0748 0.778527 1.01766e-19)
(1.0004 0.746796 1.89475e-19)
(0.91932 0.707694 2.47569e-19)
(0.832395 0.658449 -3.43218e-19)
(0.753306 0.603573 -3.88156e-19)
(0.694154 0.552817 3.49171e-19)
(0.65236 0.509266 0)
(0.623054 0.472925 -1.07074e-19)
(0.599191 0.440836 -2.56112e-19)
(0.561748 0.401405 -3.04951e-19)
(0.474658 0.331171 -3.64234e-19)
(0.320701 0.219407 1.08001e-19)
(0.146323 0.0975076 -6.35084e-20)
(0.0190931 0.0122172 3.49584e-22)
(0.234039 0.160676 0)
(1.06657 0.737279 0)
(1.23675 0.864591 2.57872e-21)
(1.23838 0.882128 0)
(1.18944 0.866689 -3.51162e-21)
(1.12842 0.843612 2.9376e-20)
(1.06027 0.816045 0)
(0.984799 0.782923 2.18177e-20)
(0.9021 0.74231 4.09728e-19)
(0.81275 0.691197 -7.87571e-19)
(0.730692 0.633796 0)
(0.668906 0.579897 -2.24034e-19)
(0.625327 0.532839 -2.96089e-21)
(0.595233 0.493038 -2.42898e-21)
(0.57116 0.457501 2.73456e-19)
(0.532795 0.413197 -4.1947e-22)
(0.443903 0.335077 -7.85199e-19)
(0.291659 0.215069 2.32957e-19)
(0.126594 0.0904801 6.89045e-20)
(0.0147048 0.00999979 0)
(0.234356 0.169291 -1.57126e-19)
(1.05851 0.770763 -7.50057e-20)
(1.22524 0.903228 -9.57719e-20)
(1.22563 0.920877 8.96197e-20)
(1.17625 0.904421 -2.26572e-20)
(1.11486 0.88024 0)
(1.04614 0.851524 5.81391e-20)
(0.969724 0.817247 -4.88072e-20)
(0.885511 0.775421 3.80824e-21)
(0.793759 0.722818 5.80595e-20)
(0.708545 0.663279 4.99206e-19)
(0.643737 0.606457 -7.83388e-20)
(0.597867 0.55581 -2.98822e-19)
(0.566551 0.512144 -1.24946e-19)
(0.542039 0.47247 1.49385e-19)
(0.502443 0.422298 -2.89418e-22)
(0.411427 0.335316 2.12472e-19)
(0.261017 0.207092 -5.01905e-19)
(0.106496 0.0814953 5.94296e-19)
(0.0104338 0.00753575 8.6514e-20)
(0.234519 0.177585 6.02037e-20)
(1.05081 0.802593 -4.26596e-20)
(1.2139 0.939532 6.07192e-21)
(1.2131 0.957239 6.00449e-20)
(1.16336 0.939858 1.15116e-20)
(1.10169 0.914703 -4.59622e-20)
(1.03251 0.885013 1.53982e-20)
(0.955271 0.849787 -2.01464e-19)
(0.869661 0.807025 -4.45333e-19)
(0.775555 0.753314 -4.65261e-19)
(0.687056 0.692095 0)
(0.618808 0.632672 -3.43474e-19)
(0.570055 0.578486 4.30132e-19)
(0.536872 0.530521 0)
(0.511522 0.485716 -3.19588e-19)
(0.470512 0.428277 1.92779e-19)
(0.377454 0.331385 -2.28467e-19)
(0.229858 0.195525 -2.71164e-19)
(0.0869803 0.0710658 -4.79736e-19)
(0.00652831 0.00501768 -3.74059e-19)
(0.23496 0.185674 -6.8595e-20)
(1.04332 0.832747 4.56602e-20)
(1.20278 0.97358 1.04028e-19)
(1.20086 0.991299 8.90904e-20)
(1.15085 0.973086 -2.12828e-20)
(1.08899 0.947086 -1.88395e-20)
(1.01946 0.91656 5.20236e-20)
(0.941511 0.880584 -2.03921e-19)
(0.854624 0.837144 -2.6173e-19)
(0.758266 0.7827 4.82916e-19)
(0.666383 0.720286 1.08875e-18)
(0.594329 0.658696 0)
(0.542021 0.601161 0)
(0.506049 0.548568 -1.43815e-19)
(0.479078 0.497302 0)
(0.436501 0.430401 4.16016e-19)
(0.342307 0.322178 4.93487e-19)
(0.199669 0.180027 0)
(0.0694429 0.0597257 0)
(0.00323772 0.00269667 4.031e-19)
(0.235025 0.19328 7.85916e-20)
(1.03607 0.861226 6.32315e-20)
(1.19195 1.00549 7.5966e-20)
(1.18898 1.02318 -8.79817e-20)
(1.13879 1.00421 -3.02473e-20)
(1.07681 0.977461 1.13353e-20)
(1.00703 0.946228 -6.93635e-20)
(0.928496 0.90967 2.53053e-22)
(0.840471 0.865785 -4.91283e-21)
(0.741979 0.810965 -5.76534e-21)
(0.646694 0.747866 5.589e-19)
(0.570517 0.684625 0)
(0.513999 0.624127 4.33144e-19)
(0.47402 0.566837 3.05615e-19)
(0.443929 0.507625 7.47943e-19)
(0.399192 0.427888 2.23786e-19)
(0.305921 0.305466 -2.67531e-19)
(0.173248 0.158643 -1.5706e-19)
(0.0581982 0.0474339 0)
(0.00193177 0.00119907 4.34137e-19)
(0.235361 0.200842 -1.7849e-19)
(1.02904 0.888133 0)
(1.1814 1.03533 9.06527e-20)
(1.17749 1.05297 -7.56313e-20)
(1.12722 1.03331 4.38809e-20)
(1.06517 1.00591 1.99282e-21)
(0.995254 0.974074 1.25727e-19)
(0.916254 0.937083 -1.76177e-20)
(0.827233 0.892958 0)
(0.726758 0.838074 -5.26119e-19)
(0.628138 0.774814 -1.20646e-18)
(0.547608 0.71051 4.99297e-20)
(0.486326 0.647607 5.93309e-19)
(0.440917 0.585991 0)
(0.405231 0.517614 5.03679e-19)
(0.356252 0.420825 0)
(0.265436 0.277983 0)
(0.152512 0.12207 -1.71221e-19)
(0.0707153 0.0229045 0)
(0.0256888 0.0104132 1.16563e-19)
(0.235306 0.207767 -2.00489e-19)
(1.02219 0.913795 0)
(1.17115 1.0633 1.51795e-19)
(1.16636 1.0809 0)
(1.11609 1.06065 -2.75684e-20)
(1.05403 1.03272 0)
(0.984072 1.0004 4.91149e-21)
(0.904688 0.963156 2.71534e-20)
(0.814793 0.919023 3.23076e-20)
(0.712459 0.864416 -5.72998e-19)
(0.610583 0.801556 3.5816e-20)
(0.525472 0.73691 4.01391e-19)
(0.458826 0.672187 5.76944e-19)
(0.406334 0.607072 7.83632e-20)
(0.361476 0.529142 3.93656e-19)
(0.30368 0.41158 0)
(0.209133 0.24031 5.69073e-19)
(0.10826 0.0595253 -3.33858e-19)
(0.0470117 0.046949 3.86661e-19)
(-0.0678238 0.415582 -4.55496e-19)
(0.235235 0.214451 1.66516e-19)
(1.01529 0.938046 2.54954e-19)
(1.16109 1.08972 0)
(1.15547 1.10737 5.091e-21)
(1.10524 1.08678 8.26622e-20)
(1.04314 1.05855 -4.40563e-20)
(0.97319 1.026 3.82826e-20)
(0.893418 0.988816 0)
(0.802658 0.945056 2.09914e-19)
(0.698463 0.89128 -2.94123e-20)
(0.593181 0.829548 0)
(0.503043 0.765588 0)
(0.430229 0.699668 5.1296e-19)
(0.36905 0.631997 -2.41763e-19)
(0.310155 0.545675 -3.95874e-19)
(0.23686 0.406411 0)
(0.119858 0.221049 2.8767e-19)
(0.0125284 0.427856 -3.33302e-19)
(0.0409451 1.84079 -1.82171e-19)
(0.0718618 2.78527 -2.32722e-19)
(0.235014 0.220274 -1.25528e-19)
(1.00858 0.961036 -3.28475e-19)
(1.15124 1.11458 9.10697e-20)
(1.1448 1.13226 7.55292e-20)
(1.09472 1.11148 0)
(1.03255 1.08311 -4.2254e-20)
(0.962786 1.05056 4.45571e-20)
(0.882613 1.01364 -1.25758e-20)
(0.791072 0.970542 3.12396e-20)
(0.685122 0.918045 5.39383e-19)
(0.576511 0.85809 5.99174e-19)
(0.481288 0.796032 4.41438e-19)
(0.40168 0.729669 5.11574e-19)
(0.331331 0.659139 -5.60652e-19)
(0.257501 0.570124 -5.92507e-19)
(0.159019 0.432253 0)
(0.0604193 0.81342 0)
(0.117173 2.51506 1.57022e-19)
(0.119127 3.18037 0)
(0.121897 3.38015 3.77259e-19)
(0.237269 0.225653 0)
(1.0026 0.982909 0)
(1.14138 1.13774 0)
(1.13412 1.15533 2.29066e-20)
(1.08421 1.13454 7.71844e-20)
(1.02203 1.10627 -4.4689e-20)
(0.952756 1.07397 2.54268e-20)
(0.872229 1.03751 -1.19412e-20)
(0.78 0.99535 2.54553e-19)
(0.672462 0.944568 -1.00806e-20)
(0.560719 0.887059 1.17144e-18)
(0.460576 0.82803 -5.06703e-20)
(0.373685 0.762948 6.1147e-20)
(0.2953 0.6854 8.0267e-20)
(0.200797 0.602574 1.91661e-22)
(0.122589 0.937601 1.80606e-21)
(0.16101 2.65837 -8.05889e-19)
(0.17548 3.27899 -3.06294e-19)
(0.160856 3.4248 1.57021e-19)
(0.144551 3.4493 -1.73277e-19)
(0.154853 0.1823 7.47324e-20)
(0.990884 1.00655 0)
(1.13128 1.15939 -1.87505e-19)
(1.12412 1.17713 -2.0567e-19)
(1.07446 1.15671 1.83371e-19)
(1.01248 1.12867 5.21367e-20)
(0.942999 1.09633 -2.1616e-20)
(0.862364 1.06057 1.19872e-19)
(0.769625 1.01961 -2.04413e-19)
(0.660813 0.970923 0)
(0.546283 0.916494 5.68631e-19)
(0.441567 0.861278 -3.54625e-19)
(0.347082 0.801847 0)
(0.262271 0.714369 7.40047e-20)
(0.177107 0.823557 1.75248e-19)
(0.176239 2.38851 -2.12621e-19)
(0.245636 3.31508 2.39819e-19)
(0.221783 3.44273 1.27951e-19)
(0.1844 3.46628 1.46e-19)
(0.159506 3.47744 2.26113e-19)
(0.279623 0.263041 -1.36143e-19)
(0.975064 1.01521 0)
(1.11282 1.18354 2.01821e-19)
(1.10997 1.20912 2.28446e-19)
(1.0587 1.18923 -2.04678e-19)
(0.996322 1.1617 -7.60341e-20)
(0.92612 1.13076 -3.26729e-22)
(0.845013 1.09615 9.47797e-21)
(0.751195 1.0573 1.87657e-19)
(0.640081 1.0124 4.484e-19)
(0.521213 0.964234 3.14894e-20)
(0.409456 0.916856 3.09738e-19)
(0.300412 0.869389 5.61517e-20)
(0.231132 0.976509 -7.15336e-20)
(0.251703 2.23894 -1.65717e-19)
(0.320839 3.31823 1.54783e-19)
(0.306463 3.47832 -1.68452e-19)
(0.267451 3.50193 -9.76296e-20)
(0.227438 3.53057 -7.46636e-20)
(0.171283 3.52315 -9.14804e-21)
(0.267029 0.259436 0)
(0.97224 1.03695 5.86599e-20)
(1.10487 1.20625 -4.17551e-20)
(1.10022 1.23181 -2.72379e-20)
(1.04889 1.21186 -1.42248e-19)
(0.986623 1.18456 7.88636e-20)
(0.916155 1.15377 8.59132e-21)
(0.835037 1.11994 8.05557e-21)
(0.741018 1.08254 -1.90954e-19)
(0.629177 1.04041 -1.4342e-20)
(0.508538 0.99696 -1.00495e-18)
(0.393911 0.955858 4.3927e-20)
(0.287798 0.933601 -5.25961e-20)
(0.27235 1.42505 -6.53904e-20)
(0.357322 3.04607 1.81003e-20)
(0.38756 3.4727 9.11549e-22)
(0.342838 3.54003 2.16038e-19)
(0.303228 3.56485 9.64875e-20)
(0.250933 3.58943 -5.9721e-21)
(0.186396 3.58477 -3.37993e-20)
(0.250238 0.257343 1.49251e-19)
(0.967693 1.0612 4.01136e-19)
(1.09637 1.23094 -1.20103e-19)
(1.08996 1.25591 -1.03348e-19)
(1.0386 1.23577 0)
(0.976507 1.20848 1.4093e-19)
(0.906077 1.17792 2.74398e-20)
(0.825232 1.14484 6.53487e-21)
(0.731338 1.10894 -2.13359e-20)
(0.619276 1.06975 -3.89963e-19)
(0.497622 1.03125 -4.55632e-19)
(0.381993 0.997326 -3.56988e-19)
(0.291882 1.05151 -3.88414e-19)
(0.344268 2.06647 4.05105e-19)
(0.449397 3.36506 3.25813e-19)
(0.436774 3.5393 0)
(0.385225 3.58729 0)
(0.346432 3.63151 -6.23849e-22)
(0.285276 3.698 0)
(0.198947 3.66837 2.11103e-20)
(0.238883 0.258488 -2.24235e-19)
(0.961166 1.0864 -3.41405e-19)
(1.08644 1.25672 0)
(1.07843 1.2808 5.98605e-21)
(1.02712 1.26025 -1.54074e-19)
(0.965319 1.23283 2.27696e-19)
(0.895262 1.2025 2.65613e-20)
(0.8149 1.17005 1.82298e-21)
(0.721385 1.13557 -1.2417e-19)
(0.609502 1.09924 1.87553e-20)
(0.487603 1.0658 0)
(0.373258 1.04134 0)
(0.318999 1.26245 -3.49566e-19)