# Field minima and maxima
# Time          	field           	min             	location(min)   	max             	location(max)   
0.001           	U               	(5.17602469e-29 0.00000000e+00 0.00000000e+00)	(5.00000000e-04 5.00000000e-01 5.00000000e-01)	(5.17602469e-29 0.00000000e+00 0.00000000e+00)	(5.00000000e-04 5.00000000e-01 5.00000000e-01)
0.001           	p               	1.00000000e-01	(5.29500000e-01 5.00000000e-01 5.00000000e-01)	1.00000000e+00	(4.63500000e-01 5.00000000e-01 5.00000000e-01)
0.001           	T               	2.78000000e-03	(5.25500000e-01 5.00000000e-01 5.00000000e-01)	3.51326782e-03	(5.00500000e-01 5.00000000e-01 5.00000000e-01)
0.002           	U               	(5.17602469e-29 0.00000000e+00 0.00000000e+00)	(5.00000000e-04 5.00000000e-01 5.00000000e-01)	(5.17602469e-29 0.00000000e+00 0.00000000e+00)	(5.00000000e-04 5.00000000e-01 5.00000000e-01)
0.002           	p               	1.00000000e-01	(9.42500000e-01 5.00000000e-01 5.00000000e-01)	1.00000000e+00	(4.64500000e-01 5.00000000e-01 5.00000000e-01)
0.002           	T               	2.78000000e-03	(5.29500000e-01 5.00000000e-01 5.00000000e-01)	3.48000000e-03	(1.85000000e-02 5.00000000e-01 5.00000000e-01)
0.003           	U               	(-1.37224293e-24 0.00000000e+00 0.00000000e+00)	(5.00000000e-04 5.00000000e-01 5.00000000e-01)	(-1.37224293e-24 0.00000000e+00 0.00000000e+00)	(5.00000000e-04 5.00000000e-01 5.00000000e-01)
0.003           	p               	1.00000000e-01	(9.72500000e-01 5.00000000e-01 5.00000000e-01)	1.00000000e+00	(1.99500000e-01 5.00000000e-01 5.00000000e-01)
0.003           	T               	2.78000000e-03	(5.97500000e-01 5.00000000e-01 5.00000000e-01)	3.54819419e-03	(5.03500000e-01 5.00000000e-01 5.00000000e-01)
0.004           	U               	(-1.37224293e-24 0.00000000e+00 0.00000000e+00)	(5.00000000e-04 5.00000000e-01 5.00000000e-01)	(-1.37224293e-24 0.00000000e+00 0.00000000e+00)	(5.00000000e-04 5.00000000e-01 5.00000000e-01)
0.004           	p               	1.00000000e-01	(6.83500000e-01 5.00000000e-01 5.00000000e-01)	1.00000000e+00	(4.50500000e-01 5.00000000e-01 5.00000000e-01)
0.004           	T               	2.65736625e-03	(5.00500000e-01 5.00000000e-01 5.00000000e-01)	3.61565454e-03	(5.05500000e-01 5.00000000e-01 5.00000000e-01)
0.005           	U               	(-2.33322939e-23 0.00000000e+00 0.00000000e+00)	(5.00000000e-04 5.00000000e-01 5.00000000e-01)	(-2.33322939e-23 0.00000000e+00 0.00000000e+00)	(5.00000000e-04 5.00000000e-01 5.00000000e-01)
0.005           	p               	1.00000000e-01	(9.38500000e-01 5.00000000e-01 5.00000000e-01)	1.00000000e+00	(3.60500000e-01 5.00000000e-01 5.00000000e-01)
0.005           	T               	2.60439578e-03	(5.00500000e-01 5.00000000e-01 5.00000000e-01)	3.67384672e-03	(5.06500000e-01 5.00000000e-01 5.00000000e-01)
0.006           	U               	(-2.33327080e-23 0.00000000e+00 0.00000000e+00)	(5.00000000e-04 5.00000000e-01 5.00000000e-01)	(-2.33327080e-23 0.00000000e+00 0.00000000e+00)	(5.00000000e-04 5.00000000e-01 5.00000000e-01)
0.006           	p               	1.00000000e-01	(9.38500000e-01 5.00000000e-01 5.00000000e-01)	1.00000000e+00	(1.86500000e-01 5.00000000e-01 5.00000000e-01)
0.006           	T               	2.58791812e-03	(5.00500000e-01 5.00000000e-01 5.00000000e-01)	3.70671621e-03	(5.07500000e-01 5.00000000e-01 5.00000000e-01)
0.007           	U               	(-2.68002779e-23 0.00000000e+00 0.00000000e+00)	(5.00000000e-04 5.00000000e-01 5.00000000e-01)	(-2.68002779e-23 0.00000000e+00 0.00000000e+00)	(5.00000000e-04 5.00000000e-01 5.00000000e-01)
0.007           	p               	1.00000000e-01	(5.62500000e-01 5.00000000e-01 5.00000000e-01)	1.00000000e+00	(4.47500000e-01 5.00000000e-01 5.00000000e-01)
0.007           	T               	2.56031124e-03	(5.02500000e-01 5.00000000e-01 5.00000000e-01)	3.72917833e-03	(5.09500000e-01 5.00000000e-01 5.00000000e-01)
0.008           	U               	(-2.68002779e-23 0.00000000e+00 0.00000000e+00)	(5.00000000e-04 5.00000000e-01 5.00000000e-01)	(-2.68002779e-23 0.00000000e+00 0.00000000e+00)	(5.00000000e-04 5.00000000e-01 5.00000000e-01)
0.008           	p               	1.00000000e-01	(9.46500000e-01 5.00000000e-01 5.00000000e-01)	1.00000000e+00	(2.05500000e-01 5.00000000e-01 5.00000000e-01)
0.008           	T               	2.54417335e-03	(5.02500000e-01 5.00000000e-01 5.00000000e-01)	3.75114657e-03	(5.10500000e-01 5.00000000e-01 5.00000000e-01)
0.009           	U               	(-2.68006920e-23 0.00000000e+00 0.00000000e+00)	(5.00000000e-04 5.00000000e-01 5.00000000e-01)	(-2.68006920e-23 0.00000000e+00 0.00000000e+00)	(5.00000000e-04 5.00000000e-01 5.00000000e-01)
0.009           	p               	1.00000000e-01	(9.16500000e-01 5.00000000e-01 5.00000000e-01)	1.00000000e+00	(3.90500000e-01 5.00000000e-01 5.00000000e-01)
0.009           	T               	2.52921486e-03	(5.02500000e-01 5.00000000e-01 5.00000000e-01)	3.77175854e-03	(5.11500000e-01 5.00000000e-01 5.00000000e-01)
0.01            	U               	(-2.68015201e-23 0.00000000e+00 0.00000000e+00)	(5.00000000e-04 5.00000000e-01 5.00000000e-01)	(-2.68015201e-23 0.00000000e+00 0.00000000e+00)	(5.00000000e-04 5.00000000e-01 5.00000000e-01)
0.01            	p               	1.00000000e-01	(9.82500000e-01 5.00000000e-01 5.00000000e-01)	1.00000000e+00	(4.33500000e-01 5.00000000e-01 5.00000000e-01)
0.01            	T               	2.52105145e-03	(5.02500000e-01 5.00000000e-01 5.00000000e-01)	3.79878859e-03	(5.13500000e-01 5.00000000e-01 5.00000000e-01)
0.011           	U               	(-2.68015201e-23 0.00000000e+00 0.00000000e+00)	(5.00000000e-04 5.00000000e-01 5.00000000e-01)	(-2.68015201e-23 0.00000000e+00 0.00000000e+00)	(5.00000000e-04 5.00000000e-01 5.00000000e-01)
0.011           	p               	1.00000000e-01	(9.26500000e-01 5.00000000e-01 5.00000000e-01)	1.00000000e+00	(3.45000000e-02 5.00000000e-01 5.00000000e-01)
0.011           	T               	2.51966455e-03	(5.02500000e-01 5.00000000e-01 5.00000000e-01)	3.80946733e-03	(5.14500000e-01 5.00000000e-01 5.00000000e-01)
0.012           	U               	(-2.68006920e-23 0.00000000e+00 0.00000000e+00)	(5.00000000e-04 5.00000000e-01 5.00000000e-01)	(-2.68006920e-23 0.00000000e+00 0.00000000e+00)	(5.00000000e-04 5.00000000e-01 5.00000000e-01)
0.012           	p               	1.00000000e-01	(9.28500000e-01 5.00000000e-01 5.00000000e-01)	1.00000000e+00	(4.36500000e-01 5.00000000e-01 5.00000000e-01)
0.012           	T               	2.51431876e-03	(5.03500000e-01 5.00000000e-01 5.00000000e-01)	3.82979336e-03	(5.15500000e-01 5.00000000e-01 5.00000000e-01)
0.013           	U               	(-2.68006920e-23 0.00000000e+00 0.00000000e+00)	(5.00000000e-04 5.00000000e-01 5.00000000e-01)	(-2.68006920e-23 0.00000000e+00 0.00000000e+00)	(5.00000000e-04 5.00000000e-01 5.00000000e-01)
0.013           	p               	1.00000000e-01	(9.28500000e-01 5.00000000e-01 5.00000000e-01)	1.00000000e+00	(1.89500000e-01 5.00000000e-01 5.00000000e-01)
0.013           	T               	2.51106693e-03	(5.03500000e-01 5.00000000e-01 5.00000000e-01)	3.84818861e-03	(5.17500000e-01 5.00000000e-01 5.00000000e-01)
0.014           	U               	(-2.68006920e-23 0.00000000e+00 0.00000000e+00)	(5.00000000e-04 5.00000000e-01 5.00000000e-01)	(-2.68006920e-23 0.00000000e+00 0.00000000e+00)	(5.00000000e-04 5.00000000e-01 5.00000000e-01)
0.014           	p               	1.00000000e-01	(9.87500000e-01 5.00000000e-01 5.00000000e-01)	1.00000000e+00	(5.50000000e-03 5.00000000e-01 5.00000000e-01)
0.014           	T               	2.50783384e-03	(5.05500000e-01 5.00000000e-01 5.00000000e-01)	3.85541799e-03	(5.19500000e-01 5.00000000e-01 5.00000000e-01)
0.015           	U               	(8.41498960e-24 0.00000000e+00 0.00000000e+00)	(5.00000000e-04 5.00000000e-01 5.00000000e-01)	(8.41498960e-24 0.00000000e+00 0.00000000e+00)	(5.00000000e-04 5.00000000e-01 5.00000000e-01)
0.015           	p               	1.00000000e-01	(9.86500000e-01 5.00000000e-01 5.00000000e-01)	1.00000000e+00	(1.96500000e-01 5.00000000e-01 5.00000000e-01)
0.015           	T               	2.50946531e-03	(5.03500000e-01 5.00000000e-01 5.00000000e-01)	3.87020378e-03	(5.21500000e-01 5.00000000e-01 5.00000000e-01)
0.016           	U               	(8.41478256e-24 0.00000000e+00 0.00000000e+00)	(5.00000000e-04 5.00000000e-01 5.00000000e-01)	(8.41478256e-24 0.00000000e+00 0.00000000e+00)	(5.00000000e-04 5.00000000e-01 5.00000000e-01)
0.016           	p               	1.00000000e-01	(9.21500000e-01 5.00000000e-01 5.00000000e-01)	1.00000000e+00	(3.71500000e-01 5.00000000e-01 5.00000000e-01)
0.016           	T               	2.50897169e-03	(5.05500000e-01 5.00000000e-01 5.00000000e-01)	3.88670760e-03	(5.21500000e-01 5.00000000e-01 5.00000000e-01)
0.017           	U               	(8.41561073e-24 0.00000000e+00 0.00000000e+00)	(5.00000000e-04 5.00000000e-01 5.00000000e-01)	(8.41561073e-24 0.00000000e+00 0.00000000e+00)	(5.00000000e-04 5.00000000e-01 5.00000000e-01)
0.017           	p               	1.00000000e-01	(9.94500000e-01 5.00000000e-01 5.00000000e-01)	1.00000000e+00	(7.65000000e-02 5.00000000e-01 5.00000000e-01)
0.017           	T               	2.50678014e-03	(5.05500000e-01 5.00000000e-01 5.00000000e-01)	3.89080723e-03	(5.23500000e-01 5.00000000e-01 5.00000000e-01)
0.018           	U               	(1.58043906e-23 0.00000000e+00 0.00000000e+00)	(5.00000000e-04 5.00000000e-01 5.00000000e-01)	(1.58043906e-23 0.00000000e+00 0.00000000e+00)	(5.00000000e-04 5.00000000e-01 5.00000000e-01)
0.018           	p               	1.00000000e-01	(9.95500000e-01 5.00000000e-01 5.00000000e-01)	1.00000000e+00	(7.95000000e-02 5.00000000e-01 5.00000000e-01)
0.018           	T               	2.50601728e-03	(5.05500000e-01 5.00000000e-01 5.00000000e-01)	3.90008212e-03	(5.23500000e-01 5.00000000e-01 5.00000000e-01)
0.019           	U               	(1.49124679e-23 0.00000000e+00 0.00000000e+00)	(5.00000000e-04 5.00000000e-01 5.00000000e-01)	(1.49124679e-23 0.00000000e+00 0.00000000e+00)	(5.00000000e-04 5.00000000e-01 5.00000000e-01)
0.019           	p               	1.00000000e-01	(9.93500000e-01 5.00000000e-01 5.00000000e-01)	1.00000000e+00	(8.50000000e-03 5.00000000e-01 5.00000000e-01)
0.019           	T               	2.50504199e-03	(5.04500000e-01 5.00000000e-01 5.00000000e-01)	3.90211048e-03	(5.25500000e-01 5.00000000e-01 5.00000000e-01)
0.02            	U               	(1.18074100e-23 0.00000000e+00 0.00000000e+00)	(5.00000000e-04 5.00000000e-01 5.00000000e-01)	(1.18074100e-23 0.00000000e+00 0.00000000e+00)	(5.00000000e-04 5.00000000e-01 5.00000000e-01)
0.02            	p               	1.00000000e-01	(9.95500000e-01 5.00000000e-01 5.00000000e-01)	1.00000000e+00	(1.23500000e-01 5.00000000e-01 5.00000000e-01)
0.02            	T               	2.50472323e-03	(5.05500000e-01 5.00000000e-01 5.00000000e-01)	3.91268173e-03	(5.27500000e-01 5.00000000e-01 5.00000000e-01)
0.021           	U               	(1.18074100e-23 0.00000000e+00 0.00000000e+00)	(5.00000000e-04 5.00000000e-01 5.00000000e-01)	(1.18074100e-23 0.00000000e+00 0.00000000e+00)	(5.00000000e-04 5.00000000e-01 5.00000000e-01)
0.021           	p               	1.00000000e-01	(7.14500000e-01 5.00000000e-01 5.00000000e-01)	1.00000000e+00	(1.22500000e-01 5.00000000e-01 5.00000000e-01)
0.021           	T               	2.50367195e-03	(5.05500000e-01 5.00000000e-01 5.00000000e-01)	3.91517841e-03	(5.27500000e-01 5.00000000e-01 5.00000000e-01)
0.022           	U               	(1.18075135e-23 0.00000000e+00 0.00000000e+00)	(5.00000000e-04 5.00000000e-01 5.00000000e-01)	(1.18075135e-23 0.00000000e+00 0.00000000e+00)	(5.00000000e-04 5.00000000e-01 5.00000000e-01)
0.022           	p               	1.00000000e-01	(9.96500000e-01 5.00000000e-01 5.00000000e-01)	1.00000000e+00	(1.15000000e-02 5.00000000e-01 5.00000000e-01)
0.022           	T               	2.50226073e-03	(5.05500000e-01 5.00000000e-01 5.00000000e-01)	3.92379535e-03	(5.29500000e-01 5.00000000e-01 5.00000000e-01)
0.023           	U               	(1.18075135e-23 0.00000000e+00 0.00000000e+00)	(5.00000000e-04 5.00000000e-01 5.00000000e-01)	(1.18075135e-23 0.00000000e+00 0.00000000e+00)	(5.00000000e-04 5.00000000e-01 5.00000000e-01)
0.023           	p               	1.00000000e-01	(9.97500000e-01 5.00000000e-01 5.00000000e-01)	1.00000000e+00	(1.20500000e-01 5.00000000e-01 5.00000000e-01)
0.023           	T               	2.50072549e-03	(5.07500000e-01 5.00000000e-01 5.00000000e-01)	3.92805758e-03	(5.31500000e-01 5.00000000e-01 5.00000000e-01)
0.024           	U               	(1.18737442e-23 0.00000000e+00 0.00000000e+00)	(5.00000000e-04 5.00000000e-01 5.00000000e-01)	(1.18737442e-23 0.00000000e+00 0.00000000e+00)	(5.00000000e-04 5.00000000e-01 5.00000000e-01)
0.024           	p               	1.00000000e-01	(9.97500000e-01 5.00000000e-01 5.00000000e-01)	1.00000000e+00	(2.35000000e-02 5.00000000e-01 5.00000000e-01)
0.024           	T               	2.50013971e-03	(5.05500000e-01 5.00000000e-01 5.00000000e-01)	3.92774337e-03	(5.33500000e-01 5.00000000e-01 5.00000000e-01)
0.025           	U               	(2.59760232e-23 0.00000000e+00 0.00000000e+00)	(5.00000000e-04 5.00000000e-01 5.00000000e-01)	(2.59760232e-23 0.00000000e+00 0.00000000e+00)	(5.00000000e-04 5.00000000e-01 5.00000000e-01)
0.025           	p               	1.00000000e-01	(7.12500000e-01 5.00000000e-01 5.00000000e-01)	1.00000000e+00	(7.50000000e-03 5.00000000e-01 5.00000000e-01)
0.025           	T               	2.49907206e-03	(5.05500000e-01 5.00000000e-01 5.00000000e-01)	3.93396199e-03	(5.33500000e-01 5.00000000e-01 5.00000000e-01)
0.026           	U               	(2.59760232e-23 0.00000000e+00 0.00000000e+00)	(5.00000000e-04 5.00000000e-01 5.00000000e-01)	(2.59760232e-23 0.00000000e+00 0.00000000e+00)	(5.00000000e-04 5.00000000e-01 5.00000000e-01)
0.026           	p               	1.00000000e-01	(6.58500000e-01 5.00000000e-01 5.00000000e-01)	1.00000000e+00	(6.50000000e-03 5.00000000e-01 5.00000000e-01)
0.026           	T               	2.49768115e-03	(5.06500000e-01 5.00000000e-01 5.00000000e-01)	3.93857138e-03	(5.35500000e-01 5.00000000e-01 5.00000000e-01)
0.027           	U               	(2.59761267e-23 0.00000000e+00 0.00000000e+00)	(5.00000000e-04 5.00000000e-01 5.00000000e-01)	(2.59761267e-23 0.00000000e+00 0.00000000e+00)	(5.00000000e-04 5.00000000e-01 5.00000000e-01)
0.027           	p               	1.00000000e-01	(6.59500000e-01 5.00000000e-01 5.00000000e-01)	1.00000000e+00	(5.50000000e-03 5.00000000e-01 5.00000000e-01)
0.027           	T               	2.49550058e-03	(5.06500000e-01 5.00000000e-01 5.00000000e-01)	3.93865606e-03	(5.35500000e-01 5.00000000e-01 5.00000000e-01)
0.028           	U               	(2.59744704e-23 0.00000000e+00 0.00000000e+00)	(5.00000000e-04 5.00000000e-01 5.00000000e-01)	(2.59744704e-23 0.00000000e+00 0.00000000e+00)	(5.00000000e-04 5.00000000e-01 5.00000000e-01)
0.028           	p               	1.00000000e-01	(6.61500000e-01 5.00000000e-01 5.00000000e-01)	1.00000000e+00	(5.00000000e-04 5.00000000e-01 5.00000000e-01)
0.028           	T               	2.49428903e-03	(5.06500000e-01 5.00000000e-01 5.00000000e-01)	3.94132637e-03	(5.37500000e-01 5.00000000e-01 5.00000000e-01)
0.029           	U               	(2.59740563e-23 0.00000000e+00 0.00000000e+00)	(5.00000000e-04 5.00000000e-01 5.00000000e-01)	(2.59740563e-23 0.00000000e+00 0.00000000e+00)	(5.00000000e-04 5.00000000e-01 5.00000000e-01)
0.029           	p               	1.00000000e-01	(6.61500000e-01 5.00000000e-01 5.00000000e-01)	1.00000000e+00	(5.00000000e-04 5.00000000e-01 5.00000000e-01)
0.029           	T               	2.49313999e-03	(5.06500000e-01 5.00000000e-01 5.00000000e-01)	3.94370372e-03	(5.39500000e-01 5.00000000e-01 5.00000000e-01)
0.03            	U               	(2.59740563e-23 0.00000000e+00 0.00000000e+00)	(5.00000000e-04 5.00000000e-01 5.00000000e-01)	(2.59740563e-23 0.00000000e+00 0.00000000e+00)	(5.00000000e-04 5.00000000e-01 5.00000000e-01)
0.03            	p               	1.00000000e-01	(9.86500000e-01 5.00000000e-01 5.00000000e-01)	1.00000000e+00	(1.50000000e-03 5.00000000e-01 5.00000000e-01)
0.03            	T               	2.49220993e-03	(5.06500000e-01 5.00000000e-01 5.00000000e-01)	3.94516870e-03	(5.41500000e-01 5.00000000e-01 5.00000000e-01)
0.031           	U               	(1.04188171e-22 0.00000000e+00 0.00000000e+00)	(5.00000000e-04 5.00000000e-01 5.00000000e-01)	(1.04188171e-22 0.00000000e+00 0.00000000e+00)	(5.00000000e-04 5.00000000e-01 5.00000000e-01)
0.031           	p               	1.00000000e-01	(9.87500000e-01 5.00000000e-01 5.00000000e-01)	1.00000000e+00	(5.00000000e-04 5.00000000e-01 5.00000000e-01)
0.031           	T               	2.49130262e-03	(5.06500000e-01 5.00000000e-01 5.00000000e-01)	3.94685851e-03	(5.43500000e-01 5.00000000e-01 5.00000000e-01)
0.032           	U               	(1.04188379e-22 0.00000000e+00 0.00000000e+00)	(5.00000000e-04 5.00000000e-01 5.00000000e-01)	(1.04188379e-22 0.00000000e+00 0.00000000e+00)	(5.00000000e-04 5.00000000e-01 5.00000000e-01)
0.032           	p               	1.00000000e-01	(9.62500000e-01 5.00000000e-01 5.00000000e-01)	1.00000000e+00	(1.50000000e-03 5.00000000e-01 5.00000000e-01)
0.032           	T               	2.49053990e-03	(5.06500000e-01 5.00000000e-01 5.00000000e-01)	3.94862373e-03	(5.43500000e-01 5.00000000e-01 5.00000000e-01)
0.033           	U               	(1.04187964e-22 0.00000000e+00 0.00000000e+00)	(5.00000000e-04 5.00000000e-01 5.00000000e-01)	(1.04187964e-22 0.00000000e+00 0.00000000e+00)	(5.00000000e-04 5.00000000e-01 5.00000000e-01)
0.033           	p               	1.00000000e-01	(9.48500000e-01 5.00000000e-01 5.00000000e-01)	1.00000000e+00	(1.25000000e-02 5.00000000e-01 5.00000000e-01)
0.033           	T               	2.48990891e-03	(5.06500000e-01 5.00000000e-01 5.00000000e-01)	3.94942627e-03	(5.45500000e-01 5.00000000e-01 5.00000000e-01)
0.034           	U               	(1.04188379e-22 0.00000000e+00 0.00000000e+00)	(5.00000000e-04 5.00000000e-01 5.00000000e-01)	(1.04188379e-22 0.00000000e+00 0.00000000e+00)	(5.00000000e-04 5.00000000e-01 5.00000000e-01)
0.034           	p               	1.00000000e-01	(9.46500000e-01 5.00000000e-01 5.00000000e-01)	1.00000000e+00	(4.50000000e-03 5.00000000e-01 5.00000000e-01)
0.034           	T               	2.48966704e-03	(5.06500000e-01 5.00000000e-01 5.00000000e-01)	3.94979508e-03	(5.47500000e-01 5.00000000e-01 5.00000000e-01)
0.035           	U               	(1.04188379e-22 0.00000000e+00 0.00000000e+00)	(5.00000000e-04 5.00000000e-01 5.00000000e-01)	(1.04188379e-22 0.00000000e+00 0.00000000e+00)	(5.00000000e-04 5.00000000e-01 5.00000000e-01)
0.035           	p               	1.00000000e-01	(9.46500000e-01 5.00000000e-01 5.00000000e-01)	1.00000000e+00	(5.00000000e-04 5.00000000e-01 5.00000000e-01)
0.035           	T               	2.48948811e-03	(5.06500000e-01 5.00000000e-01 5.00000000e-01)	3.95096749e-03	(5.47500000e-01 5.00000000e-01 5.00000000e-01)
0.036           	U               	(1.04188379e-22 0.00000000e+00 0.00000000e+00)	(5.00000000e-04 5.00000000e-01 5.00000000e-01)	(1.04188379e-22 0.00000000e+00 0.00000000e+00)	(5.00000000e-04 5.00000000e-01 5.00000000e-01)
0.036           	p               	1.00000000e-01	(9.65500000e-01 5.00000000e-01 5.00000000e-01)	1.00000000e+00	(1.05000000e-02 5.00000000e-01 5.00000000e-01)
0.036           	T               	2.48894652e-03	(5.07500000e-01 5.00000000e-01 5.00000000e-01)	3.95089368e-03	(5.49500000e-01 5.00000000e-01 5.00000000e-01)
0.037           	U               	(1.04188379e-22 0.00000000e+00 0.00000000e+00)	(5.00000000e-04 5.00000000e-01 5.00000000e-01)	(1.04188379e-22 0.00000000e+00 0.00000000e+00)	(5.00000000e-04 5.00000000e-01 5.00000000e-01)
0.037           	p               	1.00000000e-01	(9.57500000e-01 5.00000000e-01 5.00000000e-01)	1.00000000e+00	(6.50000000e-03 5.00000000e-01 5.00000000e-01)
0.037           	T               	2.48848019e-03	(5.07500000e-01 5.00000000e-01 5.00000000e-01)	3.95164803e-03	(5.49500000e-01 5.00000000e-01 5.00000000e-01)
0.038           	U               	(1.04188379e-22 0.00000000e+00 0.00000000e+00)	(5.00000000e-04 5.00000000e-01 5.00000000e-01)	(1.04188379e-22 0.00000000e+00 0.00000000e+00)	(5.00000000e-04 5.00000000e-01 5.00000000e-01)
0.038           	p               	1.00000000e-01	(9.58500000e-01 5.00000000e-01 5.00000000e-01)	1.00000000e+00	(9.50000000e-03 5.00000000e-01 5.00000000e-01)
0.038           	T               	2.48786845e-03	(5.07500000e-01 5.00000000e-01 5.00000000e-01)	3.95142267e-03	(5.51500000e-01 5.00000000e-01 5.00000000e-01)
0.039           	U               	(1.24831524e-23 0.00000000e+00 0.00000000e+00)	(5.00000000e-04 5.00000000e-01 5.00000000e-01)	(1.24831524e-23 0.00000000e+00 0.00000000e+00)	(5.00000000e-04 5.00000000e-01 5.00000000e-01)
0.039           	p               	1.00000000e-01	(9.57500000e-01 5.00000000e-01 5.00000000e-01)	1.00000000e+00	(8.50000000e-03 5.00000000e-01 5.00000000e-01)
0.039           	T               	2.48757351e-03	(5.07500000e-01 5.00000000e-01 5.00000000e-01)	3.95209516e-03	(5.53500000e-01 5.00000000e-01 5.00000000e-01)
0.04            	U               	(3.12499390e-24 0.00000000e+00 0.00000000e+00)	(5.00000000e-04 5.00000000e-01 5.00000000e-01)	(3.12499390e-24 0.00000000e+00 0.00000000e+00)	(5.00000000e-04 5.00000000e-01 5.00000000e-01)
0.04            	p               	1.00000000e-01	(9.54500000e-01 5.00000000e-01 5.00000000e-01)	1.00000000e+00	(1.15000000e-02 5.00000000e-01 5.00000000e-01)
0.04            	T               	2.48727935e-03	(5.07500000e-01 5.00000000e-01 5.00000000e-01)	3.95210872e-03	(5.55500000e-01 5.00000000e-01 5.00000000e-01)
0.041           	U               	(3.12457982e-24 0.00000000e+00 0.00000000e+00)	(5.00000000e-04 5.00000000e-01 5.00000000e-01)	(3.12457982e-24 0.00000000e+00 0.00000000e+00)	(5.00000000e-04 5.00000000e-01 5.00000000e-01)
0.041           	p               	1.00000000e-01	(9.59500000e-01 5.00000000e-01 5.00000000e-01)	1.00000000e+00	(3.01500000e-01 5.00000000e-01 5.00000000e-01)
0.041           	T               	2.48723619e-03	(5.07500000e-01 5.00000000e-01 5.00000000e-01)	3.95250980e-03	(5.57500000e-01 5.00000000e-01 5.00000000e-01)
0.042           	U               	(3.12457982e-24 0.00000000e+00 0.00000000e+00)	(5.00000000e-04 5.00000000e-01 5.00000000e-01)	(3.12457982e-24 0.00000000e+00 0.00000000e+00)	(5.00000000e-04 5.00000000e-01 5.00000000e-01)
0.042           	p               	1.00000000e-01	(9.54500000e-01 5.00000000e-01 5.00000000e-01)	1.00000000e+00	(9.50000000e-03 5.00000000e-01 5.00000000e-01)
0.042           	T               	2.48718427e-03	(5.07500000e-01 5.00000000e-01 5.00000000e-01)	3.95280938e-03	(5.57500000e-01 5.00000000e-01 5.00000000e-01)
0.043           	U               	(3.12457982e-24 0.00000000e+00 0.00000000e+00)	(5.00000000e-04 5.00000000e-01 5.00000000e-01)	(3.12457982e-24 0.00000000e+00 0.00000000e+00)	(5.00000000e-04 5.00000000e-01 5.00000000e-01)
0.043           	p               	1.00000000e-01	(9.54500000e-01 5.00000000e-01 5.00000000e-01)	1.00000000e+00	(3.04500000e-01 5.00000000e-01 5.00000000e-01)
0.043           	T               	2.48712621e-03	(5.09500000e-01 5.00000000e-01 5.00000000e-01)	3.95310270e-03	(5.59500000e-01 5.00000000e-01 5.00000000e-01)
0.044           	U               	(1.50476403e-23 0.00000000e+00 0.00000000e+00)	(5.00000000e-04 5.00000000e-01 5.00000000e-01)	(1.50476403e-23 0.00000000e+00 0.00000000e+00)	(5.00000000e-04 5.00000000e-01 5.00000000e-01)
0.044           	p               	1.00000000e-01	(9.53500000e-01 5.00000000e-01 5.00000000e-01)	1.00000000e+00	(1.55000000e-02 5.00000000e-01 5.00000000e-01)
0.044           	T               	2.48708728e-03	(5.09500000e-01 5.00000000e-01 5.00000000e-01)	3.95314686e-03	(5.59500000e-01 5.00000000e-01 5.00000000e-01)
0.045           	U               	(1.50478473e-23 0.00000000e+00 0.00000000e+00)	(5.00000000e-04 5.00000000e-01 5.00000000e-01)	(1.50478473e-23 0.00000000e+00 0.00000000e+00)	(5.00000000e-04 5.00000000e-01 5.00000000e-01)
0.045           	p               	1.00000000e-01	(9.50500000e-01 5.00000000e-01 5.00000000e-01)	1.00000000e+00	(9.85000000e-02 5.00000000e-01 5.00000000e-01)
0.045           	T               	2.48680321e-03	(5.08500000e-01 5.00000000e-01 5.00000000e-01)	3.95338316e-03	(5.61500000e-01 5.00000000e-01 5.00000000e-01)
0.046           	U               	(2.07240293e-23 0.00000000e+00 0.00000000e+00)	(5.00000000e-04 5.00000000e-01 5.00000000e-01)	(2.07240293e-23 0.00000000e+00 0.00000000e+00)	(5.00000000e-04 5.00000000e-01 5.00000000e-01)
0.046           	p               	1.00000000e-01	(9.47500000e-01 5.00000000e-01 5.00000000e-01)	1.00000000e+00	(2.35000000e-02 5.00000000e-01 5.00000000e-01)
0.046           	T               	2.48647455e-03	(5.08500000e-01 5.00000000e-01 5.00000000e-01)	3.95337627e-03	(5.63500000e-01 5.00000000e-01 5.00000000e-01)
0.047           	U               	(2.07244682e-23 0.00000000e+00 0.00000000e+00)	(5.00000000e-04 5.00000000e-01 5.00000000e-01)	(2.07244682e-23 0.00000000e+00 0.00000000e+00)	(5.00000000e-04 5.00000000e-01 5.00000000e-01)
0.047           	p               	1.00000000e-01	(9.49500000e-01 5.00000000e-01 5.00000000e-01)	1.00000000e+00	(1.95000000e-02 5.00000000e-01 5.00000000e-01)
0.047           	T               	2.48615364e-03	(5.08500000e-01 5.00000000e-01 5.00000000e-01)	3.95355023e-03	(5.63500000e-01 5.00000000e-01 5.00000000e-01)
0.048           	U               	(-2.10909782e-22 0.00000000e+00 0.00000000e+00)	(5.00000000e-04 5.00000000e-01 5.00000000e-01)	(-2.10909782e-22 0.00000000e+00 0.00000000e+00)	(5.00000000e-04 5.00000000e-01 5.00000000e-01)
0.048           	p               	1.00000000e-01	(9.48500000e-01 5.00000000e-01 5.00000000e-01)	1.00000000e+00	(1.75000000e-02 5.00000000e-01 5.00000000e-01)
0.048           	T               	2.48583283e-03	(5.08500000e-01 5.00000000e-01 5.00000000e-01)	3.95321513e-03	(5.65500000e-01 5.00000000e-01 5.00000000e-01)
0.049           	U               	(-6.40775495e-22 0.00000000e+00 0.00000000e+00)	(5.00000000e-04 5.00000000e-01 5.00000000e-01)	(-6.40775495e-22 0.00000000e+00 0.00000000e+00)	(5.00000000e-04 5.00000000e-01 5.00000000e-01)
0.049           	p               	1.00000000e-01	(9.49500000e-01 5.00000000e-01 5.00000000e-01)	1.00000000e+00	(3.45000000e-02 5.00000000e-01 5.00000000e-01)
0.049           	T               	2.48557392e-03	(5.08500000e-01 5.00000000e-01 5.00000000e-01)	3.95308859e-03	(5.67500000e-01 5.00000000e-01 5.00000000e-01)
0.05            	U               	(-7.57155464e-22 0.00000000e+00 0.00000000e+00)	(5.00000000e-04 5.00000000e-01 5.00000000e-01)	(-7.57155464e-22 0.00000000e+00 0.00000000e+00)	(5.00000000e-04 5.00000000e-01 5.00000000e-01)
0.05            	p               	1.00000000e-01	(9.53500000e-01 5.00000000e-01 5.00000000e-01)	1.00000000e+00	(3.35000000e-02 5.00000000e-01 5.00000000e-01)
0.05            	T               	2.48535723e-03	(5.08500000e-01 5.00000000e-01 5.00000000e-01)	3.95329612e-03	(5.67500000e-01 5.00000000e-01 5.00000000e-01)
0.051           	U               	(-7.57155464e-22 0.00000000e+00 0.00000000e+00)	(5.00000000e-04 5.00000000e-01 5.00000000e-01)	(-7.57155464e-22 0.00000000e+00 0.00000000e+00)	(5.00000000e-04 5.00000000e-01 5.00000000e-01)
0.051           	p               	1.00000000e-01	(9.52500000e-01 5.00000000e-01 5.00000000e-01)	1.00000000e+00	(2.95000000e-02 5.00000000e-01 5.00000000e-01)
0.051           	T               	2.48516850e-03	(5.08500000e-01 5.00000000e-01 5.00000000e-01)	3.95294872e-03	(5.69500000e-01 5.00000000e-01 5.00000000e-01)
0.052           	U               	(-7.57155464e-22 0.00000000e+00 0.00000000e+00)	(5.00000000e-04 5.00000000e-01 5.00000000e-01)	(-7.57155464e-22 0.00000000e+00 0.00000000e+00)	(5.00000000e-04 5.00000000e-01 5.00000000e-01)
0.052           	p               	1.00000000e-01	(7.85500000e-01 5.00000000e-01 5.00000000e-01)	1.00000000e+00	(3.85000000e-02 5.00000000e-01 5.00000000e-01)
0.052           	T               	2.48503914e-03	(5.08500000e-01 5.00000000e-01 5.00000000e-01)	3.95318950e-03	(5.71500000e-01 5.00000000e-01 5.00000000e-01)
0.053           	U               	(-8.66024468e-22 0.00000000e+00 0.00000000e+00)	(5.00000000e-04 5.00000000e-01 5.00000000e-01)	(-8.66024468e-22 0.00000000e+00 0.00000000e+00)	(5.00000000e-04 5.00000000e-01 5.00000000e-01)
0.053           	p               	1.00000000e-01	(7.84500000e-01 5.00000000e-01 5.00000000e-01)	1.00000000e+00	(1.85000000e-02 5.00000000e-01 5.00000000e-01)
0.053           	T               	2.48487482e-03	(5.08500000e-01 5.00000000e-01 5.00000000e-01)	3.95323739e-03	(5.73500000e-01 5.00000000e-01 5.00000000e-01)
0.054           	U               	(-8.79804138e-22 0.00000000e+00 0.00000000e+00)	(5.00000000e-04 5.00000000e-01 5.00000000e-01)	(-8.79804138e-22 0.00000000e+00 0.00000000e+00)	(5.00000000e-04 5.00000000e-01 5.00000000e-01)
0.054           	p               	1.00000000e-01	(9.68500000e-01 5.00000000e-01 5.00000000e-01)	1.00000000e+00	(3.55000000e-02 5.00000000e-01 5.00000000e-01)
0.054           	T               	2.48462950e-03	(5.08500000e-01 5.00000000e-01 5.00000000e-01)	3.95310224e-03	(5.73500000e-01 5.00000000e-01 5.00000000e-01)
0.055           	U               	(-1.00878212e-21 0.00000000e+00 0.00000000e+00)	(5.00000000e-04 5.00000000e-01 5.00000000e-01)	(-1.00878212e-21 0.00000000e+00 0.00000000e+00)	(5.00000000e-04 5.00000000e-01 5.00000000e-01)
0.055           	p               	1.00000000e-01	(9.68500000e-01 5.00000000e-01 5.00000000e-01)	1.00000000e+00	(2.95000000e-02 5.00000000e-01 5.00000000e-01)
0.055           	T               	2.48442921e-03	(5.08500000e-01 5.00000000e-01 5.00000000e-01)	3.95311381e-03	(5.76500000e-01 5.00000000e-01 5.00000000e-01)
0.056           	U               	(-1.01998340e-21 0.00000000e+00 0.00000000e+00)	(5.00000000e-04 5.00000000e-01 5.00000000e-01)	(-1.01998340e-21 0.00000000e+00 0.00000000e+00)	(5.00000000e-04 5.00000000e-01 5.00000000e-01)