/*--------------------------------*- C++ -*----------------------------------*\
| =========                 |                                                 |
| \\      /  F ield         | OpenFOAM: The Open Source CFD Toolbox           |
|  \\    /   O peration     | Version:  2112                                  |
|   \\  /    A nd           | Website:  www.openfoam.com                      |
|    \\/     M anipulation  |                                                 |
\*---------------------------------------------------------------------------*/
FoamFile
{
    version     2.0;
    format      ascii;
    arch        "LSB;label=32;scalar=64";
    class       volScalarField;
    location    "3.4995";
    object      Ma;
}
// * * * * * * * * * * * * * * * * * * * * * * * * * * * * * * * * * * * * * //

dimensions      [0 0 0 0 0 0 0];

internalField   nonuniform List<scalar> 
7000
(
3.00001
3
3
3
3
3
3
2.99999
2.99999
2.99995
2.9999
2.99933
2.99876
2.99553
2.9929
2.97658
2.95983
2.88614
2.70232
2.28716
1.5045
0.683224
0.268521
0.374876
0.453075
0.464778
0.447999
0.423286
0.40175
0.386446
0.373048
0.358911
0.34377
0.328248
0.312456
0.296596
0.280683
0.264596
0.248484
0.232022
0.215425
0.198501
0.181305
0.163693
0.145276
0.125882
0.104862
0.0819117
0.0548245
0.0356199
3.00001
3
3
3
3
3
3
2.99999
2.99999
2.99995
2.9999
2.99933
2.99878
2.99556
2.99294
2.97675
2.9594
2.88184
2.71435
2.3074
1.55633
0.707783
0.278637
0.379465
0.455906
0.467509
0.45133
0.427236
0.405868
0.390507
0.376934
0.3626
0.347163
0.331273
0.314956
0.298534
0.281866
0.264953
0.247823
0.23029
0.212509
0.194349
0.175905
0.157087
0.13774
0.117854
0.0972369
0.0765535
0.0560916
0.050193
3.00001
3
3
3
3
3
3
3
2.99999
2.99994
2.9999
2.99934
2.9988
2.99564
2.99305
2.97738
2.95953
2.88193
2.71999
2.32097
1.57258
0.71285
0.26909
0.372032
0.447834
0.458714
0.442373
0.418178
0.396774
0.381208
0.367545
0.353166
0.337927
0.32222
0.30625
0.290161
0.273878
0.257294
0.24051
0.223244
0.205766
0.187856
0.169741
0.151378
0.132861
0.11457
0.0968823
0.0816959
0.0707921
0.073452
3.00001
3
3
3
3
3
3
3
3
2.99995
2.9999
2.99935
2.99883
2.99583
2.99335
2.97881
2.96192
2.89004
2.72504
2.33753
1.58465
0.723738
0.264731
0.36684
0.440505
0.450479
0.434277
0.410478
0.389484
0.37399
0.360205
0.345746
0.330526
0.314881
0.299023
0.283133
0.267003
0.25074
0.234208
0.217399
0.200382
0.18314
0.16587
0.148718
0.131991
0.116418
0.102819
0.0934103
0.0894651
0.0959719
3.00001
3
3
3
3
3
3
3
3
2.99995
2.9999
2.99937
2.99881
2.99599
2.99348
2.97995
2.96357
2.89258
2.73306
2.34886
1.59962
0.736584
0.268179
0.365378
0.435647
0.444484
0.428511
0.405127
0.384627
0.369065
0.355245
0.340657
0.325534
0.309944
0.294242
0.27852
0.262604
0.246641
0.230482
0.214167
0.197851
0.181467
0.165444
0.149867
0.13545
0.122948
0.113341
0.108502
0.108752
0.116947
3.00001
3
3
3
3
3
3
3
2.99999
2.99997
2.99975
2.99947
2.99795
2.99663
2.98808
2.98625
2.96657
2.90926
2.73195
2.36027
1.5974
0.746842
0.269735
0.361189
0.428136
0.436447
0.421183
0.39882
0.378844
0.363715
0.349972
0.335845
0.320955
0.30588
0.290526
0.275324
0.259852
0.24446
0.228925
0.213357
0.19798
0.182759
0.168264
0.154656
0.142649
0.133184
0.126921
0.125397
0.128289
0.137312
3.00001
3
3
3
3
3
3
3.00001
2.99999
2.99997
2.99975
2.99948
2.998
2.9969
2.98827
2.98806
2.96907
2.91402
2.74114
2.37619
1.61562
0.766426
0.284143
0.364154
0.425456
0.433244
0.418558
0.396549
0.376433
0.360985
0.347184
0.333046
0.318419
0.303531
0.288655
0.273832
0.259017
0.244224
0.229539
0.214959
0.200773
0.187045
0.174235
0.162776
0.153199
0.146296
0.142769
0.14344
0.147871
0.157217
3.00001
3
3
3
3
3
3
3.00001
2.99999
2.99997
2.99976
2.9995
2.99812
2.99702
2.98938
2.98752
2.96774
2.92213
2.75336
2.39549
1.6354
0.786596
0.297115
0.364417
0.41919
0.429164
0.416156
0.395021
0.374617
0.359069
0.34546
0.331538
0.317301
0.302777
0.288406
0.274153
0.259994
0.246044
0.232238
0.218867
0.205973
0.193928
0.182953
0.173495
0.166294
0.161644
0.16006
0.162449
0.167866
0.177395
3.00001
3
3
3
3
3
3
3.00001
2.99999
2.99997
2.99978
2.99954
2.99828
2.9973
2.99017
2.98885
2.97005
2.9277
2.76774
2.41589
1.66206
0.815496
0.318572
0.3681
0.414208
0.427204
0.416033
0.395567
0.374364
0.358571
0.345092
0.331525
0.317617
0.303641
0.289829
0.276298
0.262919
0.249941
0.237186
0.225084
0.213697
0.203311
0.19434
0.186846
0.181471
0.178752
0.178806
0.182114
0.1882
0.1976
3.00001
3.00001
3
3
3
3
3
3.00001
2.99999
2.99998
2.9998
2.99959
2.99846
2.99766
2.99127
2.99056
2.97296
2.93559
2.77856
2.44048
1.69348
0.850316
0.344076
0.373471
0.411454
0.426976
0.4177
0.397769
0.375866
0.359813
0.346494
0.333226
0.31977
0.306269
0.29317
0.280359
0.267908
0.255947
0.244439
0.233634
0.223788
0.215008
0.20774
0.202268
0.198707
0.19738
0.198652
0.202988
0.209383
0.21884
3.00001
3.00001
3
3
3
3
3
3.00001
3
2.99998
2.99983
2.99964
2.99868
2.99802
2.9926
2.99229
2.97589
2.9441
2.79579
2.4656
1.72829
0.890096
0.370625
0.375751
0.411622
0.428119
0.420134
0.4008
0.378837
0.362806
0.349729
0.336844
0.323813
0.310927
0.29849
0.286548
0.275047
0.264217
0.254025
0.244666
0.236366
0.229315
0.223616
0.219576
0.217655
0.217724
0.219941
0.224624
0.231456
0.240578
3.00001
3.00001
3
3
3
3
3
3.00001
3
2.99998
2.99984
2.99968
2.99883
2.9981
2.99334
2.99284
2.97906
2.95619
2.81251
2.49522
1.7691
0.940144
0.402456
0.38078
0.41399
0.430735
0.423481
0.404795
0.383179
0.367445
0.354738
0.342366
0.329936
0.317717
0.306082
0.29497
0.284492
0.274745
0.265827
0.257915
0.25106
0.245624
0.241656
0.239188
0.238391
0.239566
0.242802
0.248264
0.255089
0.264353
3.00001
3.00001
3.00001
3
3
3
3
3
3
2.99998
2.99986
2.99972
2.99901
2.99837
2.99433
2.99518
2.97819
2.96698
2.83071
2.52746
1.81761
1.00129
0.440848
0.386704
0.417571
0.434697
0.427954
0.41007
0.388988
0.373709
0.36141
0.349696
0.337948
0.326603
0.315855
0.305772
0.296376
0.287846
0.280179
0.273705
0.268351
0.264298
0.261759
0.260762
0.261445
0.263598
0.267393
0.273167
0.280482
0.289302
3.00001
3.00001
3.00001
3.00001
3
3
3
3
3
2.99997
2.99993
2.99968
2.99936
2.99837
2.99554
2.99476
2.97413
2.96703
2.83831
2.54387
1.87965
1.06944
0.477535
0.385062
0.41541
0.434446
0.429424
0.413396
0.393925
0.379723
0.368398
0.357723
0.347109
0.336836
0.327285
0.318357
0.310271
0.303061
0.296802
0.291707
0.287948
0.285465
0.284419
0.284692
0.286493
0.289909
0.294866
0.301341
0.30865
0.31784
3.00001
3.00001
3.00001
3.00001
3.00001
3
3.00001
3
3
2.99997
2.99992
2.99967
2.99941
2.9983
2.99597
2.99333
2.97469
2.97206
2.84563
2.5964
1.94651
1.15561
0.51977
0.378164
0.4081
0.429486
0.426844
0.413403
0.396383
0.383776
0.374166
0.365168
0.356309
0.347729
0.339766
0.332458
0.325922
0.320316
0.31568
0.312144
0.309845
0.308965
0.309561
0.311552
0.314803
0.319183
0.32493
0.332203
0.340324
0.349113
3.00001
3.00001
3.00001
3.00001
3.00001
3.00001
3.00001
3
3
2.99997
2.99993
2.99971
2.99953
2.99847
2.99711
2.99375
2.97716
2.97279
2.86606
2.64514
2.03163
1.25677
0.581722
0.375246
0.402774
0.425894
0.425566
0.413882
0.398595
0.386963
0.3788
0.371644
0.364809
0.358285
0.352453
0.34712
0.342667
0.338969
0.336311
0.334801
0.334379
0.335199
0.337418
0.341093
0.34626
0.352611
0.360094
0.368547
0.377319
0.38705
3.00001
3.00001
3.00001
3.00001
3.00001
3.00001
3.00001
3
3
2.99994
2.99989
2.99961
2.99933
2.99789
2.99634
2.9874
2.98631
2.96288
2.89503
2.67687
2.24576
1.37767
0.716545
0.415006
0.432631
0.450772
0.448492
0.433629
0.415753
0.400879
0.390835
0.383144
0.376648
0.371088
0.366662
0.363169
0.360611
0.35911
0.358461
0.359128
0.361069
0.364262
0.368786
0.374746
0.381878
0.390436
0.400133
0.411065
0.422038
0.432283
3.00001
3.00001
3.00001
3.00001
3.00001
3.00001
3.00001
3
2.99999
2.99995
2.99991
2.99968
2.99944
2.99835
2.99712
2.98939
2.98677
2.96717
2.9152
2.74463
2.38197
1.64251
0.852567
0.467367
0.47561
0.490638
0.491934
0.474769
0.453356
0.432678
0.417923
0.406771
0.397969
0.391045
0.386146
0.383035
0.381605
0.381674
0.383155
0.385837
0.390003
0.395744
0.403092
0.412214
0.423189
0.435386
0.449143
0.464033
0.479232
0.493949
3.00001
3.00001
3.00001
3.00001
3.00001
3.00001
3.00001
3
3
2.99997
2.99994
2.99978
2.9996
2.99885
2.99796
2.99269
2.99178
2.97726
2.95333
2.80612
2.48189
1.75929
0.951538
0.490099
0.482022
0.50724
0.517888
0.507102
0.489089
0.468725
0.452218
0.439351
0.428513
0.419772
0.413255
0.409205
0.407547
0.408203
0.410965
0.415768
0.422607
0.431279
0.442046
0.454598
0.469707
0.487645
0.50808
0.531574
0.556843
0.583211
3.00001
3.00001
3.00001
3.00001
3.00001
3.00001
3.00001
3.00001
3
3
2.99998
2.99995
2.99988
2.99948
2.99891
2.99533
2.99334
2.96991
2.97051
2.83292
2.56312
1.89173
1.08987
0.545778
0.470381
0.498186
0.517497
0.517194
0.507059
0.492983
0.480225
0.469764
0.460498
0.452161
0.445559
0.440911
0.438669
0.438864
0.442311
0.44865
0.45774
0.469505
0.484061
0.502209
0.523257
0.549242
0.581051
0.621319
0.674781
0.767031
3.00001
3.00001
3.00001
3.00001
3.00001
3.00001
3.00001
3.00001
3
3
2.99998
2.99996
2.99985
2.99973
2.99849
2.99676
2.98516
2.98838
2.95543
2.86911
2.61179
2.14294
1.23019
0.689818
0.491955
0.505775
0.523757
0.530886
0.526188
0.517626
0.508801
0.502318
0.497065
0.492354
0.488409
0.485653
0.484785
0.486792
0.491679
0.499472
0.510489
0.525503
0.544591
0.568822
0.599918
0.638292
0.689281
0.758677
0.863337
1.00538
3.00001
3.00001
3.00001
3.00001
3.00001
3.00001
3.00001
3.00001
3.00001
3
3
2.99999
2.99995
2.9999
2.99947
2.9989
2.99429
2.9937
2.96663
2.91669
2.74883
2.39344
1.66317
0.895698
0.535168
0.536973
0.557788
0.570646
0.567276
0.558103
0.54892
0.541845
0.537145
0.533522
0.531077
0.530498
0.532437
0.536743
0.543801
0.553661
0.567688
0.58559
0.609395
0.638701
0.676426
0.725062
0.786661
0.871163
0.992239
1.13624
3.00001
3.00001
3.00001
3.00001
3.00001
3.00001
3.00001
3.00001
3.00001
3.00001
3
3
2.99996
2.99994
2.99956
2.99905
2.9955
2.99356
2.97008
2.96541
2.81425
2.51753
1.82929
1.03723
0.564596
0.538296
0.571149
0.596654
0.6014
0.596149
0.589315
0.583634
0.579864
0.577408
0.576426
0.57829
0.582223
0.58815
0.596842
0.60861
0.624685
0.645446
0.671614
0.705299
0.74566
0.798145
0.861509
0.942024
1.04921
1.16123
3.00001
3.00001
3.00001
3.00001
3.00001
3.00001
3.00001
3.00001
3.00001
3.00001
3
2.99999
2.99995
2.99992
2.99961
2.99919
2.99634
2.99496
2.97511
2.97828
2.85328
2.62644
2.02437
1.27797
0.680853
0.553631
0.579374
0.605181
0.617022
0.617591
0.615189
0.613102
0.612729
0.613377
0.616446
0.621739
0.628725
0.637099
0.647917
0.66185
0.679153
0.701508
0.728169
0.762341
0.802363
0.852272
0.9115
0.982444
1.07172
1.16284
3.00001
3.00001
3.00001
3.00001
3.00001
3.00001
3.00001
3.00001
3.00001
3.00001
3
3
2.99997
2.99995
2.99972
2.99943
2.99741
2.9963
2.98203
2.98047
2.8966
2.71432
2.27256
1.57493
0.842548
0.596582
0.597982
0.619331
0.635081
0.63836
0.637314
0.636923
0.638359
0.641673
0.648052
0.656971
0.666625
0.678111
0.691196
0.707662
0.726427
0.749925
0.776561
0.809458
0.847126
0.89237
0.944569
1.00572
1.07924
1.15398
3.00001
3.00001
3.00001
3.00001
3.00001
3.00001
3.00001
3.00001
3.00001
3.00001
3
2.99999
2.99998
2.99989
2.99983
2.99916
2.99828
2.99208
2.99332
2.96524
2.96887
2.82972
2.5503
1.89171
1.12836
0.68251
0.631753
0.647844
0.66381
0.668506
0.667287
0.666036
0.666727
0.671075
0.678924
0.688952
0.699884
0.712915
0.727518
0.745502
0.765351
0.789437
0.816072
0.847498
0.882724
0.923478
0.969567
1.02191
1.08378
1.146
3.00001
3.00001
3.00001
3.00001
3.00001
3.00001
3.00001
3.00001
3.00001
3.00001
3.00001
3
3
2.99996
2.99993
2.99965
2.99929
2.9968
2.99559
2.97901
2.9829
2.8767
2.68653
2.15907
1.46552
0.831928
0.66728
0.668889
0.683506
0.693846
0.694951
0.694058
0.695365
0.70024
0.708319
0.718353
0.729669
0.74315
0.758324
0.776528
0.796625
0.820256
0.84632
0.876153
0.909233
0.94649
0.98793
1.03417
1.08755
1.14099
3.00001
3.00001
3.00001
3.00001
3.00001
3.00001
3.00001
3.00001
3.00001
3.00001
3.00001
3
3
2.99997
2.99996
2.99976
2.99952
2.99771
2.99707
2.98547
2.98785
2.9213
2.79253
2.48414
1.9069
1.08142
0.753252
0.703277
0.710118
0.718504
0.722484
0.722644
0.724028
0.728983
0.736444
0.746528
0.757855
0.771636
0.786756
0.804637
0.82416
0.846541
0.871126
0.898712
0.929134
0.96301
1.00032
1.04171
1.08869
1.13584
3.00001
3.00001
3.00001
3.00001
3.00001
3.00001
3.00001
3.00001
3.00001
3.00001
3.00001
3.00001
3
2.99999
2.99999
2.9999
2.99982
2.99921
2.99861
2.99284
2.99392
2.95748
2.89445
2.6825
2.27443
1.47987
0.951796
0.765741
0.746879
0.750895
0.754975
0.755428
0.75581
0.759168
0.765335
0.774546
0.785567
0.79889
0.814018
0.8312
0.850352
0.871419
0.894625
0.919971
0.947645
0.978002
1.01121
1.04793
1.08931
1.13061
3.00001
3.00001
3.00001
3.00001
3.00001
3.00001
3.00001
3.00001
3.00001
3.00001
3.00001
3.00001
3
3
2.99998
2.99994
2.99983
2.99963
2.99859
2.99622
2.99106
2.9734
2.93529
2.81063
2.55138
1.98564
1.22477
0.876962
0.791794
0.784508
0.786436
0.790326
0.791548
0.793409
0.797636
0.804721
0.814232
0.826108
0.839979
0.856193
0.874097
0.894287
0.915917
0.939999
0.965525
0.993689
1.0236
1.05627
1.09275
1.12934
3.00001
3.00001
3.00001
3.00001
3.00001
3.00001
3.00001
3.00001
3.00001
3.00001
3.00001
3.00001
3.00001
3
2.99999
2.99999
2.99991
2.99982
2.99914
2.99892
2.99481
2.99129
2.97281
2.93636
2.78095
2.45399
1.77499
1.13118
0.857163
0.823302
0.823246
0.828143
0.832713
0.835582
0.838772
0.843622
0.850513
0.859645
0.870693
0.884177
0.899396
0.916978
0.936318
0.957858
0.981381
1.00698
1.03484
1.06482
1.09846
1.13162
3.00001
3.00001
3.00001
3.00001
3.00001
3.00001
3.00001
3.00001
3.00001
3.00001
3.00001
3.00001
3.00001
3.00001
3
2.99999
2.99998
2.99989
2.9998
2.99905
2.99842
2.99223
2.99031
2.9552
2.87732
2.66196
2.20065
1.4541
0.992179
0.852128
0.842482
0.851741
0.862778
0.871633
0.877716
0.883491
0.890043
0.898068
0.907365
0.918191
0.930733
0.945105
0.961542
0.97988
1.00024
1.02266
1.04722
1.07402
1.1041
1.13422
3.00001
3.00001
3.00001
3.00001
3.00001
3.00001
3.00001
3.00001
3.00001
3.00001
3.00001
3.00001
3.00001
3.00001
3
3
2.99997
2.99996
2.99976
2.99959
2.99799
2.99724
2.98613
2.99073
2.9299
2.81746
2.55394
1.98252
1.26727
0.94825
0.87441
0.873698
0.883881
0.896399
0.906162
0.913353
0.920273
0.928322
0.93772
0.948523
0.960629
0.974185
0.989074
1.00555
1.02347
1.04307
1.06446
1.08801
1.11459
1.14115
3.00001
3.00001
3.00001
3.00001
3.00001
3.00001
3.00001
3.00001
3.00001
3.00001
3.00001
3.00001
3.00001
3.00001
3
3
2.99998
2.99997
2.99988
2.99976
2.99937
2.99784
2.99667
2.98215
2.9839
2.9106
2.76536
2.44403
1.83192
1.15791
0.921439
0.892303
0.901067
0.913849
0.927505
0.937179
0.945133
0.953175
0.962328
0.972823
0.984391
0.997252
1.01118
1.02651
1.04305
1.06121
1.08086
1.10237
1.12647
1.15072
3.00001
3.00001
3.00001
3.00001
3.00001
3.00001
3.00001
3.00001
3.00001
3.00001
3.00001
3.00001
3.00001
3.00001
3.00001
3.00001
3
2.99999
2.99998
2.99987
2.99979
2.99893
2.99883
2.99384
2.99088
2.96708
2.92078
2.72215
2.32979
1.5698
1.09964
0.93744
0.923395
0.932805
0.945575
0.95885
0.969262
0.978858
0.988212
0.998474
1.00947
1.02163
1.03467
1.04895
1.06424
1.08093
1.09888
1.11854
1.14047
1.16262
3.00001
3.00001
3.00001
3.00001
3.00001
3.00001
3.00001
3.00001
3.00001
3.00001
3.00001
3.00001
3.00001
3.00001
3.00001
3.00001
3
3
2.99998
2.99997
2.99986
2.99972
2.99877
2.99807
2.99027
2.98923
2.94575
2.865
2.6477
2.15388
1.43108
1.07345
0.970262
0.959211
0.966077
0.978028
0.990735
1.00128
1.01071
1.02051
1.03102
1.04253
1.05482
1.06819
1.08243
1.09798
1.11465
1.13288
1.15324
1.17389
3.00001
3.00001
3.00001
3.00001
3.00001
3.00001
3.00001
3.00001
3.00001
3.00001
3.00001
3.00001
3.00001
3.00001
3.00001
3.00001
3
3
2.99998
2.99996
2.99977
2.99977
2.99928
2.99867
2.99294
2.99412
2.96972
2.96622
2.85226
2.60994
2.05101
1.42053
1.07633
1.01266
1.00263
1.00698
1.01683
1.02811
1.03727
1.0459
1.05486
1.06492
1.07581
1.08781
1.10067
1.11468
1.12984
1.14637
1.16522
1.18424
3.00001
3.00001
3.00001
3.00001
3.00001
3.00001
3.00001
3.00001
3.00001
3.00001
3.00001
3.00001
3.00001
3.00001
3.00001
3.00001
3.00001
3
3
2.99999
2.99998
2.99985
2.99985
2.99904
2.99856
2.99205
2.99524
2.96002
2.97611
2.82478
2.58201
2.02044
1.4188
1.08936
1.03826
1.03147
1.03691
1.04674
1.05767
1.0676
1.07686
1.08642
1.09676
1.10792
1.12009
1.13303
1.14717
1.16236
1.17969
1.19694
3.00001
3.00001
3.00001
3.00001
3.00001
3.00001
3.00001
3.00001
3.00001
3.00001
3.00001
3.00001
3.00001
3.00001
3.00001
3.00001
3.00001
3.00001
3
3
2.99998
2.99996
2.99985
2.99976
2.99907
2.99837
2.9949
2.98843
2.96789
2.92812
2.80863
2.55856
2.01127
1.37742
1.11652
1.05886
1.05351
1.05937
1.06951
1.08138
1.09221
1.10234
1.1129
1.12382
1.13585
1.14847
1.16239
1.17709
1.19378
1.21041
3.00001
3.00001
3.00001
3.00001
3.00001
3.00001
3.00001
3.00001
3.00001
3.00001
3.00001
3.00001
3.00001
3.00001
3.00001
3.00001
3.00001
3.00001
3.00001
3
3
2.99998
2.99996
2.99985
2.99975
2.99906
2.99833
2.9949
2.98824
2.96613
2.9251
2.81003
2.56534
1.9924
1.36802
1.13556
1.08389
1.07611
1.08176
1.09176
1.10382
1.11489
1.12593
1.13667
1.14813
1.16017
1.17344
1.18763
1.20375
1.2201
3.00001
3.00001
3.00001
3.00001
3.00001
3.00001
3.00001
3.00001
3.00001
3.00001
3.00001
3.00001
3.00001
3.00001
3.00001
3.00001
3.00001
3.00001
3.00001
3
3
2.99999
2.99998
2.99993
2.99988
2.99953
2.99933
2.99729
2.99612
2.98505
2.97325
2.917
2.81818
2.55116
2.00794
1.43428
1.16559
1.12277
1.11502
1.11818
1.12626
1.13668
1.14606
1.15521
1.16449
1.17478
1.18639
1.1992
1.21398
1.22901
3.00001
3.00001
3.00001
3.00001
3.00001
3.00001
3.00001
3.00001
3.00001
3.00001
3.00001
3.00001
3.00001
3.00001
3.00001
3.00001
3.00001
3.00001
3.00001
3.00001
3.00001
3
3
2.99999
2.99995
2.99988
2.9996
2.99933
2.99782
2.99546
2.98671
2.97277
2.92952
2.82048
2.57452
2.06137
1.4971
1.18783
1.14169
1.13674
1.14321
1.15292
1.16477
1.17489
1.18522
1.19492
1.20528
1.21606
1.22886
1.24189
3.00001
3.00001
3.00001
3.00001
3.00001
3.00001
3.00001
3.00001
3.00001
3.00001
3.00001
3.00001
3.00001
3.00001
3.00001
3.00001
3.00001
3.00001
3.00001
3.00001
3.00001
3.00001
3
3
2.99997
2.99995
2.9998
2.99973
2.99886
2.99845
2.99447
2.98951
2.96888
2.93086
2.82369
2.60105
2.12283
1.54055
1.25843
1.18333
1.17046
1.17143
1.1787
1.1886
1.19921
1.20979
1.22055
1.23199
1.24457
1.2576
3.00001
3.00001
3.00001
3.00001
3.00001
3.00001
3.00001
3.00001
3.00001
3.00001
3.00001
3.00001
3.00001
3.00001
3.00001
3.00001
3.00001
3.00001
3.00001
3.00001
3.00001
3.00001
3.00001
3
2.99999
2.99999
2.99993
2.99989
2.99956
2.99942
2.99771
2.99683
2.98865
2.97869
2.93024
2.86335
2.65087
2.24175
1.69977
1.32588
1.23142
1.20514
1.20099
1.20447
1.21258
1.22289
1.23307
1.24404
1.25604
1.26842
3.00001
3.00001
3.00001
3.00001
3.00001
3.00001
3.00001
3.00001
3.00001
3.00001
3.00001
3.00001
3.00001
3.00001
3.00001
3.00001
3.00001
3.00001
3.00001
3.00001
3.00001
3.00001
3.00001
3.00001
3
3
2.99998
2.99997
2.99986
2.9998
2.9992
2.9988
2.99534
2.994
2.97975
2.95125
2.89611
2.74137
2.35936
1.86299
1.39603
1.26602
1.23051
1.22569
1.22875
1.23538
1.24526
1.25559
1.26682
1.27834
3.00001
3.00001
3.00001
3.00001
3.00001
3.00001
3.00001
3.00001
3.00001
3.00001
3.00001
3.00001
3.00001
3.00001
3.00001
3.00001
3.00001
3.00001
3.00001
3.00001
3.00001
3.00001
3.00001
3.00001
3.00001
3
3
2.99998
2.99997
2.99986
2.99982
2.99926
2.99904
2.99617
2.99517
2.98074
2.97082
2.90275
2.79841
2.54722
2.05179
1.58693
1.33906
1.2847
1.27207
1.26996
1.27139
1.277
1.28591
1.29614
3.00001
3.00001
3.00001
3.00001
3.00001
3.00001
3.00001
3.00001
3.00001
3.00001
3.00001
3.00001
3.00001
3.00001
3.00001
3.00001
3.00001
3.00001
3.00001
3.00001
3.00001
3.00001
3.00001
3.00001
3.00001
3.00001
3
3
2.99998
2.99998
2.99992
2.99986
2.99932
2.99931
2.99764
2.99625
2.98005
2.97964
2.93691
2.88447
2.61098
2.23712
1.74816
1.46162
1.34323
1.31105
1.30377
1.30485
1.31129
1.31956
3.00001
3.00001
3.00001
3.00001
3.00001
3.00001
3.00001
3.00001
3.00001
3.00001
3.00001
3.00001
3.00001
3.00001
3.00001
3.00001
3.00001
3.00001
3.00001
3.00001
3.00001
3.00001
3.00001
3.00001
3.00001
3.00001
3.00001
3.00001
3
3
2.99997
2.99996
2.99982
2.99978
2.99915
2.99873
2.99622
2.99214
2.97564
2.96043
2.88214
2.76625
2.49041
2.04552
1.6499
1.41844
1.36219
1.34848
1.34707
1.35179
3.00001
3.00001
3.00001
3.00001
3.00001
3.00001
3.00001
3.00001
3.00001
3.00001
3.00001
3.00001
3.00001
3.00001
3.00001
3.00001
3.00001
3.00001
3.00001
3.00001
3.00001
3.00001
3.00001
3.00001
3.00001
3.00001
3.00001
3.00001
3.00001
3
3
2.99999
2.99999
2.99993
2.9999
2.99966
2.99954
2.99781
2.99695
2.9876
2.9848
2.94071
2.86926
2.61409
2.28414
1.8652
1.57021
1.43091
1.39725
1.39269
3.00001
3.00001
3.00001
3.00001
3.00001
3.00001
3.00001
3.00001
3.00001
3.00001
3.00001
3.00001
3.00001
3.00001
3.00001
3.00001
3.00001
3.00001
3.00001
3.00001
3.00001
3.00001
3.00001
3.00001
3.00001
3.00001
3.00001
3.00001
3.00001
3.00001
3.00001
3
3
2.99999
2.99996
2.99992
2.99975
2.99982
2.99894
3.00162
2.99595
2.98997
2.95348
2.92197
2.8076
2.5409
2.19435
1.8113
1.57242
1.48666
3.00001
3.00001
3.00001
3.00001
3.00001
3.00001
3.00001
3.00001
3.00001
3.00001
3.00001
3.00001
3.00001
3.00001
3.00001
3.00001
3.00001
3.00001
3.00001
3.00001
3.00001
3.00001
3.00001
3.00001
3.00001
3.00001
3.00001
3.00001
3.00001
3.00001
3.00001
3.00001
3
3
2.99999
2.99999
2.99994
2.99989
2.99965
2.99969
2.99866
3.00245
2.99425
2.98716
2.94735
2.90849
2.81376
2.52749
2.26534
1.89699
3.00001
3.00001
3.00001
3.00001
3.00001
3.00001
3.00001
3.00001
3.00001
3.00001
3.00001
3.00001
3.00001
3.00001
3.00001
3.00001
3.00001
3.00001
3.00001
3.00001
3.00001
3.00001
3.00001
3.00001
3.00001
3.00001
3.00001
3.00001
3.00001
3.00001
3.00001
3.00001
3.00001
3.00001
3.00001
3
3
2.99999
3
2.99996
3.00019
2.99951
2.99933
2.99324
2.99615
2.96731
3.06181
2.92102
2.78982
2.34138
3.00001
3.00001
3.00001
3.00001
3.00001
3.00001
3.00001
3.00001
3.00001
3.00001
3.00001
3.00001
3.00001
3.00001
3.00001
3.00001
3.00001
3.00001
3.00001
3.00001
3.00001
3.00001
3.00001
3.00001
3.00001
3.00001
3.00001
3.00001
3.00001
3.00001
3.00001
3.00001
3.00001
3.00001
3.00001
3.00001
3.00001
3
3
2.99997
3.00007
3.00016
3.0014
3.00149
3.00908
3.00272
3.05619
2.99064
2.94446
2.68644
3.00001
3.00001
3.00001
3.00001
3.00001
3.00001
3.00001
3.00001
3.00001
3.00001
3.00001
3.00001
3.00001
3.00001
3.00001
3.00001
3.00001
3.00001
3.00001
3.00001
3.00001
3.00001
3.00001
3.00001
3.00001
3.00001
3.00001
3.00001
3.00001
3.00001
3.00001
3.00001
3.00001
3.00001
3.00001
3.00001
3.00001
3
3
2.99999
3.00003
3.00006
3.00052
3.00049
3.00296
2.99891
3.02141
2.99163
2.9624
2.84733
3.00001
3.00001
3.00001
3.00001
3.00001
3.00001
3.00001
3.00001
3.00001
3.00001
3.00001
3.00001
3.00001
3.00001
3.00001
3.00001
3.00001
3.00001
3.00001
3.00001
3.00001
3.00001
3.00001
3.00001
3.00001
3.00001
3.00001
3.00001
3.00001
3.00001
3.00001
3.00001
3.00001
3.00001
3.00001
3.00001
3.00001
3.00001
3.00001
3
3.00003
3.00006
3.0005
3.00053
3.00314
3.00041
3.02043
2.99391
2.97186
2.86928
3.00001
3.00001
3.00001
3.00001
3.00001
3.00001
3.00001
3.00001
3.00001
3.00001
3.00001
3.00001
3.00001
3.00001
3.00001
3.00001
3.00001
3.00001
3.00001
3.00001
3.00001
3.00001
3.00001
3.00001
3.00001
3.00001
3.00001
3.00001
3.00001
3.00001
3.00001
3.00001
3.00001
3.00001
3.00001
3.00001
3.00001
3.00001
3.00001
3
3.00004
3.00006
3.00049
3.00051
3.00303
3.00042
3.01977
2.99424
2.9739
2.87407
3.00001
3.00001
3.00001
3.00001
3.00001
3.00001
3.00001
3.00001
3.00001
3.00001
3.00001
3.00001
3.00001
3.00001
3.00001
3.00001
3.00001
3.00001
3.00001
3.00001
3.00001
3.00001
3.00001
3.00001
3.00001
3.00001
3.00001
3.00001
3.00001
3.00001
3.00001
3.00001
3.00001
3.00001
3.00001
3.00001
3.00001
3.00001
3
3
2.99996
2.99995
2.99974
2.9997
2.99848
2.99827
2.99114
2.99077
2.96432
2.93699
3.00001
3.00001
3.00001
3.00001
3.00001
3.00001
3.00001
3.00001
3.00001
3.00001
3.00001
3.00001
3.00001
3.00001
3.00001
3.00001
3.00001
3.00001
3.00001
3.00001
3.00001
3.00001
3.00001
3.00001
3.00001
3.00001
3.00001
3.00001
3.00001
3.00001
3.00001
3.00001
3.00001
3.00001
3.00001
3.00001
3.00001
3.00001
3
3
2.99996
2.99995
2.99972
2.99968
2.99841
2.9982
2.99085
2.99132
2.96338
2.93791
3.00001
3.00001
3.00001
3.00001
3.00001
3.00001
3.00001
3.00001
3.00001
3.00001
3.00001
3.00001
3.00001
3.00001
3.00001
3.00001
3.00001
3.00001
3.00001
3.00001
3.00001
3.00001
3.00001
3.00001
3.00001
3.00001
3.00001
3.00001
3.00001
3.00001
3.00001
3.00001
3.00001
3.00001
3.00001
3.00001
3.00001
3.00001
3.00001
3
3.00003
3.00005
3.00043
3.00043
3.00264
2.99988
3.01853
2.99344
2.97392
2.87707
3.00001
3.00001
3.00001
3.00001
3.00001
3.00001
3.00001
3.00001
3.00001
3.00001
3.00001
3.00001
3.00001
3.00001
3.00001
3.00001
3.00001
3.00001
3.00001
3.00001
3.00001
3.00001
3.00001
3.00001
3.00001
3.00001
3.00001
3.00001
3.00001
3.00001
3.00001
3.00001
3.00001
3.00001
3.00001
3.00001
3.00001
3.00001
3
3
2.99997
2.99996
2.9998
2.99985
2.99907
2.99849
2.99157
2.98961
2.96166
2.93803
1.49279
1.66237
1.69822
1.62713
1.50991
1.36747
1.22684
1.09496
1.03936
1.00318
0.938107
0.790455
0.47771
0.16849
0.154652
0.203657
0.312141
0.404514
0.476552
0.532562
0.572408
0.598738
0.617324
0.631211
0.639903
0.645596
0.647074
0.638877
0.614603
0.569887
0.508172
0.438939
0.367533
0.298165
0.231144
0.169944
0.114348
0.064729
0.031194
0.0512322
0.0890751
0.128204
0.164921
0.19806
0.228631
0.258697
0.289988
0.319892
0.34846
0.37514
0.401201
0.425864
0.450198
0.473256
0.496172
0.517832
0.53952
0.560027
0.580663
0.600156
0.619881
0.638484
0.657396
0.675201
0.693304
0.710454
0.727768
0.74438
0.760959
0.777109
0.793051
0.80876
0.824183
0.839455
0.854469
0.869292
0.883979
0.898366
0.912785
0.926743
0.940922
0.954495
0.968446
0.98167
0.995353
1.00827
1.02166
1.03428
1.0474
1.05971
1.07268
1.08471
1.09753
1.10923
1.12166
1.13284
1.14434
1.15391
1.16235
1.16702
1.43676
1.54521
1.57717
1.5783
1.57782
1.60063
1.62257
1.61697
1.58054
1.50579
1.39179
1.24866
0.992102
0.663278
0.460938
0.372204
0.285916
0.19613
0.122672
0.0780871
0.11037
0.176107
0.250022
0.318151
0.361562
0.382928
0.388489
0.374662
0.344491
0.293966
0.234121
0.172774
0.118403
0.085314
0.082652
0.111034
0.149046
0.1866
0.222444
0.255408
0.288714
0.32127
0.352714
0.382202
0.409308
0.435192
0.462198
0.489048
0.514461
0.538136
0.561323
0.583347
0.605282
0.626
0.646875
0.66648
0.686377
0.705059
0.72409
0.741971
0.760259
0.77741
0.795045
0.811526
0.828552
0.844427
0.86089
0.876222
0.892188
0.907045
0.922573
0.937012
0.952149
0.966222
0.980999
0.994745
1.00919
1.02264
1.0368
1.04999
1.06391
1.0769
1.09064
1.10346
1.11715
1.12986
1.14361
1.1562
1.17002
1.18241
1.1962
1.20832
1.22195
1.23385
1.24704
1.25866
1.27085
1.28128
1.29038
1.29637
1.36933
1.4611
1.5354
1.60837
1.68986
1.76612
1.80853
1.80897
1.79851
1.76668
1.70601
1.59084
1.3513
1.06106
0.831965
0.741759
0.663819
0.583113
0.505316
0.428978
0.354504
0.282053
0.210283
0.141921
0.0821366
0.041775
0.0452436
0.075895
0.0716019
0.0925352
0.134098
0.182873
0.226515
0.26878
0.303785
0.337482
0.369027
0.398576
0.426271
0.452407
0.477806
0.503009
0.527543
0.551321
0.573448
0.594103
0.615464
0.637497
0.659534
0.679716
0.699713
0.718499
0.737562
0.755534
0.773879
0.791164
0.808865
0.825506
0.8426
0.858586
0.875139
0.890526
0.906578
0.921427
0.936954
0.95127
0.966303
0.980127
0.994777
1.00819
1.02257
1.03565
1.04982
1.06262
1.07657
1.08911
1.10281
1.11512
1.12854
1.14071
1.15383
1.16597
1.17886
1.19117
1.20382
1.21633
1.22863
1.24138
1.25336
1.26637
1.27808
1.29131
1.30281
1.31615
1.3274
1.34063
1.35122
1.36352
1.37159
1.37965
1.33561
1.42855
1.51194
1.59027
1.66465
1.72972
1.78536
1.83142
1.85019
1.84917
1.83134
1.77661
1.65228
1.37426
1.07343
0.976086
0.908878
0.844163
0.786889
0.726742
0.664403
0.600381
0.534853
0.468982
0.406378
0.350987
0.306744
0.277897
0.288438
0.335197
0.386579
0.434939
0.474392
0.504362
0.528394
0.549076
0.568863
0.587656
0.606492
0.624269
0.642649
0.66032
0.678901
0.696601
0.714364
0.730244
0.746965
0.764263
0.783122
0.800348
0.817577
0.833628
0.850361
0.86609
0.882517
0.89777
0.913723
0.928562
0.944219
0.958781
0.974188
0.988405
1.00346
1.01731
1.03203
1.04559
1.06
1.07327
1.08729
1.10021
1.11381
1.12634
1.13954
1.15172
1.16456
1.17649
1.18903
1.20083
1.21308
1.22491
1.23695
1.24895
1.26059
1.27267
1.28381
1.29592
1.30663
1.31868
1.3292
1.34111
1.35149
1.36337
1.37361
1.38547
1.39556
1.40737
1.41717
1.42816
1.43613
1.44281
1.30549
1.39684
1.48051
1.55796
1.62941
1.69774
1.75759
1.81453
1.86165
1.88625
1.88535
1.86855
1.81231
1.6758
1.38579
1.15274
1.07398
1.02389
0.977228
0.933449
0.887213
0.835342
0.780407
0.724399
0.668306
0.612605
0.558753
0.523036
0.530391
0.569035
0.615305
0.657911
0.690645
0.712495
0.723601
0.729473
0.735406
0.742995
0.752597
0.7628
0.774265
0.785709
0.798409
0.810962
0.824118
0.836038
0.848806
0.861996
0.877449
0.892294
0.907199
0.920854
0.935387
0.949231
0.964013
0.977774
0.992225
1.00558
1.01974
1.0331
1.04732
1.06074
1.07479
1.0879
1.10163
1.11445
1.12811
1.14083
1.15445
1.167
1.18039
1.1927
1.20583
1.218
1.23089
1.24309
1.25575
1.2681
1.28057
1.293
1.3051
1.31746
1.32914
1.34139
1.35263
1.36479
1.3756
1.38767
1.39816
1.41009
1.42046
1.43211
1.44256
1.45377
1.4643
1.47479
1.48513
1.49435
1.50297
1.50771
1.27833
1.36457
1.44327
1.52039
1.59076
1.65701
1.72001
1.7743
1.82695
1.86987
1.89963
1.90035
1.885
1.83077
1.68864
1.42094
1.21836
1.15553
1.11883
1.07911
1.04102
1.00391
0.95856
0.909089
0.858392
0.796382
0.728535
0.688344
0.695192
0.731518
0.779044
0.822587
0.855518
0.877347
0.886446
0.883084
0.876682
0.87306
0.873263
0.876701
0.882357
0.889132
0.897576
0.906416
0.916586
0.925733
0.935359
0.944885
0.95697
0.969605
0.982974
0.995065
1.00782
1.01983
1.03287
1.04531
1.05865
1.07123
1.08453
1.09702
1.11026
1.12289
1.13629
1.14914
1.16252
1.1753
1.18839
1.20097
1.21387
1.2264
1.23922
1.25163
1.26418
1.27623
1.28841
1.30016
1.31209
1.32366
1.33548
1.34708
1.3588
1.37045
1.38195
1.39364
1.40485
1.41649
1.4274
1.43886
1.44953
1.46067
1.47126
1.48205
1.49277
1.50318
1.51409
1.52397
1.53476
1.54353
1.55259
1.55696
1.25583
1.33594
1.41036
1.4816
1.55205
1.61586
1.67728
1.73539
1.78589
1.83629
1.87551
1.90592
1.90791
1.8928
1.84069
1.69529
1.4512
1.28088
1.2244
1.191
1.15624
1.12256
1.08631
1.04027
0.98627
0.912176
0.827698
0.788175
0.799362
0.836904
0.885368
0.934117
0.971419
0.994662
1.00767
1.00843
0.996461
0.981894
0.971085
0.966297
0.965746
0.968106
0.97277
0.978293
0.985237
0.991837
0.998897
1.00588