/*--------------------------------*- C++ -*----------------------------------*\
| =========                 |                                                 |
| \\      /  F ield         | OpenFOAM: The Open Source CFD Toolbox           |
|  \\    /   O peration     | Version:  2112                                  |
|   \\  /    A nd           | Website:  www.openfoam.com                      |
|    \\/     M anipulation  |                                                 |
\*---------------------------------------------------------------------------*/
FoamFile
{
    version     2.0;
    format      ascii;
    arch        "LSB;label=32;scalar=64";
    class       volScalarField;
    location    "3.4995";
    object      p;
}
// * * * * * * * * * * * * * * * * * * * * * * * * * * * * * * * * * * * * * //

dimensions      [1 -1 -2 0 0 0 0];

internalField   nonuniform List<scalar> 
7000
(
0.999998
1
1.00001
1.00001
1.00001
1.00001
1.00001
1.00001
1.00003
1.00003
1.00014
1.00037
1.0012
1.00244
1.00697
1.01245
1.04024
1.05512
1.32518
1.51134
3.05115
6.09717
12.1878
11.5656
10.7338
10.5167
10.5729
10.718
10.8753
10.9814
11.0619
11.141
11.2233
11.3061
11.3871
11.4661
11.5432
11.6182
11.6908
11.7605
11.8274
11.8909
11.9514
12.0086
12.0623
12.1126
12.1586
12.2
12.2351
12.2673
1
1.00001
1.00001
1.00001
1.00001
1.00001
1.00001
1.00001
1.00003
1.00003
1.00014
1.00037
1.00119
1.00241
1.00701
1.01237
1.04134
1.05944
1.30612
1.50995
2.96048
5.88704
12.1235
11.5508
10.7303
10.5147
10.5682
10.7092
10.8655
10.9721
11.0534
11.133
11.2156
11.2986
11.3798
11.4592
11.5365
11.6119
11.6849
11.755
11.8222
11.886
11.9467
12.004
12.0578
12.1079
12.1535
12.1945
12.2282
12.2587
1
1.00001
1.00001
1.00001
1.00001
1.00001
1.00001
1.00001
1.00003
1.00003
1.00014
1.00036
1.00118
1.00237
1.00696
1.0121
1.04162
1.05974
1.29947
1.49476
2.94817
5.78385
12.1241
11.5286
10.7221
10.5173
10.5707
10.7101
10.8632
10.9686
11.0503
11.13
11.2122
11.2947
11.3755
11.4544
11.5314
11.6063
11.6789
11.7485
11.8152
11.8784
11.9385
11.9949
12.0475
12.096
12.1394
12.1775
12.2072
12.2321
1
1.00001
1.00001
1.00001
1.00001
1.00001
1.00001
1.00001
1.00002
1.00003
1.00014
1.00036
1.00115
1.00229
1.00669
1.01144
1.03977
1.0533
1.29852
1.45694
2.93435
5.62679
12.0352
11.4609
10.6896
10.5046
10.5597
10.6992
10.8486
10.9533
11.0359
11.1163
11.1987
11.2811
11.3618
11.4407
11.5176
11.5925
11.6648
11.7341
11.8004
11.8631
11.9224
11.9777
12.0289
12.0753
12.116
12.1508
12.1763
12.1963
1
1.00001
1.00001
1.00001
1.00001
1.00001
1.00001
1.00001
1.00002
1.00003
1.00014
1.00036
1.00113
1.00228
1.0065
1.01098
1.03876
1.05085
1.29039
1.44001
2.90277
5.51073
11.9358
11.3997
10.6661
10.4999
10.5554
10.6931
10.8382
10.9413
11.0239
11.1041
11.186
11.2675
11.3475
11.4257
11.5018
11.5759
11.6473
11.7157
11.781
11.8424
11.9004
11.954
12.0031
12.0471
12.0849
12.1165
12.1388
12.1557
1
1
1.00001
1.00001
1.00001
1.00001
1.00001
1.00001
1.00001
1.00004
1.00014
1.00052
1.00113
1.00329
1.0063
1.01904
1.02835
1.03039
1.29174
1.38906
2.90047
5.41163
11.7863
11.3166
10.6339
10.4865
10.5418
10.6772
10.8191
10.9219
11.0049
11.0852
11.1667
11.2478
11.3272
11.4048
11.4802
11.5535
11.6239
11.6913
11.7553
11.8153
11.8716
11.9233
11.9702
12.0116
12.0466
12.0752
12.0947
12.1092
1
1
1.00001
1.00001
1.00001
1.00001
1.00001
1.00001
1
1.00004
1.00014
1.00051
1.0011
1.00315
1.00598
1.01776
1.02554
1.02657
1.28188
1.36789
2.86142
5.28573
11.6215
11.2374
10.6168
10.4767
10.5286
10.6579
10.7985
10.9014
10.9841
11.0636
11.1441
11.2242
11.3027
11.3792
11.4536
11.5256
11.5946
11.6604
11.7228
11.7812
11.8355
11.8851
11.9297
11.9685
12.0009
12.0271
12.0445
12.0574
1
1
1.00001
1.00001
1.00001
1.00001
1.00001
1.00001
1
1.00004
1.00014
1.00049
1.00104
1.00299
1.00558
1.01715
1.0256
1.02513
1.27143
1.34185
2.81558
5.14516
11.4367
11.1405
10.6197
10.4658
10.51
10.6293
10.7719
10.8763
10.9585
11.0368
11.1164
11.1955
11.2729
11.3482
11.4212
11.4916
11.5589
11.6229
11.6833
11.7398
11.792
11.8392
11.8815
11.9178
11.9478
11.9716
11.987
11.9985
1
1
1.00001
1.00001
1.00001
1.00001
1.00001
1.00001
1
1.00004
1.00013
1.00045
1.00095
1.00275
1.00507
1.01532
1.02321
1.02541
1.25304
1.31782
2.76454
4.98232
11.2174
11.0336
10.6354
10.4554
10.4879
10.5937
10.7403
10.8469
10.9283
11.0053
11.0836
11.1615
11.2376
11.3113
11.3825
11.451
11.5162
11.5781
11.6361
11.6902
11.74
11.785
11.8249
11.8589
11.8867
11.9087
11.9227
11.9333
1
1
1
1.00001
1.00001
1.00001
1.00001
1.00001
1
1.00004
1.00012
1.0004
1.00086
1.00242
1.00445
1.01384
1.01996
1.01849
1.24344
1.28949
2.70794
4.80281
10.9578
10.9277
10.6436
10.4401
10.462
10.5544
10.7042
10.8126
10.8931
10.9687
11.0456
11.122
11.1963
11.2681
11.337
11.4032
11.4659
11.5253
11.5809
11.6324
11.6796
11.722
11.7593
11.791
11.8166
11.8368
11.8494
11.8589
1
1
1
1.00001
1.00001
1.00001
1.00001
1
1
1.00003
1.0001
1.00035
1.00074
1.0021
1.00367
1.0118
1.01671
1.01737
1.22184
1.2582
2.64742
4.59966
10.6364
10.8608
10.6212
10.413
10.4301
10.5141
10.6638
10.7727
10.8524
10.9266
11.0018
11.0764
11.1486
11.2179
11.2841
11.3473
11.4071
11.4635
11.5161
11.5648
11.6092
11.6489
11.6837
11.7129
11.7367
11.7553
11.7669
11.776
1
1
1
1.00001
1.00001
1.00001
1.00001
1.00001
1
1.00003
1.00009
1.00031
1.00066
1.00187
1.00365
1.01057
1.01469
1.01218
1.20632
1.22338
2.57438
4.38118
10.2517
10.8014
10.5891
10.3791
10.3936
10.4721
10.6195
10.7275
10.8061
10.8787
10.9519
11.0241
11.0936
11.1599
11.223
11.2828
11.3393
11.3923
11.4415
11.4868
11.5279
11.5645
11.5964
11.6231
11.6445
11.6612
11.6716
11.68
1
1
1
1
1.00001
1.00001
1.00001
1.00001
1
1.00003
1.00008
1.00027
1.00057
1.00157
1.00308
1.00911
1.01111
1.01019
1.18229
1.18679
2.4939
4.13537
9.78822
10.7405
10.5569
10.3417
10.3537
10.4272
10.5708
10.6771
10.7542
10.8248
10.8953
10.9645
11.0306
11.0931
11.1524
11.2083
11.2607
11.3097
11.355
11.3965
11.4339
11.4668
11.4952
11.5191
11.5384
11.5534
11.5627
11.5708
1
1
1
1
1
1
1.00001
1.00001
1.00001
1.00002
1.00008
1.00019
1.00055
1.00117
1.00266
1.00714
1.01179
1.02217
1.16021
1.20578
2.35653
3.86031
9.24413
10.6751
10.5229
10.3026
10.3121
10.3804
10.5169
10.621
10.6964
10.7642
10.8313
10.8966
10.9586
11.0169
11.0716
11.1229
11.1707
11.2149
11.2554
11.292
11.3248
11.3534
11.3776
11.3975
11.4132
11.4257
11.4333
11.4406
1
1
1
1
1
1
1
1
1.00001
1.00002
1.00009
1.00018
1.00055
1.00103
1.0029
1.00644
1.0138
1.02149
1.14771
1.15302
2.2879
3.53339
8.59573
10.6179
10.4933
10.264
10.2697
10.3313
10.4581
10.5597
10.6328
10.6969
10.7595
10.8199
10.8769
10.9299
10.9794
11.0252
11.0673
11.1058
11.1404
11.171
11.1976
11.2201
11.2389
11.2539
11.2655
11.2747
11.28
11.2869
1
1
1
1
1
1
1
1
1.00001
1.00002
1.00008
1.00016
1.00047
1.00086
1.00253
1.00455
1.01435
1.01804
1.12685
1.11748
2.16825
3.23318
7.82101
10.6285
10.5022
10.2453
10.2275
10.2789
10.3931
10.4933
10.5641
10.6234
10.6803
10.7347
10.7856
10.8323
10.8753
10.9143
10.9493
10.9805
11.0075
11.0303
11.0489
11.0632
11.0737
11.0805
11.0849
11.0883
11.0896
11.0945
1
1
1
1
1
1
1
1
1.00001
1.00003
1.00011
1.00022
1.00064
1.0012
1.00363
1.0066
1.02049
1.0294
1.03303
1.34002
1.50654
3.28493
6.57077
10.6979
10.579
10.2769
10.1945
10.2312
10.3244
10.4238
10.4924
10.5457
10.5952
10.6422
10.6856
10.7246
10.7594
10.7899
10.816
10.8375
10.8543
10.8663
10.8735
10.8758
10.8744
10.8697
10.8622
10.8552
10.8485
10.8506
1
1
1
1
1
1
1
1
1.00001
1.00003
1.00009
1.00018
1.00052
1.00096
1.00306
1.00532
1.0174
1.02702
1.02638
1.27928
1.37297
2.77605
5.15275
10.6589
10.6065
10.361
10.1674
10.1808
10.2437
10.345
10.4142
10.462
10.5036
10.5422
10.5768
10.6065
10.6314
10.6513
10.6659
10.6754
10.6784
10.676
10.6677
10.6515
10.6302
10.6042
10.5754
10.5473
10.5223
10.5139
1
1
1
1
1
1
1
1
1.00001
1.00002
1.00007
1.00013
1.00037
1.0007
1.0021
1.00414
1.01181
1.01672
1.01394
1.21644
1.23071
2.59967
4.4279
10.1188
10.5454
10.3382
10.1067
10.1079
10.1516
10.2464
10.3195
10.3648
10.3996
10.4303
10.4563
10.4763
10.4901
10.4977
10.4977
10.4928
10.4791
10.4553
10.4235
10.3819
10.3311
10.2699
10.2001
10.1263
10.0543
10.0093
1
1
1
1
1
1
1
1
1
1.00001
1.00002
1.00005
1.00006
1.00047
1.00054
1.0034
1.00732
1.01647
1.02024
1.16645
1.16526
2.38516
3.79376
8.9725
10.3754
10.2597
10.0357
10.0139
10.0491
10.1305
10.2037
10.2473
10.2763
10.2994
10.3169
10.3272
10.3293
10.325
10.3112
10.2844
10.2476
10.1989
10.1361
10.057
9.95846
9.83785
9.6913
9.51846
9.32095
9.11599
1
1
1
1
1
1
1
1
1
1
1.00002
1.00004
1.00011
1.00015
1.00131
1.00159
1.00982
1.0241
1.03736
1.03811
1.41637
1.62209
3.65349
7.42599
10.3203
10.2654
10.0524
9.93126
9.94246
9.98732
10.0544
10.0952
10.1171
10.1305
10.1372
10.1359
10.1275
10.106
10.0674
10.0167
9.95089
9.86694
9.75907
9.62146
9.44445
9.21137
8.89325
8.42942
7.70057
6.19963
1
1
1
1
1
1
1
1
1
1
1.00001
1.00001
1.00004
1.00006
1.00046
1.00054
1.00375
1.00555
1.02774
1.02602
1.27888
1.35585
2.74539
4.97155
10.2589
10.3565
10.1372
9.87946
9.83009
9.84652
9.88617
9.91774
9.92902
9.92849
9.9234
9.90806
9.8756
9.82682
9.76418
9.68481
9.58451
9.45732
9.29663
9.09131
8.82646
8.47787
8.00852
7.36138
6.48288
5.0812
1
1
1
1
1
1
1
1
1
1
1.00001
1.00001
1.00003
1.00004
1.00036
1.00036
1.00325
1.00693
1.01661
1.01863
1.19234
1.19766
2.48966
4.07008
9.42208
10.2259
10.0453
9.73272
9.62859
9.63815
9.66747
9.69721
9.70254
9.69753
9.68062
9.64366
9.58839
9.5194
9.43446
9.32768
9.19516
9.0307
8.82694
8.57387
8.25767
7.86131
7.36303
6.73471
5.98643
5.01802
1
1
1
1
1
1
1
1
1
1
1.00001
1.00001
1.00005
1.00006
1.00034
1.00036
1.00262
1.00533
1.01319
1.01364
1.13933
1.13166
2.18867
3.20602
7.66757
9.87487
9.78932
9.55133
9.4081
9.4097
9.42864
9.45966
9.46252
9.45379
9.4267
9.37076
9.29815
9.21227
9.10818
8.98057
8.82503
8.63713
8.41032
8.13866
7.81248
7.4235
6.96386
6.42298
5.81367
5.06494
1
1
1
1
1
1
1
1
1
1
1
1.00001
1.00003
1.00004
1.00023
1.00024
1.00193
1.00368
1.00978
1.01475
1.09428
1.10845
1.84723
2.42412
5.72398
9.5186
9.65458
9.49526
9.27604
9.22085
9.22797
9.24413
9.24171
9.22615
9.18561
9.11126
9.02511
8.92632
8.80862
8.66753
8.49943
8.30166
8.06957
7.79963
7.48752
7.12955
6.72309
6.26445
5.76307
5.16871
1
1
1
1
1
1
1
1
1
1
1
1.00001
1.00002
1.00009
1.00011
1.00068
1.00066
1.0057
1.01342
1.01701
1.02029
1.17178
1.16472
2.39053
3.75852
8.51486
9.52865
9.41889
9.18912
9.07326
9.05734
9.05806
9.05027
9.02285
8.9628
8.87724
8.78102
8.67295
8.54603
8.39807
8.22529
8.02653
7.79954
7.54229
7.25282
6.92968
6.5722
6.17854
5.7564
5.26363
1
1
1
1
1
1
1
1
1
1
1
1.00001
1.00001
1.00004
1.00004
1.00031
1.0003
1.00235
1.00462
1.01151
1.01196
1.11257
1.10079
2.01121
2.6963
6.37137
9.15778
9.24322
9.11907
8.93824
8.88099
8.87382
8.85823
8.82245
8.75245
8.66499
8.5651
8.45152
8.31999
8.16956
7.99746
7.80337
7.58629
7.34524
7.07936
6.78808
6.47119
6.12715
5.76032
5.3398
1
1
1
1
1
1
1
1
1
1
1
1
1.00001
1.00002
1.00004
1.00019
1.00026
1.00158
1.00347
1.00741
1.00792
1.07465
1.07247
1.59157
1.90734
4.23581
8.16463
9.08981
9.03421
8.88065
8.76563
8.72506
8.69609
8.6479
8.57546
8.4854
8.38133
8.26341
8.12943
7.97877
7.80997
7.62287
7.41698
7.19184
6.94692
6.6826
6.39868
6.09363
5.76974
5.40217
1
1
1
1
1
1
1
1
1
1
1
1
1
1.00001
1.00002
1.00008
1.00011
1.00069
1.001
1.00441
1.00562
1.03418
1.02908
1.3542
1.46858
3.09424
5.85835
8.62285
8.94647
8.86604
8.70565
8.61567
8.56372
8.50737
8.43064
8.3364
8.22775
8.10595
7.97049
7.82071
7.65619
7.47663
7.28194
7.07194
6.84667
6.60523
6.34681
6.07118
5.78201
5.45704
1
1
1
1
1
1
1
1
1
1
1
1
1
1
1.00002
1.00003
1.00019
1.00019
1.00131
1.00133
1.00965
1.01298
1.06294
1.07327
1.50556
1.78013
3.82041
7.29114
8.72847
8.78743
8.70994
8.55481
8.45118
8.37553
8.29435
8.19809
8.08725
7.96458
7.82976
7.68288
7.5239
7.35278
7.16921
6.97317
6.76442
6.54308
6.30951
6.06214
5.8011
5.50607
1
1
1
1
1
1
1
1
1
1
1
1
1
1
1.00001
1.00002
1.00008
1.0001
1.00061
1.00144
1.00203
1.00912
1.01967
1.01816
1.24313
1.27481
2.49941
4.30004
8.07462
8.74802
8.6999
8.56357
8.40587
8.28799
8.18785
8.08379
7.9685
7.84256
7.70586
7.56034
7.40606
7.24302
7.07037
6.88732
6.69353
6.48904
6.2738
6.04644
5.80804
5.54161
1
1
1
1
1
1
1
1
1
1
1
1
1
1
1
1.00001
1.00002
1.0001
1.00009
1.00083
1.00126
1.00461
1.0084
1.03641
1.03836
1.38349
1.50525
3.20396
6.00135
8.29683
8.59492
8.52147
8.35325
8.18621
8.06191
7.95359
7.84187
7.72126
7.59212
7.45433
7.30758
7.15142
6.98614
6.81223
6.62948
6.43797
6.23786
6.02811
5.80964
5.56478
1
1
1
1
1
1
1
1
1
1
1
1
1
1
1
1
1.00002
1.00004
1.00018
1.00022
1.00142
1.00304
1.00668
1.00979
1.06281
1.05797
1.52532
1.72671
3.75451
6.93475
8.28876
8.35721
8.27509
8.09471
7.93304
7.81498
7.70992
7.59946
7.47884
7.34831
7.20888
7.06127
6.90598
6.74348
6.57427
6.39793
6.21339
6.019
5.81504
5.58898
1
1
1
1
1
1
1
1
1
1
1
1
1
1
1
1.00001
1.00001
1.00004
1.00006
1.00026
1.00023
1.00179
1.00323
1.01007
1.01209
1.08393
1.07691
1.66339
1.94125
4.16581
7.48975
8.20028
8.17056
8.06115
7.86759
7.71837
7.60326
7.49452
7.37844
7.25332
7.12038
6.98062
6.83435
6.68173
6.52258
6.35669
6.18361
6.00222
5.81353
5.60303
1
1
1
1
1
1
1
1
1
1
1
1
1
1
1
1
1
1.00001
1.00002
1.0001
1.00011
1.00078
1.00179
1.00238
1.00981
1.02191
1.0146
1.31602
1.34864
2.8898
5.19003
7.59843
8.02093
7.98146
7.85486
7.68027
7.53717
7.41691
7.30114
7.18017
7.05184
6.91682
6.77603
6.62998
6.47874
6.32203
6.15922
5.98909
5.81228
5.61565
1
1
1
1
1
1
1
1
1
1
1
1
1
1
1
1
1
1
1.00002
1.00003
1.00012
1.00013
1.00104
1.00157
1.00579
1.00913
1.04569
1.04423
1.41558
1.51031
3.24647
5.89678
7.506
7.80073
7.76409
7.64488
7.46796
7.32496
7.20599
7.09167
6.97265
6.84707
6.71549
6.57868
6.43689
6.28998
6.13745
5.97814
5.81276
5.62807
1
1
1
1
1
1
1
1
1
1
1
1
1
1
1
1
1
1
1.00002
1.00002
1.00018
1.00042
1.00052
1.00044
1.00501
1.01166
1.01378
1.02533
1.13986
1.14576
2.112
2.90649
6.18599
7.4059
7.60106
7.55827
7.44183
7.26982
7.12881
7.01098
6.89882
6.78327
6.66182
6.53462
6.40211
6.26444
6.12133
5.97174
5.81547
5.64051
1
1
1
1
1
1
1
1
1
1
1
1
1
1
1
1
1
1
1
1.00002
1.00002
1.0001
1.00015
1.00067
1.00067
1.00562
1.01344
1.01583
1.0165
1.16818
1.1548
2.19233
2.94449
6.15668
7.25475
7.41991
7.37919
7.27045
7.11773
6.97914
6.85748
6.74263
6.62655
6.50606
6.3806
6.25017
6.11495
5.97341
5.82425
5.65937
1
1
1
1
1
1
1
1
1
1
1
1
1
1
1
1
1
1
1
1.00001
1.00001
1.00005
1.00007
1.0003
1.00038
1.00191
1.00207
1.0114
1.01813
1.06731
1.05562
1.55422
1.6371
3.5042
6.03549
7.06675
7.25109
7.22261
7.12864
6.98199
6.84703
6.72369
6.60693
6.49013
6.3702
6.24574
6.1159
5.9793
5.83816
5.67997
1
1
1
1
1
1
1
1
1
1
1
1
1
1
1
1
1
1
1
1
1.00001
1.00001
1.00005
1.00006
1.0003
1.00038
1.00188
1.00209
1.01094
1.02281
1.06745
1.06776
1.54967
1.60609
3.51245
6.00888
6.93654
7.11422
7.08777
6.99774
6.85311
6.71926
6.59405
6.47499
6.35856
6.24054
6.11791
5.98924
5.85469
5.70326
1
1
1
1
1
1
1
1
1
1
1
1
1
1
1
1
1
1
1
1
1
1.00001
1.00003
1.00004
1.00015
1.00022
1.00085
1.00118
1.00478
1.00621
1.02881
1.04261
1.18371
1.19912
2.17617
3.0131
5.9119
6.8238
6.99209
6.96596
6.88441
6.74066
6.6042
6.48039
6.36213
6.243
6.12227
5.99703
5.86678
5.72111
1
1
1
1
1
1
1
1
1
1
1
1
1
1
1
1
1
1
1
1
1
1
1.00001
1.00002
1.00002
1.00015
1.00016
1.00078
1.00106
1.00454
1.00586
1.02802
1.03362
1.18032
1.17182
2.15262
2.72524
5.59446
6.63606
6.8353
6.8144
6.74646
6.61231
6.48455
6.36417
6.24859
6.13339
6.01472
5.89166
5.7523
1
1
1
1
1
1
1
1
1
1
1
1
1
1
1
1
1
1
1
1
1
1
1
1.00001
1.00002
1.00007
1.0001
1.00036
1.00051
1.00192
1.00227
1.01157
1.01387
1.07084
1.06197
1.4875
1.52774
3.09099
5.16447
6.269
6.60658
6.63758
6.59617
6.49277
6.36971
6.25176
6.13703
6.0207
5.90182
5.7685
1
1
1
1
1
1
1
1
1
1
1
1
1
1
1
1
1
1
1
1
1
1
1
1
1.00001
1.00003
1.00004
1.00014
1.0002
1.00072
1.00101
1.00389
1.00472
1.02311
1.03569
1.13804
1.13396
1.91496
2.19668
4.58211
5.93841
6.39068
6.48548
6.45908
6.38393
6.26277
6.14742
6.0323
5.91618
5.78831
1
1
1
1
1
1
1
1
1
1
1
1
1
1
1
1
1
1
1
1
1
1
1
1
1
1.00001
1.00001
1.00005
1.00007
1.00026
1.00035
1.00151
1.00216
1.00767
1.00875
1.04551
1.09629
1.08583
1.81355
1.82221
3.87647
5.55348
6.18954
6.34689
6.33485
6.28801
6.18012
6.06001
5.94537
5.81841
1
1
1
1
1
1
1
1
1
1
1
1
1
1
1
1
1
1
1
1
1
1
1
1
1
1
1.00001
1.00001
1.00005
1.00007
1.00023
1.00034
1.0012
1.0017
1.00624
1.00792
1.03506
1.03645
1.22317
1.19861
2.08249
2.96737
5.02996
5.89233
6.16516
6.20895
6.18096
6.1186
6.01546
5.88513
1
1
1
1
1
1
1
1
1
1
1
1
1
1
1
1
1
1
1
1
1
1
1
1
1
1
1
1
1.00002
1.00005
1.00006
1.00006
1.00053
1.00118
1.00148
1.00173
1.01458
1.03256
1.04791
1.05399
1.44006
1.45201
2.66514
4.06956
5.354
5.8996
6.06969
6.05913
6.02522
5.91398
1
1
1
1
1
1
1
1
1
1
1
1
1
1
1
1
1
1
1
1
1
1
1
1
1
1
1
1
1
1.00001
1.00002
1.00006
1.00008
1.0003
1.00038
1.00148
1.00151
1.00857
1.0117
1.04494
1.05172
1.25457
1.26385
2.07648
2.93561
4.73565
5.54718
5.84789
5.90673
5.87611
1
1
1
1
1
1
1
1
1
1
1
1
1
1
1
1
1
1
1
1
1
1
1
1
1
1
1
1
1
1
1
1.00001
1.00001
1.00006
1.00012
1.00024
1.00023
1.00188
1.00287
1.00721
1.01804
1.04476
1.04917
1.42255
1.45164
2.42512
3.62484
4.8959
5.45997
5.65175
1
1
1
1
1
1
1
1
1
1
1
1
1
1
1
1
1
1
1
1
1
1
1
1
1
1
1
1
1
1
1
1
1.00001
1.00002
1.00002
1.00009
1.00013
1.00041
1.00032
1.00135
1.00091
0.998026
1.03859
1.09218
1.0704
1.51936
1.59751
2.62533
3.87572
4.79678
1
1
1
1
1
1
1
1
1
1
1
1
1
1
1
1
1
1
1
1
1
1
1
1
1
1
1
1
1
1
1
1
1
1.00001
1.00001
1.00003
1.00003
1.00013
1.00018
1.00059
1.00032
1.00143
1.00202
0.998522
1.045
1.10034
1.08133
1.44002
1.77285
2.36627
1
1
1
1
1
1
1
1
1
1
1
1
1
1
1
1
1
1
1
1
1
1
1
1
1
1
1
1
1
1
1
1
1
1
1
1
1
1.00001
1.00002
1.00001
1.00005
0.999926
0.999595
1.00509
1.0118
1.00784
1.0261
1.04302
0.973811
1.6152
1
1
1
1
1
1
1
1
1
1
1
1
1
1
1
1
1
1
1
1
1
1
1
1
1
1
1
1
1
1
1
1
1
1
1
1
1
1.00001
1.00002
1.00001
1.00003
1.00007
0.999078
0.997685
0.996972
0.985007
0.987115
0.984607
0.945603
1.2876
1
1
1
1
1
1
1
1
1
1
1
1
1
1
1
1
1
1
1
1
1
1
1
1
1
1
1
1
1
1
1
1
1
1
1
1
1
1
1.00001
1.00001
1.00001
1.00004
0.999644
0.999115
0.999086
0.995298
0.996908
0.996836
0.982296
1.14005
1
1
1
1
1
1
1
1
1
1
1
1
1
1
1
1
1
1
1
1
1
1
1
1
1
1
1
1
1
1
1
1
1
1
1
1
1
1
1
1
1.00001
1.00003
0.99966
0.999146
0.998936
0.994721
0.995892
0.995578
0.982449
1.11818
1
1
1
1
1
1
1
1
1
1
1
1
1
1
1
1
1
1
1
1
1
1
1
1
1
1
1
1
1
1
1
1
1
1
1
1
1
1
1
0.999999
1
1.00002
0.999672
0.999185
0.998987
0.994977
0.996107
0.995755
0.983205
1.11368
1
1
1
1
1
1
1
1
1
1
1
1
1
1
1
1
1
1
1
1
1
1
1
1
1
1
1
1
1
1
1
1
1
1
1
1
1
1
1
1.00001
1.00002
1.00008
1.00009
1.00044
1.00049
1.00264
1.00232
1.01579
1.0224
1.02085
1
1
1
1
1
1
1
1
1
1
1
1
1
1
1
1
1
1
1
1
1
1
1
1
1
1
1
1
1
1
1
1
1
1
1
1
1
1
1
1.00002
1.00002
1.00009
1.0001
1.00047
1.00054
1.00266
1.00302
1.01556
1.02321
1.01721
1
1
1
1
1
1
1
1
1
1
1
1
1
1
1
1
1
1
1
1
1
1
1
1
1
1
1
1
1
1
1
1
1
1
1
1
1
1
1
1
1.00001
1.00002
0.999713
0.999287
0.999167
0.995703
0.997043
0.997005
0.985252
1.11172
1
1
1
1
1
1
1
1
1
1
1
1
1
1
1
1
1
1
1
1
1
1
1
1
1
1
1
1
1
1
1
1
1
1
1
1
1
1
1
1.00001
1.00002
1.00006
1.00009
1.00033
1.00045
1.00054
1.00525
1.0143
1.02513
1.0258
1.95063
0.969499
0.641062
0.544004
0.559321
0.617118
0.750695
1.01799
1.17108
1.22384
1.30399
1.48305
1.91247
2.83813
3.14961
3.12666
3.12721
3.08383
3.0255
2.98512
2.95467
2.93044
2.90827
2.89727
2.8933
2.89283
2.90892
2.95219
3.04157
3.18958
3.38107
3.58579
3.78747
3.97148
4.13502
4.27031
4.37965
4.46768
4.53808
4.59934
4.64258
4.66967
4.685
4.69124
4.68911
4.68062
4.6615
4.63464
4.60333
4.56967
4.53234
4.493
4.45081
4.40722
4.36147
4.31485
4.26665
4.21797
4.16832
4.11854
4.06806
4.0176
3.96662
3.91562
3.86421
3.81275
3.76105
3.70932
3.65755
3.60587
3.55432
3.503
3.452
3.40138
3.35125
3.30165
3.25266
3.2043
3.15665
3.10966
3.06341
3.01781
2.97294
2.92868
2.88518
2.84234
2.80028
2.75887
2.71823
2.67837
2.63933
2.60092
2.56337
2.52656
2.49079
2.45611
2.42314
2.3927
2.36669
2.34923
2.58721
1.54006
1.12588
0.977288
0.939296
0.934283
0.928245
0.943778
0.98545
1.07277
1.25008
1.44265
1.83683
2.68403
3.18204
3.15659
3.11527
3.06983
3.02045
2.99766
2.9746
2.94952
2.92514
2.89987
2.8847
2.88099
2.89585
2.94056
3.02551
3.16511
3.34869
3.54965
3.74753
3.92396
4.10055
4.24222
4.35686
4.44962
4.52279
4.58443
4.62762
4.65539
4.67107
4.67717
4.67596
4.67003
4.65476
4.62651
4.59549
4.56272
4.52648
4.48761
4.44583
4.4024
4.35696
4.3105
4.2626
4.21409
4.16466
4.11494
4.06463
4.01418
3.9633
3.9123
3.86099
3.80956
3.75797
3.70633
3.65469
3.60312
3.55173
3.50053
3.44971
3.39921
3.34924
3.29973
3.25089
3.20261
3.15508
3.10815
3.06198
3.01643
2.97167
2.92749
2.8841
2.84134
2.7994
2.75806
2.7176
2.67764
2.63858
2.60014
2.56263
2.52581
2.49002
2.45525
2.42205
2.39126
2.36429
2.34657
3.4693
2.52922
1.92617
1.5251
1.25785
1.07658
0.953273
0.949814
0.961848
0.998244
1.07622
1.23453
1.559
2.24146
3.08417
3.13748
3.11746
3.07196
3.02336
2.98744
2.955
2.93008
2.91141
2.89992
2.89056
2.88953
2.90353
2.93129
2.99146
3.12446
3.31693
3.51012
3.71377
3.90009
4.07197
4.21597
4.33321
4.4287
4.50467
4.56488
4.6084
4.63671
4.65271
4.65855
4.65762
4.65331
4.64172
4.61744
4.58524
4.55228
4.51697
4.47903
4.43804
4.3951
4.35017
4.30405
4.25659
4.20834
4.15922
4.10964
4.05953
4.00914
3.9584
3.90743
3.85624
3.80487
3.75342
3.70189
3.65046
3.59905
3.5479
3.49689
3.44634
3.39603
3.34633
3.29701
3.24842
3.2003
3.153
3.10622
3.06016
3.01469
2.97006
2.92606
2.88274
2.8401
2.79812
2.75693
2.71633
2.6766
2.63744
2.59922
2.56154
2.52491
2.48887
2.45417
2.42057
2.38949
2.36163
2.34258
3.9371
3.10804
2.45932
1.97052
1.62762
1.39258
1.24111
1.13119
1.07674
1.08003
1.10183
1.16932
1.33518
1.72969
2.61668
3.06207
3.1036
3.088
3.04946
3.00213
2.96282
2.93826
2.92364
2.91352
2.90615
2.90689
2.91702
2.95228
3.03296
3.15358
3.31098
3.49019
3.66731
3.84673
4.01577
4.163
4.28519
4.38514
4.46475
4.52732
4.57311
4.6044
4.62265
4.63054
4.63004
4.6274
4.61965
4.60218
4.57045
4.53658
4.50142
4.4644
4.42467
4.3827
4.33866
4.29315
4.24631
4.19851
4.14985
4.10054
4.05072
4.00047
3.94992
3.89907
3.84809
3.79688
3.74568
3.69436
3.6432
3.59204
3.54119
3.49049
3.44023
3.39025
3.34088
3.29188
3.2436
3.19578
3.1487
3.10229
3.05665
3.01154
2.96697
2.92316
2.87991
2.8375
2.79557
2.75457
2.71401
2.67447
2.63534
2.59727
2.55955
2.52304
2.48691
2.45223
2.4184
2.38689
2.35829
2.33824
4.25102
3.52668
2.90809
2.40283
2.01436
1.7257
1.50841
1.3502
1.23142
1.1495
1.15093
1.16945
1.23664
1.41582
1.84138
2.73252
3.05186
3.08522
3.07485
3.04406
2.99114
2.96069
2.94817
2.94648
2.94967
2.96417
3.00436
3.09073
3.18046
3.26615
3.37052
3.49505
3.63155
3.76463
3.9197
4.07292
4.2105
4.32364
4.41212
4.4791
4.52812
4.5625
4.58394
4.59514
4.596
4.59465
4.58975
4.57776
4.55278
4.5182
4.48241
4.4458
4.40726
4.3666
4.32387
4.2794
4.23347
4.18633
4.13826
4.08938
4.03995
3.98997
3.9397
3.88908
3.83837
3.78743
3.73655
3.68555
3.63474
3.58393
3.53348
3.48317
3.43335
3.3838
3.33487
3.28626
3.23842
3.19113
3.14445
3.09824
3.05265
3.00774
2.96337
2.91977
2.87667
2.83442
2.79262
2.75174
2.71128
2.67179
2.63278
2.59468
2.55712
2.52048
2.48451
2.44956
2.41574
2.38377
2.35463
2.33371
4.48784
3.85877
3.29162
2.79591
2.38597
2.05968
1.80506
1.60677
1.45456
1.34124
1.24735
1.24139
1.25739
1.32416
1.50919
1.93255
2.77744
3.04309
3.07536
3.06841
3.04745
3.00689
2.99647
3.00032
3.01747
3.06478
3.16998
3.33125
3.42454
3.47076
3.51339
3.56191
3.62249
3.69649
3.78444
3.92444
4.08483
4.22677
4.33724
4.41744
4.47458
4.51332
4.53833
4.55282
4.55702
4.55628
4.5533
4.54546
4.52831
4.49678
4.46106
4.42431
4.3864
4.34686
4.30545
4.26221
4.21736
4.17105
4.12364
4.07522
4.02618
3.97654
3.92661
3.87633
3.82595
3.77536
3.72481
3.67418
3.62372
3.57333
3.52325
3.47339
3.42396
3.37489
3.32647
3.27863
3.23127
3.18438
3.13806
3.09224
3.04701
3.00239
2.95833
2.91496
2.87212
2.83005
2.78849
2.74775
2.70753
2.66812
2.62932
2.59126
2.55391
2.51723
2.48143
2.44633
2.41249
2.38014
2.35057
2.32862
4.66984
4.11971
3.6074
3.1347
2.72322
2.37734
2.09448
1.86553
1.68044
1.53152
1.41984
1.32513
1.3099
1.32551
1.39287
1.57943
2.00465
2.79358
3.03171
3.06969
3.06843
3.06138
3.06222
3.07394
3.11594
3.22054
3.44417
3.67329
3.75018
3.74876
3.73611
3.70116
3.66522
3.67481
3.70713
3.7776
3.90763
4.07166
4.21766
4.32782
4.40475
4.4546
4.48618
4.50406
4.51179
4.51161
4.51008
4.50534
4.49419
4.47098
4.43658
4.40003
4.36265
4.32407
4.28394
4.242
4.19837
4.15307
4.1065
4.05875
4.01028
3.96113
3.91166
3.86183
3.81191
3.76179
3.71169
3.66153
3.61152
3.56161
3.51202
3.46269
3.4139
3.36558
3.31774
3.27038
3.22348
3.17706
3.13112
3.0857
3.04078
2.99644
2.95265
2.90948
2.86691
2.82499
2.7837
2.74307
2.70311
2.66378
2.62521
2.58718
2.55002
2.51334
2.47766
2.4425
2.40865
2.376
2.34617
2.32322
4.81506
4.32739
3.86466
3.42118
3.01813
2.66705
2.36773
2.11727
1.90966
1.73693
1.59663
1.48545
1.39564
1.38005
1.39527
1.46171
1.64414
2.05795
2.7867
3.02301
3.06859
3.09413
3.11497
3.15986
3.25852
3.46673
3.87293
4.10479
4.11738
4.09404
4.02137
3.8685
3.73377
3.68165
3.68889
3.71557
3.77508
3.88892
4.04609
4.18979
4.3004
4.3763
4.42421
4.44966
4.4623
4.46458
4.46376
4.46084
4.45367
4.43824
4.40884
4.37398
4.33726
4.29935
4.26016
4.21926
4.17673
4.13242
4.08674
4.03974
3.99192
3.94336
3.89445
3.84518
3.79578
3.74621
3.69658
3.64694
3.59737
3.54799
3.49889
3.45034
3.40219
3.35458
3.30729
3.26049
3.21403
3.16808
3.12253
3.0775
3.03295
2.98895
2.94552
2.90266
2.86043
2.81877
2.77779
2.73736
2.69768
2.65851
2.62016
2.58228
2.54529
2.50873
2.47316
2.43805
2.4042
2.37144
2.34134
2.31742
4.93369
4.49555
4.07623
3.66327
3.27588
2.9263
2.62055
2.35589
2.13125
1.9406
1.77957
1.64572
1.5378
1.45057
1.43971
1.45548
1.52082
1.69602
2.08785
2.78205
3.02286
3.09648
3.16811
3.26679
3.46764
3.88014
4.40824
4.56251
4.54288
4.46838
4.29626
4.04503
3.8529
3.73816
3.69782
3.70335
3.72529
3.77408
3.86688
4.0075
4.1435
4.25477
4.33303
4.37958
4.40368
4.41292
4.4127
4.41112
4.40668
4.3966
4.37597
4.34404
4.30877
4.2718
4.23346
4.19344
4.15188
4.10859
4.06391
4.01787
3.97093
3.92319
3.87503
3.82649
3.77775
3.72884
3.67975
3.63074
3.58173
3.53317
3.48485
3.43711
3.38958
3.34262
3.29584
3.2496
3.20358
3.15812
3.11297
3.06839
3.02422
2.98062
2.93753
2.89499
2.85308
2.81168
2.77101
2.73082
2.69143
2.65247
2.61437
2.57666
2.53988
2.50345
2.46802
2.43299
2.39918
2.36633
2.33613
2.31134
5.02897
4.62993
4.24729
3.86467
3.49657
3.15587
2.84909
2.57827
2.34172
2.13756
1.96187
1.81131
1.68435
1.58129
1.49932
1.49271
1.50905
1.57418
1.74396
2.11902
2.79386
3.05698
3.22251
3.40963
3.77303
4.50354
4.99581
5.01676
4.9683
4.82391
4.52633
4.2318
4.00805
3.85245
3.757
3.7157
3.7184
3.73323
3.76858
3.84023
3.95472
4.08223
4.1929
4.2733
4.32354
4.34848
4.35729
4.35676
4.35434
4.34818
4.33498
4.30897
4.27673
4.24125
4.20385
4.16468
4.12405
4.0818
4.03821
3.99325
3.94735
3.9006
3.85335
3.80568
3.75771
3.70954
3.66098
3.61284
3.56473
3.51707
3.4695
3.42245
3.3755
3.32912
3.28284
3.23713
3.19158
3.14661
3.10191
3.0578
3.01407
2.9709
2.92825
2.8861
2.8446
2.80353
2.76322
2.72329
2.68422
2.64547
2.60765
2.57013
2.53357
2.49731
2.46207
2.42716
2.39348
2.36059
2.33041
2.30492
5.10562
4.73733
4.38497
4.02894
3.68126
3.353
3.05109
2.77915
2.53694
2.32403
2.13733
1.97539
1.83479
1.71499
1.61756
1.54134
1.54237
1.56047
1.62675
1.79649
2.16842
2.85241
3.21715
3.58023
4.28763
5.26657
5.52932
5.49119
5.36396
5.0836
4.72427
4.42282
4.18604
4.00364
3.86952
3.77987
3.73058
3.72744
3.7339
3.75628
3.80612
3.89574
4.00914
4.11584
4.1993
4.25441
4.28439
4.29439
4.2938
4.29091
4.28349
4.26762
4.23984
4.20636
4.17012
4.132
4.09248
4.05146
4.00912
3.96545
3.92077
3.87523
3.82909
3.78246
3.73541
3.68806
3.6408
3.59351
3.54629
3.49944
3.45264
3.40627
3.35997
3.31416
3.26848
3.2233
3.17832
3.13384
3.08966
3.04599
3.00275
2.96
2.91782
2.87606
2.83501
2.7943
2.75442
2.71481
2.67612
2.63765
2.60016
2.56288
2.5266
2.49053
2.45551
2.42073
2.38721
2.35432
2.32421
2.29813
5.16544
4.82334
4.49714
4.16467
3.83642
3.52148
3.22784
2.95801
2.71505
2.49685
2.30406
2.13311
1.98366
1.85276
1.741
1.64848
1.58908
1.59296
1.61845
1.69811
1.88753
2.29231
3.09887
3.7604
5.0995
5.93752
5.93197
5.85833
5.6549
5.25426
4.89931
4.60874
4.3691
4.17118
4.01108
3.88704
3.79811
3.74335
3.72387
3.72566
3.73629
3.76691
3.83043
3.9262
4.02647
4.11284
4.17463
4.21044
4.22441
4.22395
4.22106
4.2133
4.19655
4.16733
4.13265
4.09565
4.05735
4.0177
3.97683
3.93463
3.89138
3.8472
3.80231
3.7568
3.71079
3.66465
3.61842
3.57223
3.52603
3.48
3.43404
3.38833
3.34279
3.29755
3.25256
3.20791
3.16357
3.11959
3.07602
3.03283
2.99017
2.94787
2.90624
2.86491
2.82435
2.78404
2.74459
2.70534
2.66703
2.62888
2.59172
2.55471
2.51872
2.4829
2.44811
2.41354
2.3802
2.34738
2.31739
2.29084
5.21527
4.89365
4.58859
4.27788
3.96794
3.66734
3.38323
3.11875
2.87721
2.65752
2.46112
2.28431
2.12872
1.98979
1.86841
1.76773
1.67982
1.65849
1.66833
1.71062
1.82554
2.09388
2.67726
3.78625
5.96606
6.452
6.38151
6.1848
5.79045
5.4009
5.06796
4.78818
4.54919
4.34335
4.16789
4.02072
3.90201
3.81056
3.7479
3.7152
3.70675
3.70927
3.72387
3.76108
3.837
3.92928
4.01756
4.08483
4.12677
4.14614
4.14713
4.145
4.13806
4.12241
4.09182
4.0566
4.01931
3.9808
3.9413
3.90066
3.85899
3.81637
3.77291
3.7287
3.68408
3.63923
3.59427
3.54916
3.50404
3.45884
3.41378
3.36874
3.324
3.27933
3.23507
3.19094
3.14729
3.10381
3.06091
3.01821
2.97619
2.93439
2.89335
2.85252
2.81251
2.77268
2.73373
2.69492
2.65703
2.61928
2.58248
2.54582
2.51012
2.4746
2.44005
2.40573
2.37258
2.33989
2.31004
2.2831
5.25324
4.94984
4.66383
4.37253
4.08026
3.79456
3.5206
3.2639
3.02528
2.80695
2.60877
2.42883
2.26886
2.12454
1.99721
1.89048
1.7954
1.7617
1.76948
1.80274
1.89662
2.12462
2.62131
3.66948
5.83307
6.72045
6.65555
6.44712
6.03011
5.62157
5.27466
4.98315
4.73513
4.52111
4.33412
4.17123
4.0304
3.91202
3.816
3.74494
3.70051
3.68114
3.67361
3.67917
3.70036
3.74802
3.83186
3.91466
3.98514
4.03442
4.06119
4.06636
4.06467
4.05857
4.04423
4.01527
3.98
3.94219
3.90343
3.86389
3.82366
3.7826
3.74069
3.69805
3.65505
3.61162
3.56798
3.52398
3.47996
3.43567
3.39156
3.3473
3.3034
3.25943
3.21595
3.17245
3.12953
3.08666
3.04445
3.00234
2.96097
2.91975
2.87933
2.83906
2.79963
2.76032
2.72187
2.68354
2.6461
2.60879
2.57236
2.5361
2.50072
2.46555
2.43126
2.39723
2.3643
2.33178
2.30213
2.27485
5.28721
4.99846
4.72757
4.45382
4.1775
3.90683
3.6436
3.39549
3.162
2.94607
2.7484
2.56694
2.40433
2.25697
2.12651
2.01856
1.92612
1.91251
1.92413
1.9686
2.08314
2.3354
2.85633
3.72115
4.72831
6.08517
6.48279
6.43248
6.26429
5.92153
5.55102
5.21669
4.9399
4.70752
4.50476
4.3261