/*--------------------------------*- C++ -*----------------------------------*\
| =========                 |                                                 |
| \\      /  F ield         | OpenFOAM: The Open Source CFD Toolbox           |
|  \\    /   O peration     | Version:  2112                                  |
|   \\  /    A nd           | Website:  www.openfoam.com                      |
|    \\/     M anipulation  |                                                 |
\*---------------------------------------------------------------------------*/
FoamFile
{
    version     2.0;
    format      ascii;
    arch        "LSB;label=32;scalar=64";
    class       surfaceScalarField;
    location    "3.4995";
    object      phi;
}
// * * * * * * * * * * * * * * * * * * * * * * * * * * * * * * * * * * * * * //

dimensions      [1 0 -1 0 0 0 0];

oriented        oriented;

internalField   nonuniform List<scalar> 
13790
(
0.00290515
5.66086e-09
0.00290514
2.8908e-09
0.00290514
1.03621e-09
0.00290514
5.28549e-11
0.00290514
5.13255e-10
0.00290514
8.08254e-10
0.00290514
1.06341e-09
0.00290514
1.11423e-09
0.00290514
1.95301e-09
0.00290514
1.01578e-09
0.00290515
-1.93235e-09
0.00290515
-4.33404e-09
0.00290522
-9.0037e-09
0.00290527
-1.76282e-08
0.00290546
-9.49897e-08
0.00290584
-1.48867e-07
0.00290592
-1.35152e-06
0.00291116
-6.07655e-06
0.00290923
4.57356e-06
0.00289196
-1.74616e-05
0.00292152
-6.9223e-06
0.00287956
4.79577e-05
0.00293192
-4.67281e-05
0.00289935
3.4634e-05
0.00282889
6.94871e-05
0.00275491
7.22083e-05
0.00268505
6.77254e-05
0.00261655
6.75024e-05
0.00254656
7.055e-05
0.00247171
7.56613e-05
0.00239244
8.00904e-05
0.00230915
8.34349e-05
0.00222284
8.63041e-05
0.00213319
8.91389e-05
0.00204025
9.19364e-05
0.00194545
9.46089e-05
0.00184825
9.73867e-05
0.00174916
9.9945e-05
0.00164676
0.000102721
0.00154094
0.000105234
0.00143193
0.000108088
0.0013195
0.0001113
0.00120366
0.000115482
0.00108193
0.000121447
0.00095271
0.000129302
0.000812006
0.000140776
0.000655927
0.000155795
0.000479906
0.000176132
0.000269451
0.000210312
0.000268906
0.00301309
6.49484e-09
0.00301309
4.75326e-09
0.00301309
3.37593e-09
0.00301309
2.409e-09
0.00301308
2.26855e-09
0.00301308
2.28012e-09
0.00301308
2.27112e-09
0.00301308
1.99326e-09
0.00301308
3.93093e-09
0.00301308
2.30681e-09
0.00301308
-4.18297e-10
0.00301308
-2.29279e-09
0.00301309
1.58824e-10
0.00301309
8.44519e-09
0.00301298
1.57877e-08
0.00301283
9.29155e-08
0.00301104
-4.29928e-07
0.0030065
-2.63178e-06
0.00301341
1.71336e-06
0.00297802
-4.74969e-06
0.00302333
-2.94044e-05
0.00306636
1.71433e-05
0.00308764
-6.43807e-05
0.00303397
8.83249e-05
0.00295739
0.000144334
0.00288312
0.000144154
0.00281046
0.000138059
0.00274111
0.000136002
0.00266846
0.000143899
0.00259028
0.00015487
0.00250723
0.000164151
0.0024192
0.000171587
0.00232721
0.000178138
0.00223073
0.000184837
0.0021304
0.000191259
0.00202704
0.000197811
0.00192023
0.000204214
0.0018101
0.00021054
0.00169567
0.000216902
0.00157688
0.000223147
0.00145406
0.000229723
0.00132705
0.000237084
0.00119597
0.000245938
0.00105934
0.000257606
0.000915686
0.000272883
0.000762825
0.000293485
0.000597521
0.00032086
0.00041677
0.000357013
0.000218206
0.000408631
0.000486539
0.00312505
6.84419e-09
0.00312504
6.03278e-09
0.00312504
5.34938e-09
0.00312504
4.62581e-09
0.00312504
4.19176e-09
0.00312504
3.84499e-09
0.00312503
3.46218e-09
0.00312503
2.56964e-09
0.00312503
6.12822e-09
0.00312503
4.90414e-09
0.00312503
1.93815e-09
0.00312503
-2.65256e-09
0.00312503
6.53156e-09
0.00312503
1.14031e-08
0.00312491
1.29119e-07
0.00312471
3.22653e-07
0.00312314
9.40129e-07
0.00311824
2.00803e-06
0.00312087
6.06794e-07
0.00310193
9.36732e-06
0.00311511
-3.88649e-05
0.00314721
-1.09824e-05
0.00313562
-4.96554e-05
0.00307881
0.000145024
0.00300651
0.000213595
0.00293253
0.000215408
0.00285587
0.000212071
0.00277988
0.000211075
0.00270109
0.0002231
0.00261834
0.000238519
0.00253148
0.00025178
0.00244034
0.000262629
0.00234546
0.000272687
0.00224648
0.000282806
0.00214396
0.00029295
0.00203847
0.000303264
0.00192903
0.000313787
0.00181609
0.000324081
0.00169789
0.000335013
0.00157514
0.000345358
0.00144718
0.00035698
0.00131445
0.000369012
0.00117657
0.000383526
0.00103264
0.000401103
0.000882369
0.000423045
0.000723897
0.000451689
0.000556585
0.000487919
0.000378609
0.00053507
0.00019126
0.000595512
0.000677141
0.00324116
6.72529e-09
0.00324116
6.34067e-09
0.00324116
6.40177e-09
0.00324115
6.11382e-09
0.00324115
5.86052e-09
0.00324115
5.58608e-09
0.00324115
5.31856e-09
0.00324115
4.51184e-09
0.00324114
1.07972e-08
0.00324114
7.52634e-09
0.00324114
2.52335e-09
0.00324117
-2.91224e-08
0.00324121
-3.6398e-08
0.00324141
-1.90114e-07
0.00324171
-1.73367e-07
0.00324319
-1.10071e-06
0.00324378
3.12003e-07
0.00324306
3.0141e-06
0.00323802
5.15729e-06
0.00324035
7.34691e-06
0.00322364
-2.32051e-05
0.0032503
-3.82849e-05
0.00319336
6.01748e-06
0.00312699
0.000208935
0.00305596
0.000280976
0.00298304
0.000285876
0.00290709
0.000285881
0.00282703
0.000290771
0.00274338
0.00030751
0.00265618
0.000326884
0.00256497
0.000343674
0.00246949
0.000357968
0.00237021
0.000371535
0.00226676
0.000385155
0.00216026
0.000398896
0.00205029
0.000413121
0.00193675
0.000427437
0.00181916
0.000442172
0.00169673
0.000457179
0.00156923
0.000472529
0.00143684
0.00048867
0.00129906
0.000506162
0.00115652
0.000525813
0.00100792
0.000549253
0.00085386
0.000577101
0.000693297
0.00061195
0.000526772
0.000654217
0.000354949
0.000706994
0.000177517
0.00077241
0.000854008
0.00336158
6.52127e-09
0.00336158
6.3252e-09
0.00336158
6.97124e-09
0.00336158
7.07999e-09
0.00336158
7.2803e-09
0.00336158
7.39667e-09
0.00336158
7.66642e-09
0.00336157
7.58283e-09
0.00336156
1.80022e-08
0.00336157
5.74086e-09
0.00336157
1.29306e-09
0.00336165
-1.10068e-07
0.00336169
-8.14459e-08
0.00336227
-7.47941e-07
0.00336246
-4.29809e-07
0.00336696
-5.24903e-06
0.00336431
2.43183e-06
0.00335844
1.17401e-05
0.00335475
5.21273e-06
0.00333935
2.39449e-05
0.00334728
-3.18874e-05
0.00335967
-5.2981e-05
0.00328953
7.31277e-05
0.00320121
0.000293308
0.00312605
0.000352244
0.00305364
0.000356201
0.00297629
0.000361544
0.00289253
0.000374803
0.00280339
0.000397499
0.00271139
0.000420127
0.00261523
0.000440322
0.00251501
0.00045782
0.00241082
0.000475294
0.00230246
0.000492356
0.002191
0.000509972
0.00207592
0.000528069
0.00195713
0.00054638
0.0018343
0.000565498
0.00170634
0.000584856
0.00157389
0.000604803
0.00143598
0.000626018
0.00129347
0.000648179
0.00114539
0.000673562
0.000993107
0.000700989
0.000835631
0.000734518
0.000673553
0.000773638
0.000507326
0.00082017
0.000337891
0.000876492
0.000167865
0.000941764
0.00102119
0.00348648
6.16881e-09
0.00348648
6.19361e-09
0.00348648
6.83282e-09
0.00348648
7.4215e-09
0.00348648
7.94022e-09
0.00348648
8.39575e-09
0.00348648
8.92396e-09
0.00348648
9.50691e-09
0.00348648
1.26644e-08
0.00348648
9.16289e-09
0.00348648
4.03957e-09
0.00348639
-2.04134e-08
0.00348629
-2.37527e-08
0.00348579
-1.27039e-07
0.00348539
-6.50276e-08
0.0034795
-6.46159e-07
0.00348067
1.20132e-06
0.00349986
3.54917e-06
0.00348065
6.85335e-06
0.00350683
9.36234e-06
0.0034838
-1.02163e-05
0.00344319
-1.92082e-05
0.00334195
0.000173225
0.00324959
0.000382325
0.00317772
0.000421156
0.00310817
0.000424594
0.00303292
0.000436176
0.00294635
0.000462262
0.00285459
0.000490457
0.00275966
0.000516082
0.0026614
0.000538858
0.00255823
0.000560508
0.0024514
0.00058137
0.0023397
0.000602925
0.00222503
0.000624163
0.00210599
0.000646986
0.00198309
0.000669346
0.00185571
0.000693333
0.00172279
0.000717345
0.00158522
0.000742143
0.00144204
0.000768441
0.00129467
0.000795041
0.00114239
0.000825409
0.000985393
0.000857573
0.000825738
0.000894122
0.00066158
0.00093724
0.000496452
0.000985139
0.000330055
0.00104307
0.000163151
0.00110795
0.00118367
0.00361602
5.80008e-09
0.00361602
5.9526e-09
0.00361602
6.55866e-09
0.00361602
7.34941e-09
0.00361602
8.02756e-09
0.00361602
8.59169e-09
0.00361602
9.09478e-09
0.00361602
9.61247e-09
0.00361603
1.0007e-08
0.00361603
8.81875e-09
0.00361602
8.48413e-09
0.00361599
1.8472e-08
0.00361587
4.20783e-08
0.0036158
1.2352e-07
0.00361512
3.04635e-07
0.00361263
8.27111e-07
0.00361244
1.13544e-06
0.0036254
-1.75808e-07
0.00361113
4.82069e-06
0.00362591
8.63166e-06
0.00361412
-1.44196e-06
0.00357868
9.64829e-06
0.00347434
0.00027829
0.00334269
0.00051249
0.00327548
0.000487286
0.00320111
0.000499066
0.00311946
0.000518436
0.00302558
0.000557429
0.00292705
0.000590272
0.00282627
0.000617521
0.00272219
0.000642949
0.00261434
0.000667646
0.00250236
0.000692498
0.00238657
0.00071749
0.0022672
0.000743244
0.00214419
0.000769913
0.00201645
0.000797309
0.00188458
0.000825469
0.00174709
0.000854626
0.00160498
0.000884182
0.00145743
0.00091541
0.00130494
0.000947226
0.0011489
0.000981179
0.000987963
0.00101817
0.000824032
0.00105799
0.000658922
0.00110198
0.00049135
0.00115267
0.000325064
0.00120957
0.000160211
0.0012719
0.00134318
0.00375038
5.42512e-09
0.00375038
5.63201e-09
0.00375038
6.19054e-09
0.00375038
7.02894e-09
0.00375038
7.69432e-09
0.00375038
8.19514e-09
0.00375038
8.52825e-09
0.00375038
8.72341e-09
0.00375038
8.54345e-09
0.00375038
8.3797e-09
0.00375038
1.22109e-08
0.00375037
3.37463e-08
0.00375029
7.37098e-08
0.00375033
2.1236e-07
0.00375008
4.45322e-07
0.00374518
1.40044e-06
0.00374644
2.49877e-06
0.00377724
1.48825e-06
0.00374293
7.77291e-06
0.00374556
1.02393e-05
0.00373279
8.41914e-06
0.00369918
4.04954e-05
0.00357913
0.000399022
0.00346016
0.000631744
0.00337601
0.000571755
0.00329208
0.00058408
0.00320292
0.00060887
0.00310447
0.000657368
0.00300218
0.000693433
0.00289743
0.00072273
0.00278877
0.000750914
0.00267687
0.000778726
0.00256086
0.000807564
0.00244083
0.000836388
0.0023174
0.000866542
0.0021897
0.000897659
0.00205777
0.000929521
0.00192067
0.000962709
0.00177881
0.000996087
0.00163158
0.00103121
0.00147982
0.00106664
0.00132264
0.00110404
0.00116138
0.00114201
0.000998202
0.00118103
0.000831074
0.00122513
0.00066205
0.00127057
0.000494745
0.00131991
0.000326563
0.00137787
0.000161063
0.00143653
0.00150358
0.00388972
5.03766e-09
0.00388972
5.29024e-09
0.00388972
5.76257e-09
0.00388972
6.64691e-09
0.00388972
7.20444e-09
0.00388972
7.57747e-09
0.00388972
7.72911e-09
0.00388973
7.65689e-09
0.00388973
7.00033e-09
0.00388973
7.91814e-09
0.00388973
1.43011e-08
0.00388971
4.27393e-08
0.00388973
9.46708e-08
0.00388955
2.67637e-07
0.00388956
5.92499e-07
0.00389318
1.58171e-06
0.00389003
3.09975e-06
0.00385442
4.12314e-06
0.0038824
9.39425e-06
0.0038773
1.39162e-05
0.00386907
1.82647e-05
0.00384413
6.65917e-05
0.00372086
0.000521729
0.00361761
0.00073595
0.00350857
0.000682118
0.00340289
0.000691064
0.00329792
0.000715002
0.00319365
0.000762525
0.00308678
0.000800492
0.00297683
0.000832471
0.00286347
0.000863192
0.0027469
0.000894261
0.00262708
0.000926439
0.00250317
0.000959453
0.00237596
0.000993757
0.00224407
0.00102957
0.002108
0.00106609
0.00196619
0.0011045
0.00181932
0.00114247
0.00166782
0.00118235
0.0015114
0.00122265
0.00135133
0.00126384
0.00118541
0.00130744
0.00101585
0.00135025
0.00084618
0.0013945
0.000674114
0.00144229
0.000501092
0.00149303
0.000331343
0.00154749
0.000162755
0.00160418
0.00166569
0.00403424
4.65018e-09
0.00403424
4.92626e-09
0.00403424
5.29557e-09
0.00403425
6.24744e-09
0.00403425
6.62958e-09
0.00403425
6.81568e-09
0.00403425
6.74193e-09
0.00403425
6.36057e-09
0.00403425
5.15823e-09
0.00403425
6.60651e-09
0.00403425
1.3878e-08
0.00403426
4.39734e-08
0.00403421
1.01245e-07
0.00403433
2.82247e-07
0.00403399
6.21609e-07
0.00403069
1.67287e-06
0.00403262
3.23303e-06
0.00406505
3.27338e-06
0.00403399
1.13184e-05
0.00403253
1.71393e-05
0.00402094
2.67384e-05
0.00399174
9.38953e-05
0.00384445
0.000668577
0.00378955
0.000791612
0.00365156
0.000820853
0.00352741
0.000815677
0.00340731
0.000835466
0.00329652
0.0008733
0.00318386
0.00091263
0.00306804
0.000947469
0.00294914
0.000980722
0.00282806
0.00101441
0.00270364
0.00105004
0.00257595
0.00108658
0.00244454
0.0011254
0.00230859
0.00116543
0.00216821
0.00120691
0.00202239
0.00125021
0.00187052
0.00129381
0.00171411
0.0013383
0.00155224
0.00138394
0.00138669
0.0014291
0.00121852
0.00147524
0.00104535
0.00152297
0.000868901
0.0015708
0.000692738
0.00161814
0.000517383
0.00166837
0.000340927
0.00172373
0.00016848
0.00177553
0.00183355
0.00418414
4.26814e-09
0.00418414
4.52132e-09
0.00418414
4.84435e-09
0.00418414
5.75799e-09
0.00418414
6.09848e-09
0.00418414
6.13781e-09
0.00418414
5.86788e-09
0.00418414
5.229e-09
0.00418414
3.66103e-09
0.00418414
4.246e-09
0.00418415
9.768e-09
0.00418415
2.90287e-08
0.00418424
7.33834e-08
0.00418414
2.01488e-07
0.00418502
2.86147e-07
0.00418775
1.1191e-06
0.00418692
2.25841e-06
0.00416045
2.1923e-06
0.00418466
1.10866e-05
0.00418209
1.90651e-05
0.00417096
3.93365e-05
0.00414997
0.000115685
0.00400759
0.000808862
0.0038925
0.000906157
0.00378184
0.00093141
0.00365711
0.000940075
0.00353244
0.000959781
0.00341394
0.000991215
0.00329549
0.0010304
0.0031741
0.00106772
0.00304984
0.00110365
0.00292323
0.00114007
0.00279394
0.00117864
0.0026614
0.00121884
0.00252577
0.00126135
0.00238554
0.0013057
0.00224118
0.0013515
0.00209173
0.00139963
0.0019363
0.00144859
0.00177565
0.00149857
0.00160987
0.00154917
0.00143808
0.00160066
0.00126211
0.00165078
0.00108476
0.00170004
0.000903947
0.00175132
0.000720176
0.00180158
0.000536173
0.00185271
0.000355319
0.00190432
0.00017452
0.00195536
0.00200751
0.0043396
3.89682e-09
0.0043396
4.05986e-09
0.0043396
4.44011e-09
0.0043396
5.13458e-09
0.0043396
5.81707e-09
0.0043396
5.84343e-09
0.0043396
5.67193e-09
0.0043396
5.22566e-09
0.0043396
3.67845e-09
0.0043396
5.40421e-09
0.0043396
9.57374e-09
0.00433959
3.55221e-08
0.0043396
7.86492e-08
0.00433958
2.2851e-07
0.00433829
4.23087e-07
0.004342
1.21177e-06
0.00433699
2.56509e-06
0.00439435
1.88689e-06
0.00434869
1.06955e-05
0.00434234
1.57085e-05
0.00434173
4.09925e-05
0.00432162
0.000135869
0.00418486
0.000942678
0.00404584
0.00104471
0.00391943
0.00105724
0.00379209
0.00106645
0.00366565
0.00108529
0.00354222
0.00111357
0.0034192
0.00115262
0.00329367
0.00119237
0.00316544
0.00123074
0.00303489
0.00127015
0.00290108
0.00131186
0.00276416
0.00135572
0.00262348
0.00140228
0.00247846
0.0014506
0.00232902
0.00150102
0.00217482
0.00155355
0.00201532
0.00160746
0.00184987
0.00166322
0.00167971
0.00171853
0.00150472
0.0017752
0.00132351
0.0018317
0.00113696
0.0018864
0.000948897
0.00193927
0.00075923
0.00199108
0.000568188
0.00204378
0.000374897
0.00209728
0.000186021
0.0021431
0.00219296
0.00450084
3.48936e-09
0.00450084
3.62326e-09
0.00450084
3.95679e-09
0.00450084
4.57982e-09
0.00450084
5.16788e-09
0.00450084
5.63387e-09
0.00450084
5.76016e-09
0.00450084
5.84564e-09
0.00450084
4.02882e-09
0.00450084
6.94245e-09
0.00450084
3.39552e-09
0.00450084
4.43384e-08
0.00450084
3.33494e-08
0.00450095
2.62906e-07
0.00450052
2.82269e-07
0.00449941
1.31551e-06
0.00450243
6.45789e-07
0.00453218
-2.59782e-06
0.00451499
6.05434e-06
0.00452589
-2.69305e-06
0.00452336
4.66659e-05
0.00450587
0.000152139
0.00437549
0.0010706
0.0042176
0.00120254
0.00407316
0.00120153
0.00393905
0.00119979
0.00380982
0.00121365
0.00368399
0.00123851
0.00355639
0.00127953
0.00342683
0.00132146
0.00329552
0.00136149
0.00316186
0.00140375
0.0030251
0.00144832
0.00288497
0.00149597
0.00274092
0.00154648
0.002592
0.00159926
0.00243854
0.00165439
0.00227955
0.00171207
0.00211568
0.00177083
0.00194587
0.0018324
0.00176936
0.00189441
0.00158772
0.0019562
0.00140097
0.00201813
0.00120898
0.00207808
0.00101058
0.00213746
0.000808254
0.00219322
0.000605304
0.00224712
0.000402609
0.00229955
0.000198171
0.00234646
0.00239066
0.00466807
3.06373e-09
0.00466807
3.16436e-09
0.00466807
3.46273e-09
0.00466807
3.98791e-09
0.00466807
4.49266e-09
0.00466807
5.03543e-09
0.00466807
5.59126e-09
0.00466807
6.11184e-09
0.00466807
4.53531e-09
0.00466807
3.28015e-09
0.00466808
1.08151e-09
0.00466809
9.1253e-09
0.00466823
1.22822e-08
0.00466776
9.39149e-08
0.00467015
5.71558e-08
0.00466744
6.05202e-07
0.00467525
-2.35156e-07
0.00458707
-3.05069e-06
0.00468992
4.39252e-06
0.00436703
6.61289e-06
0.00466173
5.07109e-05
0.00465436
0.000183235
0.00448766
0.00121241
0.00431584
0.00137204
0.00417324
0.00134404
0.00404714
0.00132554
0.00392741
0.00133295
0.00380766
0.00135774
0.00368436
0.00140252
0.00355766
0.001448
0.00342791
0.00149106
0.00329541
0.00153643
0.00315838
0.00158506
0.00301764
0.00163665
0.00287208
0.00169193
0.00272145
0.00174932
0.00256573
0.00180993
0.00240384
0.00187313
0.00223592
0.00193799
0.00206287
0.00200479
0.00188277
0.0020737
0.00169529
0.00214315
0.00150001
0.00221301
0.00129811
0.00227981
0.00109137
0.00234398
0.000878871
0.00240531
0.00066097
0.00246528
0.000438875
0.00252138
0.000218929
0.00256537
0.00260911
0.00484151
2.61419e-09
0.00484151
2.69086e-09
0.00484151
2.94491e-09
0.00484151
3.38347e-09
0.00484151
3.83913e-09
0.00484151
4.42965e-09
0.00484151
4.76487e-09
0.00484151
4.87072e-09
0.00484151
3.04284e-09
0.00484152
-3.52884e-11
0.00484152
-2.3435e-09
0.00484154
-5.74892e-09
0.00484154
-3.53417e-09
0.00484182
2.6704e-09
0.0048415
-3.78327e-08
0.00483994
3.48339e-07
0.0048455
-8.15841e-07
0.00482967
-2.61731e-06
0.00482186
1.08761e-05
0.00501247
-4.90471e-06
0.0047525
0.000101545
0.00477973
0.000221917
0.00457646
0.00138997
0.00437204
0.00157377
0.00422604
0.00148999
0.00411433
0.0014371
0.00400722
0.00143983
0.00389986
0.00146489
0.00378715
0.00151501
0.00367069
0.00156445
0.00355003
0.00161177
0.00342516
0.00166118
0.00329487
0.00171517
0.00315868
0.00177243
0.00301656
0.00183376
0.00286775
0.00189734
0.00271294
0.00196452
0.0025511
0.00203445
0.0023815
0.00210699
0.00220438
0.00218158
0.00202049
0.00225701
0.001829
0.00233408
0.00162892
0.00241259
0.001418
0.00249042
0.00119621
0.00256558
0.000966807
0.00263467
0.000731758
0.00270051
0.000490466
0.00276218
0.000242983
0.00281191
0.00285175
0.00502139
2.14248e-09
0.00502139
2.19748e-09
0.00502139
2.40845e-09
0.0050214
2.76106e-09
0.0050214
3.17871e-09
0.0050214
3.77743e-09
0.0050214
3.50617e-09
0.0050214
2.73272e-09
0.0050214
-3.98886e-10
0.00502141
-4.937e-09
0.00502142
-1.55903e-08
0.00502145
-3.16856e-08
0.00502153
-7.78331e-08
0.00502173
-1.66366e-07
0.00502234
-4.81112e-07
0.00502206
-9.75821e-07
0.00502607
-2.76438e-06
0.00506426
-6.14359e-06
0.00501
3.23915e-05
0.00520775
-5.97797e-05
0.00495823
0.000250205
0.00496294
0.000164973
0.00472383
0.00164662
0.00447629
0.00181897
0.00431309
0.00165148
0.00420348
0.00154652
0.0040911
0.00155179
0.00398835
0.00156732
0.00388171
0.00162131
0.00377244
0.00167344
0.00366094
0.00172313
0.00354596
0.00177579
0.00342586
0.00183464
0.00329999
0.00189791
0.00316642
0.00196658
0.00302525
0.00203756
0.00287616
0.00211297
0.00271879
0.00219107
0.00255328
0.00227192
0.00237765
0.00235692
0.00219121
0.00244312
0.0019946
0.00253037
0.00178794
0.00261874
0.00157024
0.00270765
0.00133966
0.00279564
0.00109414
0.00287982
0.000834453
0.00296053
0.000562601
0.00303388
0.000283733
0.00308977
0.0031351
0.00520796
1.65106e-09
0.00520796
1.6834e-09
0.00520796
1.86117e-09
0.00520797
2.12976e-09
0.00520797
2.40187e-09
0.00520797
2.68191e-09
0.00520797
3.12684e-09
0.00520797
2.60909e-09
0.00520797
1.83069e-09
0.00520796
1.69419e-09
0.00520794
5.55763e-09
0.00520789
1.3326e-08
0.00520777
4.22852e-08
0.00520759
8.32972e-08
0.00520655
1.88491e-07
0.00520621
3.24442e-07
0.0052107
1.11144e-06
0.00519997
1.1427e-06
0.00510549
8.65879e-06
0.00515537
1.28924e-05
0.00530768
8.20117e-05
0.00511069
0.000356776
0.00537185
0.00139021
0.00512753
0.00206289
0.00480983
0.00196827
0.00461445
0.001741
0.00444041
0.0017252
0.00428123
0.00172601
0.00412868
0.00177328
0.00398679
0.00181482
0.00385272
0.00185683
0.00372415
0.00190385
0.00359779
0.0019602
0.00347121
0.00202405
0.00334157
0.00209579
0.00320561
0.00217279
0.00306325
0.00225503
0.0029114
0.00234228
0.00275083
0.00243188
0.00258138
0.00252592
0.00240005
0.00262405
0.00220549
0.00272459
0.00199663
0.00282723
0.00177064
0.00293321
0.0015268
0.00303909
0.00126342
0.00314297
0.000979921
0.00324392
0.00067258
0.00334097
0.000340963
0.00342023
0.0034757
0.00540147
1.14102e-09
0.00540147
1.15352e-09
0.00540147
1.31217e-09
0.00540147
1.48989e-09
0.00540147
1.74602e-09
0.00540147
1.91053e-09
0.00540147
2.26707e-09
0.00540147
2.45597e-09
0.00540147
4.02036e-09
0.00540146
7.73941e-09
0.00540145
2.05194e-08
0.00540141
4.51285e-08
0.00540134
1.21505e-07
0.00540114
2.3749e-07
0.00540077
6.63112e-07
0.00540005
1.13329e-06
0.00539042
3.39764e-06
0.00538956
6.62244e-06
0.00544262
6.89594e-06
0.00537566
3.09941e-05
0.00538416
7.40138e-05
0.00554484
0.000196245
0.0062162
0.000712321
0.00592332
0.00235236
0.00565662
0.00223701
0.00530871
0.00208778
0.00503977
0.00199346
0.00480215
0.00196308
0.00459367
0.00198109
0.00439395
0.00201379
0.00420812
0.00204213
0.00403641
0.00207487
0.00387702
0.00211865
0.00372708
0.00217347
0.0035832
0.00223902
0.00344139
0.00231391
0.00329828
0.00239781
0.00315072
0.00248965
0.00299377
0.00258856
0.00282879
0.00269052
0.00265417
0.0027983
0.00246541
0.00291296
0.00225968
0.00303252
0.0020374
0.00315499
0.00178993
0.00328603
0.00151356
0.00341888
0.00120229
0.00355554
0.000850301
0.00369239
0.000451374
0.00381842
0.00392678
0.00560216
6.15217e-10
0.00560216
6.49221e-10
0.00560216
8.03972e-10
0.00560216
9.29354e-10
0.00560216
1.16169e-09
0.00560216
1.26285e-09
0.00560216
1.54483e-09
0.00560216
2.25948e-09
0.00560216
5.28027e-09
0.00560216
1.07654e-08
0.00560215
3.05954e-08
0.00560214
5.83007e-08
0.00560208
1.72517e-07
0.00560211
2.23743e-07
0.00560194
7.98216e-07
0.00560047
8.51096e-07
0.00560686
2.69136e-06
0.00560405
2.25243e-06
0.0056889
-3.24291e-07
0.00563392
2.32402e-05
0.00566968
2.6318e-05
0.00570551
0.000161282
0.00593687
0.000477334
0.00606867
0.00221981
0.00590935
0.00239468
0.00568076
0.00231496
0.00547514
0.00219813
0.00526166
0.00217611
0.00505927
0.00218283
0.00485655
0.00221592
0.0046524
0.00224583
0.00445269
0.00227404
0.00426259
0.00230802
0.00408324
0.00235247
0.00391409
0.00240778
0.00375377
0.0024736
0.00359973
0.00255131
0.00345089
0.00263801
0.00330291
0.00273622
0.00314486
0.00284818
0.00297478
0.00296786
0.00279419
0.00309316
0.00259852
0.0032278
0.00238228
0.00337085
0.00214535
0.00352253
0.00187292
0.00369102
0.00155426
0.00387409
0.00116589
0.00408042
0.000674165
0.00430896
0.00460064
0.00581031
1.17017e-10
0.00581031
2.0158e-10
0.00581031
3.20369e-10
0.00581031
4.6709e-10
0.00581031
6.11362e-10
0.00581031
8.04461e-10
0.00581031
9.86586e-10
0.00581031
1.63468e-09
0.00581031
2.30197e-09
0.00581032
5.5286e-09
0.00581034
9.74735e-09
0.00581037
2.29066e-08
0.00581048
4.33435e-08
0.00581053
1.8322e-07
0.00581149
1.48009e-07
0.00581062
8.34635e-07
0.0058123
6.44473e-07
0.00581089
1.97654e-07
0.00586375
-3.92563e-06
0.00578837
3.62805e-05
0.00599243
-3.09955e-05
0.0058084
0.000254436
0.00588536
0.00032409
0.00593896
0.00219861
0.0058279
0.00250668
0.00572329
0.00241918
0.00563206
0.00228876
0.00550766
0.00229998
0.00537285
0.00231705
0.00521777
0.00237019
0.00504778
0.00241535
0.00486819
0.00245326
0.00468365
0.00249202
0.0045003
0.00253545
0.00432015
0.00258768
0.00414666
0.00264666
0.00398302
0.00271444
0.00382541
0.00279509
0.00366872
0.00289243
0.00351713
0.00299929
0.00336533
0.00311917
0.00320616
0.00325156
0.00303899
0.00339452
0.00285361
0.00355579
0.00264628
0.00372939
0.00241109
0.00392564
0.00212666
0.00415883
0.0017605
0.00444625
0.00125916
0.00480966
0.00585963
0.00840003
1.03559e-11
0.00840003
3.73458e-11
0.00840003
8.39276e-11
0.00840003
1.45835e-10
0.00840003
2.32166e-10
0.00840003
3.20944e-10
0.00840003
4.92549e-10
0.00840003
6.67394e-10
0.00840003
1.42308e-09
0.00840004
2.14755e-09
0.00840006
5.65044e-09
0.00839999
1.18714e-08
0.0084002
2.44946e-08
0.00839937
5.21099e-08
0.00840009
2.18166e-07
0.00840023
4.51538e-07
0.00840214
1.73132e-06
0.00838859
4.70913e-06
0.00838135
4.90281e-06
0.00843903
1.16386e-05
0.00830014
3.70604e-05
0.0085178
0.000111054
0.0082808
0.000532483
0.0086304
0.00183787
0.00843948
0.00269733
0.00826697
0.00259146
0.00809088
0.00246428
0.00793105
0.00245926
0.00776426
0.00248314
0.00760402
0.00252951
0.00742525
0.00259324
0.00723184
0.00264605
0.00702839
0.00269477
0.00681847
0.00274472
0.00660869
0.00279683
0.00640097
0.00285372
0.00619251
0.00292215
0.00598689
0.0029999
0.0057932
0.00308529
0.00561051
0.00318117
0.00543834
0.00329053
0.00527826
0.00341077
0.00512729
0.0035445
0.00499646
0.00368591
0.00488113
0.00384447
0.00479909
0.0040065
0.00479699
0.00416044
0.00494382
0.0042995
0.00544611
0.00430614
0.00385557
0.00744945
0.00840003
1.44927e-12
0.00840003
5.94036e-12
0.00840003
1.61431e-11
0.00840003
3.28615e-11
0.00840003
6.26076e-11
0.00840003
1.0181e-10
0.00840003
1.69444e-10
0.00840003
2.54532e-10
0.00840003
4.84514e-10
0.00840003
7.97385e-10
0.00840004
1.94787e-09
0.00840004
3.93658e-09
0.00840005
1.01395e-08
0.00840012
1.8032e-08
0.00840018
8.09135e-08
0.00840058
1.66955e-07
0.00840147
5.8424e-07
0.00841007
1.33866e-06
0.00840225
5.03275e-06
0.0084832
6.06533e-06
0.00841392
3.21274e-05
0.00845992
7.11563e-05
0.00873569
0.000254276
0.00976596
0.000796477
0.00948111
0.00298075
0.0091565
0.0029152
0.00879533
0.00282479
0.00852667
0.00272724
0.00830064
0.00270846
0.00808308
0.00274634
0.00787651
0.00279884
0.00767288
0.00284875
0.00747342
0.00289341
0.00728182
0.00293554
0.00709677
0.00298113
0.00691527
0.00303448
0.00674363
0.00309302
0.00658638
0.00315637
0.00644128
0.00322954
0.00631378
0.003308
0.00620424
0.00339937
0.00611974
0.00349455
0.00606502
0.00359834
0.0060466
0.00370332
0.00609323
0.0037975
0.00621107
0.00388817
0.00644935
0.00392177
0.00684504
0.003904
0.00738647
0.00376461
0.00331545
0.00792625
0.00840003
1.45017e-13
0.00840003
8.76221e-13
0.00840003
2.80369e-12
0.00840003
6.54767e-12
0.00840003
1.33137e-11
0.00840003
2.28188e-11
0.00840003
4.1945e-11
0.00840003
5.56916e-11
0.00840003
1.54109e-10
0.00840003
2.66933e-10
0.00840003
3.41357e-10
0.00840003
1.07065e-09
0.00840007
-1.00844e-11
0.00839998
-2.13324e-09
0.00840011
1.56424e-08
0.00840075
3.06524e-08
0.00839961
2.20179e-07
0.00840284
6.15238e-07
0.00839311
1.57408e-06
0.00848453
3.22623e-06
0.00838713
1.86343e-05
0.0086262
3.5847e-05
0.00856971
0.000174994
0.00874402
0.000513999
0.00925279
0.00253712
0.00914368
0.00302594
0.00893903
0.00302815
0.00878743
0.00287754
0.00861626
0.00287854
0.00844301
0.00291859
0.00826853
0.00297228
0.0080929
0.00302357
0.00791886
0.00306676
0.0077467
0.00310701
0.00758129
0.00314575
0.00742679
0.00318821
0.00728508
0.00323394
0.00715851
0.00328212
0.00705161
0.00333563
0.0069674
0.00339144
0.00691513
0.00345109
0.00689331
0.0035156
0.00691796
0.00357322
0.00698445
0.00363571
0.00711167
0.00366934
0.00730526
0.00369378
0.0075626
0.00366373
0.00788609
0.00358022
0.0082229
0.0034276
0.00304509
0.00849324
0.00840003
4.2104e-14
0.00840003
1.88111e-13
0.00840003
8.15783e-13
0.00840003
1.64311e-12
0.00840003
4.58565e-12
0.00840003
7.83702e-12
0.00840003
1.91153e-11
0.00840003
3.19329e-11
0.00840003
1.10171e-10
0.00840003
1.52907e-10
0.00840003
8.89733e-10
0.00840004
1.47012e-09
0.00839998
4.78015e-09
0.00840025
3.48372e-09
0.00839995
3.24406e-08
0.0084003
2.82511e-08
0.00840047
2.39047e-07
0.00839987
5.75489e-07
0.00840189
1.08344e-06
0.00844008
1.24394e-06
0.00839496
1.44891e-05
0.00875128
2.19734e-05
0.00838807
0.000159688
0.00858007
0.000398166
0.00895075
0.00213089
0.00892215
0.003051
0.0088257
0.00312332
0.00868505
0.00301754
0.0085762
0.00298655
0.0084723
0.00302167
0.00837751
0.00306619
0.00827875
0.00312151
0.00817711
0.00316766
0.00807396
0.00320947
0.00796921
0.00324973
0.00786909
0.00328761
0.00777754
0.00332465
0.00769593
0.00336291
0.00763219
0.00339858
0.00758622
0.00343671
0.00757014
0.00346654
0.00758437
0.00350087
0.007639
0.00351807
0.00773746
0.00353707
0.00787809
0.00352772
0.00806695
0.00350421
0.00828907
0.00344068
0.00853186
0.00333662
0.0087746
0.00318428
0.00290698
0.00891213
0.00840003
2.2886e-14
0.00840003
3.77793e-14
0.00840003
3.36335e-13
0.00840003
3.72294e-13
0.00840003
3.02089e-12
0.00840003
2.09005e-12
0.00840003
1.95142e-11
0.00840003
6.63768e-12
0.00840003
9.95992e-11
0.00840003
-2.47585e-11
0.00840003
8.38896e-10
0.00840004
2.66838e-10
0.0084
5.11394e-09
0.00840017
7.26062e-10
0.00839998
3.48783e-08
0.00840034
-2.29978e-08
0.00840037
3.49681e-07
0.00840058
1.28245e-07
0.00839995
3.08634e-07
0.00837731
4.36686e-07
0.00840334
1.97081e-05
0.00817007
6.13504e-06
0.00839002
0.000192879
0.00856398
0.000210655
0.00947458
0.0012126
0.00917672
0.00334879
0.00902155
0.00327862
0.00881637
0.00322281
0.00867203
0.00313056
0.00857235
0.00312071
0.00848745
0.0031505
0.00841561
0.00319265
0.00835175
0.00323081
0.00829024
0.00327026
0.00823304
0.00330626
0.00818394
0.0033359
0.00814545
0.00336217
0.00811581
0.0033916
0.0081008
0.00341263
0.00809998
0.00343671
0.00811973
0.00344604
0.00816211
0.00345785
0.00823028
0.0034495
0.0083298
0.0034371
0.00845677
0.00340058
0.00861189
0.00334848
0.00878623
0.00326586
0.00896866
0.00315357
0.00914393
0.00300834
0.00278817
0.00926226
0.00840003
5.11466e-15
0.00840003
3.02024e-14
0.00840003
1.02463e-13
0.00840003
2.72258e-13
0.00840003
7.91185e-13
0.00840003
2.71636e-12
0.00840003
6.07626e-12
0.00840003
2.78702e-11
0.00840003
6.42891e-11
0.00840003
2.10767e-10
0.00840003
5.4433e-10
0.00840001
1.84513e-09
0.00840004
4.51009e-09
0.00839991
1.42753e-08
0.00840038
3.42162e-08
0.0083999
9.66964e-08
0.0084009
1.87204e-07
0.00840132
9.01918e-07
0.00839722
2.44337e-06
0.00838771
2.77551e-06
0.00848669
6.5509e-06
0.00836875
1.94479e-05
0.008763
4.83827e-05
0.00858725
0.000217158
0.00910083
0.00058277
0.00974063
0.00275822
0.00948316
0.00353797
0.00922801
0.00347745
0.00904286
0.00331516
0.00890139
0.00326142
0.00878877
0.00326245
0.00870028
0.0032806
0.00862477
0.0033055
0.00856234
0.00333183
0.00851572
0.00335199
0.00848377
0.00336688
0.00846677
0.00337822
0.00846493
0.00339245
0.00847855
0.00339811
0.00850858
0.00340587
0.00855478
0.00339901
0.00861987
0.00339202
0.00870054
0.00336805
0.00880029
0.00333672
0.0089141
0.00328605
0.00904206
0.00322007
0.0091762
0.00313102
0.00931084
0.00301842
0.0094396
0.00287902