/*--------------------------------*- C++ -*----------------------------------*\
| =========                 |                                                 |
| \\      /  F ield         | OpenFOAM: The Open Source CFD Toolbox           |
|  \\    /   O peration     | Version:  2112                                  |
|   \\  /    A nd           | Website:  www.openfoam.com                      |
|    \\/     M anipulation  |                                                 |
\*---------------------------------------------------------------------------*/
FoamFile
{
    version     2.0;
    format      ascii;
    arch        "LSB;label=32;scalar=64";
    class       volScalarField;
    location    "3.4995";
    object      T;
}
// * * * * * * * * * * * * * * * * * * * * * * * * * * * * * * * * * * * * * //

dimensions      [0 0 0 1 0 0 0];

internalField   nonuniform List<scalar> 
7000
(
1
1
1
1
1
1
1
1.00001
1.00001
1.00003
1.00003
1.00033
1.00054
1.00222
1.00317
1.01145
1.01964
1.04708
1.15232
1.39328
1.86995
2.55608
2.72603
2.70727
2.67412
2.6686
2.67802
2.68688
2.69559
2.70238
2.70783
2.71318
2.71901
2.72353
2.72987
2.73555
2.74006
2.74488
2.74716
2.75313
2.75749
2.76408
2.76868
2.77174
2.77576
2.77649
2.78037
2.78251
2.78029
2.79032
1
1
1
1
1
1
1
1.00001
1
1.00003
1.00003
1.00032
1.00053
1.00221
1.00317
1.01129
1.01955
1.05169
1.14334
1.3788
1.8294
2.56351
2.72545
2.7062
2.67336
2.66828
2.67788
2.68614
2.69499
2.70153
2.70694
2.71202
2.71819
2.72269
2.72965
2.73458
2.73975
2.74439
2.74811
2.75434
2.75938
2.76617
2.77084
2.77508
2.77868
2.78038
2.78375
2.78426
2.78262
2.78803
1
1
1
1
1
1
1
1.00001
1
1.00003
1.00003
1.00032
1.00052
1.00217
1.00314
1.01088
1.01939
1.0524
1.14042
1.36614
1.82559
2.59096
2.72923
2.70867
2.67569
2.67116
2.68067
2.68931
2.69805
2.70523
2.71017
2.71607
2.72143
2.72682
2.73293
2.73795
2.74241
2.74721
2.75014
2.75642
2.75988
2.76621
2.76954
2.77362
2.77735
2.77935
2.78378
2.78322
2.78241
2.78993
1
1
1
1
1
1
1
1.00001
1
1.00003
1.00003
1.00032
1.00052
1.00207
1.00301
1.01011
1.01839
1.04713
1.14012
1.35298
1.82868
2.61029
2.72887
2.70735
2.67563
2.67166
2.68095
2.6892
2.6981
2.70493
2.71004
2.71611
2.72141
2.727
2.73314
2.73748
2.74301
2.74666
2.7512
2.75594
2.76026
2.76543
2.7689
2.77264
2.77602
2.77833
2.78312
2.78327
2.78132
2.78579
1
1
1
1
1
1
1
1
1
1.00003
1.00003
1.00031
1.00053
1.00198
1.00297
1.00946
1.01754
1.04621
1.13575
1.34513
1.82072
2.61459
2.7256
2.70413
2.67436
2.67116
2.68001
2.68923
2.69717
2.70533
2.70939
2.71684
2.72126
2.72757
2.7333
2.73774
2.74345
2.74688
2.75154
2.75626
2.75939
2.76488
2.7664
2.7717
2.77284
2.77501
2.77883
2.77901
2.78184
2.78707
1
1
1
1
1
1
1
1
1.00001
1.00001
1.00012
1.00023
1.00102
1.00149
1.00595
1.00546
1.01824
1.03561
1.1412
1.33777
1.83087
2.61451
2.72178
2.70035
2.67237
2.66966
2.67874
2.68624
2.69569
2.70177
2.70819
2.7132
2.71994
2.72449
2.7319
2.73531
2.74222
2.74541
2.75047
2.75566
2.75901
2.76528
2.76663
2.7708
2.77345
2.77366
2.77796
2.7761
2.77703
2.78101
1
1
1
1
1
1
1
1
1.00001
1.00001
1.00012
1.00022
1.001
1.00135
1.00595
1.00456
1.01709
1.0334
1.13651
1.32662
1.8211
2.60988
2.71911
2.69803
2.67197
2.66956
2.67774
2.68571
2.6943
2.70106
2.70656
2.71235
2.71754
2.72363
2.72913
2.73421
2.73919
2.74413
2.7483
2.75333
2.75655
2.76129
2.7646
2.7665
2.7689
2.77206
2.7724
2.77302
2.77689
2.78223
1
1
1
1
1
1
1
1
1.00001
1.00001
1.00012
1.00021
1.00094
1.00132
1.0053
1.00497
1.01783
1.02853
1.13033
1.31324
1.81153
2.60525
2.71793
2.69734
2.67422
2.67094
2.67828
2.68519
2.69376
2.70035
2.70511
2.71142
2.71533
2.72179
2.72667
2.73164
2.73684
2.74084
2.74659
2.75002
2.75503
2.75789
2.7624
2.76726
2.76573
2.76833
2.77121
2.76645
2.77119
2.77421
1
1
1
1
1
1
1
1
1.00001
1.00001
1.00011
1.0002
1.00086
1.00119
1.00494
1.00441
1.01666
1.02607
1.12234
1.29949
1.79818
2.59548
2.71593
2.69289
2.67841
2.67284
2.68044
2.68591
2.69476
2.70079
2.70567
2.71084
2.71533
2.72022
2.72512
2.72891
2.73401
2.7368
2.74317
2.74669
2.75096
2.75449
2.75509
2.76045
2.76449
2.76448
2.76462
2.76552
2.76947
2.77554
1
1
1
1
1
1
1
1
1.00001
1.00001
1.0001
1.00018
1.00077
1.00103
1.00439
1.00363
1.01523
1.02202
1.11752
1.28266
1.78151
2.5826
2.71097
2.68074
2.67832
2.67335
2.68044
2.68626
2.69534
2.70168
2.70645
2.71162
2.71514
2.72043
2.7236
2.72772
2.73153
2.73419
2.73885
2.74348
2.74721
2.75269
2.75563
2.7556
2.75786
2.762
2.76165
2.75612
2.76294
2.76478
1
1
1
1
1
1
1
1
1.00001
1.00001
1.00008
1.00016
1.00066
1.00087
1.0037
1.00291
1.01379
1.01796
1.10847
1.2665
1.76374
2.57335
2.69466
2.68754
2.67646
2.67
2.67601
2.68285
2.6918
2.69862
2.70395
2.70951
2.7143
2.71932
2.72333
2.72655
2.73025
2.73193
2.7347
2.73779
2.74062
2.74321
2.74854
2.75384
2.75297
2.75439
2.75535
2.75679
2.75985
2.76632
1
1
1
1
1
1
1
1
1.00001
1.00001
1.00008
1.00014
1.00059
1.00084
1.00332
1.0028
1.01179
1.01139
1.10055
1.24797
1.74052
2.54626
2.68521
2.68448
2.67651
2.66913
2.67393
2.68075
2.68928
2.6955
2.70071
2.70596
2.71077
2.71631
2.72024
2.72469
2.72822
2.73101
2.73353
2.73529
2.73888
2.73985
2.74085
2.74434
2.74918
2.75097
2.74766
2.7432
2.75164
2.7519
1
1
1
1
1
1
1
1
1.00001
1.00001
1.00007
1.00012
1.00049
1.00072
1.00282
1.00162
1.01297
1.00624
1.09172
1.2282
1.7131
2.51157
2.66731
2.68182
2.67432
2.66678
2.67193
2.67786
2.68722
2.6927
2.69839
2.70243
2.70761
2.71192
2.71592
2.71957
2.72321
2.72561
2.72899
2.72969
2.73212
2.73501
2.73652
2.73798
2.73788
2.74137
2.74368
2.74321
2.74617
2.75276
1
1
1
1
1
1
1
1
1
1.00001
1.00003
1.00016
1.0003
1.00078
1.0022
1.00194
1.01519
1.00711
1.08697
1.21951
1.67144
2.46892
2.64743
2.68257
2.67437
2.66618
2.66997
2.67562
2.68476
2.68973
2.69536
2.69942
2.7039
2.70892
2.7121
2.7164
2.71911
2.7216
2.72458
2.72647
2.72645
2.72741
2.72781
2.73113
2.73345
2.73304
2.72951
2.72708
2.73558
2.73446
1
1
1
1
1
1
1
1
1
1.00002
1.00004
1.00016
1.00027
1.00082
1.00197
1.00283
1.01435
1.00503
1.0854
1.1841
1.6385
2.40571
2.62232
2.68542
2.67631
2.66793
2.66991
2.67574
2.68304
2.68812
2.69183
2.69577
2.699
2.70302
2.70626
2.70975
2.71282
2.71486
2.71714
2.71958
2.72183
2.72197
2.72018
2.71871
2.71946
2.72405
2.72521
2.72255
2.72539
2.73205
1
1
1
1
1
1
1
1
1
1.00002
1.00003
1.00015
1.00021
1.00075
1.00138
1.00264
1.01265
1.00608
1.07383
1.15478
1.58474
2.33247
2.57862
2.68305
2.6753
2.6682
2.66938
2.67563
2.68205
2.68769
2.69097
2.69434
2.69663
2.69978
2.70101
2.70466
2.7059
2.70842
2.7095
2.70933
2.71084
2.71268
2.71337
2.71251
2.70918
2.7073
2.70463
2.70345
2.70999
2.70819
1
1
1
1
1
1
1
1
1
1.00003
1.00005
1.0002
1.00031
1.00103
1.00164
1.00626
1.0052
1.02075
1.04097
1.17162
1.41156
2.01165
2.52854
2.67708
2.66724
2.66005
2.66068
2.66718
2.67337
2.68049
2.68502
2.68899
2.69172
2.69474
2.69586
2.69766
2.69953
2.70004
2.70307
2.70253
2.70104
2.69957
2.69796
2.69628
2.69727
2.69653
2.69478
2.68945
2.69132
2.6974
1
1
1
1
1
1
1
1
1
1.00003
1.00004
1.00016
1.00026
1.00078
1.00127
1.0053
1.00535
1.01799
1.0326
1.13371
1.32804
1.78484
2.47687
2.65245
2.63935
2.64023
2.63902
2.65131
2.65697
2.66743
2.67277
2.67864
2.68241
2.68626
2.688
2.68942
2.68965
2.68953
2.68956
2.69116
2.69129
2.6899
2.68776
2.68309
2.67437
2.67104
2.66594
2.66265
2.66353
2.65913
1
1
1
1
1
1
1
1
1
1.00002
1.00003
1.00011
1.00019
1.00055
1.00088
1.00363
1.00325
1.0127
1.01237
1.10411
1.25832
1.74429
2.50736
2.64558
2.64196
2.63278
2.62486
2.63424
2.64045
2.64938
2.65738
2.66282
2.66908
2.67341
2.67756
2.68009
2.6813
2.6804
2.67767
2.67496
2.67256
2.67101
2.6673
2.6663
2.6608
2.651
2.64163
2.62893
2.62234
2.61925
1
1
1
1
1
1
1
1
1
1
1.00001
1.00003
1.00004
1.00027
1.00041
1.00228
1.0026
1.01739
1.00449
1.09209
1.20348
1.67153
2.45001
2.61987
2.65481
2.6441
2.63039
2.63033
2.6345
2.63951
2.64456
2.64856
2.6518
2.65634
2.65906
2.66351
2.66575
2.66877
2.66744
2.66465
2.65952
2.6533
2.64696
2.6345
2.6284
2.61496
2.59781
2.57645
2.55042
2.4694
1
1
1
1
1
1
1
1
1
1
1.00001
1.00002
1.00009
1.00007
1.00079
1.00122
1.00725
1.00291
1.02475
1.05333
1.21014
1.48604
2.12285
2.53052
2.64474
2.63595
2.63365
2.62806
2.6308
2.63241
2.63586
2.63817
2.63893
2.63945
2.6394
2.63901
2.63895
2.6383
2.63755
2.63548
2.63293
2.62634
2.61978
2.60861
2.58753
2.5691
2.53505
2.48606
2.41992
2.30128
1
1
1
1
1
1
1
1
1
1
1
1.00001
1.00003
1.00003
1.00028
1.00039
1.00306
1.00152
1.01835
1.0317
1.13202
1.32096
1.77274
2.45529
2.60907
2.60391
2.59613
2.59418
2.59872
2.60795
2.61385
2.61962
2.62313
2.62564
2.62563
2.62514
2.62255
2.61891
2.61176
2.60615
2.59502
2.5873
2.57147
2.55949
2.53844
2.50664
2.47371
2.40455
2.32525
2.20394
1
1
1
1
1
1
1
1
1
1
1
1
1.00003
1.00001
1.00025
1.00034
1.0022
1.0025
1.01739
1.00598
1.10181
1.23416
1.70435
2.46044
2.60827
2.6117
2.59553
2.58171
2.57687
2.58042
2.58404
2.58718
2.59094
2.593
2.59738
2.59721
2.59641
2.59446
2.58915
2.58343
2.57186
2.55754
2.54122
2.51469
2.49368
2.45195
2.41418
2.35247
2.2724
2.18604
1
1
1
1
1
1
1
1
1
1
1
1.00001
1.00003
1.00003
1.00021
1.0003
1.00182
1.00192
1.01457
1.00199
1.0819
1.16798
1.58887
2.29777
2.53923
2.61428
2.5955
2.58549
2.57607
2.57462
2.57523
2.57492
2.57368
2.57257
2.56938
2.56704
2.56226
2.55866
2.55315
2.54533
2.53739
2.5213
2.50781
2.48004
2.4563
2.41701
2.37516
2.32043
2.25213
2.17898
1
1
1
1
1
1
1
1
1
1
1
1
1.00002
1.00002
1.00015
1.00021
1.00129
1.00139
1.01028
1.00419
1.05648
1.12705
1.42065
2.0655
2.37934
2.5553
2.55753
2.55588
2.55603
2.55834
2.56155
2.56363
2.56274
2.56061
2.55744
2.55076
2.54506
2.53523
2.52829
2.51467
2.50545
2.48673
2.47318
2.44785
2.42443
2.38994
2.35306
2.30488
2.24888
2.18817
1
1
1
1
1
1
1
1
1
1
1
1.00001
1.00001
1.00006
1.00005
1.00046
1.00062
1.00375
1.00209
1.02075
1.00522
1.09381
1.21375
1.67296
2.38673
2.52502
2.54306
2.53311
2.52363
2.52392
2.52709
2.53162
2.53606
2.53548
2.53373
2.52907
2.52469
2.51504
2.50767
2.49211
2.48098
2.4603
2.44334
2.41855
2.39443
2.36356
2.33016
2.29031
2.24293
2.19438
1
1
1
1
1
1
1
1
1
1
1
1
1
1.00002
1.00002
1.00019
1.00026
1.00159
1.00168
1.01216
1.00123
1.06937
1.13611
1.50411
2.14538
2.43316
2.5365
2.53025
2.52007
2.51195
2.50985
2.51095
2.51091
2.50944
2.50725
2.50331
2.50007
2.49306
2.48712
2.4745
2.46375
2.44525
2.42719
2.40317
2.37792
2.34802
2.31572
2.27889
2.23715
2.19487
1
1
1
1
1
1
1
1
1
1
1
1
1
1.00002
1.00001
1.00013
1.00018
1.00113
1.0011
1.0085
1.00133
1.04238
1.09223
1.28185
1.71918
2.21087
2.48039
2.50795
2.50308
2.50054
2.49557
2.49371
2.4917
2.48595
2.48208
2.47448
2.47033
2.46184
2.4567
2.44626
2.43775
2.424
2.40946
2.39042
2.3687
2.34221
2.31292
2.2789
2.24119
2.20158
1
1
1
1
1
1
1
1
1
1
1
1
1
1.00001
1.00001
1.00006
1.00006
1.0004
1.0005
1.00394
1.00082
1.02395
1.04071
1.1696
1.40359
1.89991
2.3376
2.47389
2.48062
2.48087
2.48025
2.47967
2.47894
2.47435
2.46951
2.45988
2.45148
2.44051
2.43007
2.41862
2.40659
2.39413
2.38007
2.36462
2.34731
2.32724
2.30457
2.27642
2.24419
2.21069
1
1
1
1
1
1
1
1
1
1
1
1
1
1
1.00001
1.00003
1.00008
1.00013
1.00074
1.00162
1.00421
1.0118
1.03385
1.0864
1.23908
1.65177
2.08865
2.38858
2.44429
2.44657
2.45082
2.45146
2.45355
2.45353
2.45184
2.44676
2.43945
2.42927
2.41832
2.40427
2.39064
2.374
2.35891
2.34019
2.32317
2.30221
2.2822
2.25917
2.23418
2.20715
1
1
1
1
1
1
1
1
1
1
1
1
1
1
1.00001
1.00001
1.00005
1.00006
1.00042
1.00044
1.00258
1.00358
1.01548
1.0212
1.11631
1.28731
1.69066
2.21773
2.41401
2.42013
2.41948
2.41613
2.41343
2.41256
2.41243
2.412
2.41038
2.40619
2.40069
2.39053
2.37965
2.36494
2.34997
2.3326
2.31399
2.29375
2.27159
2.24843
2.22221
2.19689
1
1
1
1
1
1
1
1
1
1
1
1
1
1
1
1.00001
1.00001
1.00007
1.00007
1.00048
1.00058
1.00426
1.00289
1.02485
1.04961
1.18024
1.47098
1.90379
2.30924
2.41354
2.41309
2.4047
2.39663
2.38795
2.38198
2.37646
2.37168
2.36577
2.36033
2.3545
2.34775
2.33965
2.32903
2.31669
2.30214
2.28528
2.26612
2.24466
2.22079
2.19617
1
1
1
1
1
1
1
1
1
1
1
1
1
1
1
1
1.00002
1.00002
1.00013
1.00014
1.001
1.00106
1.008
1.00031
1.03852
1.08004
1.24082
1.66795
2.04665
2.33059
2.39069
2.39276
2.38746
2.37956
2.37197
2.36559
2.35946
2.35178
2.34304
2.33326
2.32314
2.31212
2.30087
2.28825
2.27521
2.26101
2.24592
2.2287
2.20898
2.18893
1
1
1
1
1
1
1
1
1
1
1
1
1
1
1
1
1.00001
1.00002
1.00006
1.00012
1.00024
1.00108
1.00114
1.00996
1.00255
1.04865
1.10587
1.30969
1.81465
2.13778
2.33911
2.3617
2.35457
2.35262
2.34706
2.34321
2.33934
2.33543
2.32973
2.32164
2.31257
2.30177
2.29063
2.278
2.26504
2.25038
2.23523
2.2182
2.19969
2.18063
1
1
1
1
1
1
1
1
1
1
1
1
1
1
1
1
1
1.00001
1.00001
1.00007
1.00007
1.00051
1.00047
1.00313
1.00363
1.01954
1.02589
1.15079
1.37198
1.84346
2.2168
2.33954
2.34182
2.33164
2.32573
2.31627
2.31043
2.30384
2.29889
2.29245
2.28588
2.27729
2.26811
2.25704
2.24544
2.23216
2.21838
2.2027
2.18585
2.16823
1
1
1
1
1
1
1
1
1
1
1
1
1
1
1
1
1
1
1.00001
1.00001
1.00008
1.0001
1.00062
1.0007
1.0054
1.00279
1.02995
1.05481
1.18867
1.51601
1.9283
2.23803
2.31267
2.31714
2.31147
2.3048
2.2966
2.28924
2.2834
2.27702
2.27039
2.26242
2.25404
2.24405
2.23353
2.22113
2.2082
2.19326
2.17708
2.16014
1
1
1
1
1
1
1
1
1
1
1
1
1
1
1
1
1
1
1.00001
1.00002
1.00011
1.00009
1.00041
1.00043
1.00339
1.00181
1.01772
1.00941
1.08266
1.18379
1.5577
2.11249
2.23756
2.26932
2.27296
2.27019
2.26508
2.25741
2.25181
2.24639
2.24159
2.23556
2.22952
2.22214
2.21433
2.2051
2.19483
2.18298
2.16878
2.15411
1
1
1
1
1
1
1
1
1
1
1
1
1
1
1
1
1
1
1
1.00001
1.00001
1.00008
1.00004
1.00054
1.00044
1.00381
1.00104
1.02482
1.00092
1.09882
1.19833
1.58938
2.11627
2.24987
2.26701
2.26488
2.25702
2.24782
2.23801
2.22885
2.22074
2.21285
2.20479
2.19688
2.18827
2.17985
2.1702
2.16043
2.14849
2.137
1
1
1
1
1
1
1
1
1
1
1
1
1
1
1
1
1
1
1
1
1.00001
1.00002
1.00007
1.00011
1.00044
1.00077
1.00232
1.00532
1.01465
1.03949
1.08338
1.23854
1.65953
1.98507
2.21882
2.25475
2.25418
2.24728
2.23901
2.22802
2.2178
2.2085
2.19805
2.18841
2.17732
2.16705
2.1553
2.14405
2.13083
2.11853
1
1
1
1
1
1
1
1
1
1
1
1
1
1
1
1
1
1
1
1
1
1.00001
1.00002
1.00007
1.00012
1.00045
1.00081
1.00234
1.00522
1.01579
1.04114
1.08118
1.23655
1.67899
1.96934
2.18035
2.21266
2.22754
2.22552
2.22119
2.21249
2.20454
2.19486
2.18596
2.17536
2.16495
2.15308
2.14106
2.12733
2.11362
1
1
1
1
1
1
1
1
1
1
1
1
1
1
1
1
1
1
1
1
1
1.00001
1.00001
1.00004
1.00006
1.00024
1.00029
1.00134
1.00177
1.00718
1.01239
1.03831
1.09998
1.22451
1.57588
2.05751
2.17018
2.17899
2.18052
2.17902
2.17627
2.17135
2.16809
2.16412
2.16037
2.15464
2.1464
2.13665
2.1246
2.11235
1
1
1
1
1
1
1
1
1
1
1
1
1
1
1
1
1
1
1
1
1
1
1.00001
1.00001
1.00002
1.00006
1.0002
1.0003
1.00101
1.00227
1.00614
1.01276
1.03045
1.10063
1.20746
1.5619
2.05133
2.17488
2.18861
2.18377
2.17076
2.16013
2.14804
2.14001
2.13087
2.12482
2.11833
2.11289
2.10496
2.09751
1
1
1
1
1
1
1
1
1
1
1
1
1
1
1
1
1
1
1
1
1
1
1
1
1.00002
1.00002
1.0001
1.00012
1.00057
1.0007
1.00259
1.00489
1.01416
1.03639
1.07805
1.21762
1.55954
1.86461
2.12033
2.1688
2.16807
2.16293
2.15142
2.14089
2.12951
2.11866
2.10841
2.09791
2.08761
2.07685
1
1
1
1
1
1
1
1
1
1
1
1
1
1
1
1
1
1
1
1
1
1
1
1
1.00001
1.00001
1.00004
1.00005
1.00022
1.00025
1.00114
1.00146
1.00532
1.00966
1.0336
1.07482
1.16699
1.43637
1.88612
2.05137
2.1211
2.13888
2.14105
2.1372
2.12942
2.11855
2.10837
2.09718
2.08594
2.07438
1
1
1
1
1
1
1
1
1
1
1
1
1
1
1
1
1
1
1
1
1
1
1
1
1
1
1.00001
1.00002
1.00008
1.00009
1.00039
1.00054
1.00233
1.00274
1.00937
1.02203
1.05808
1.10458
1.37649
1.77066
1.99853
2.0924
2.11357
2.11657
2.11404
2.10949
2.10182
2.09247
2.08225
2.07191
1
1
1
1
1
1
1
1
1
1
1
1
1
1
1
1
1
1
1
1
1
1
1
1
1
1
1
1.00001
1.00002
1.00007
1.00008
1.00037
1.00042
1.00192
1.00212
1.00945
1.01374
1.04527
1.10856
1.23353
1.52757
1.87498
2.05648
2.08662
2.0848
2.08144
2.07869
2.07309
2.06582
2.05739
1
1
1
1
1
1
1
1
1
1
1
1
1
1
1
1
1
1
1
1
1
1
1
1
1
1
1
1
1.00001
1.00001
1.00005
1.00005
1.00032
1.00026
1.00135
1.00116
1.0096
1.00744
1.03557
1.03766
1.21962
1.45701
1.73484
1.95602
2.05171
2.0664
2.06581
2.0597
2.04941
2.04258
1
1
1
1
1
1
1
1
1
1
1
1
1
1
1
1
1
1
1
1
1
1
1
1
1
1
1
1
1
1
1.00002
1.00002
1.00009
1.0001
1.00042
1.00059
1.0017
1.00382
1.0119
1.01897
1.05602
1.12526
1.27241
1.53238
1.81431
2.00469
2.04172
2.04129
2.03653
2.02785
1
1
1
1
1
1
1
1
1
1
1
1
1
1
1
1
1
1
1
1
1
1
1
1
1
1
1
1
1
1
1
1.00001
1.00001
1.00004
1.00004
1.0002
1.00013
1.00109
1.00121
1.00628
1.00513
1.03394
1.04965
1.21528
1.42061
1.64508
1.87761
1.99554
2.01376
2.00974
1
1
1
1
1
1
1
1
1
1
1
1
1
1
1
1
1
1
1
1
1
1
1
1
1
1
1
1
1
1
1
1
1.00001
1.00001
1.00002
1.00004
1.00012
1.00007
1.00059
0.998742
1.00281
1.00353
1.021
1.04089
1.0829
1.24832
1.47948
1.6777
1.87663
1.94628
1
1
1
1
1
1
1
1
1
1
1
1
1
1
1
1
1
1
1
1
1
1
1
1
1
1
1
1
1
1
1
1
1
1
1.00001
1.00001
1.00003
1.00005
1.00017
1.00013
1.00073
0.99809
1.00387
1.00483
1.02397
1.04808
1.08151
1.24015
1.37937
1.62908
1
1
1
1
1
1
1
1
1
1
1
1
1
1
1
1
1
1
1
1
1
1
1
1
1
1
1
1
1
1
1
1
1
1
1
1
1
1.00001
1
1.00003
0.999881
1.00037
1.00005
1.00319
1.0011
1.01932
0.954308
1.05255
1.0891
1.34618
1
1
1
1
1
1
1
1
1
1
1
1
1
1
1
1
1
1
1
1
1
1
1
1
1
1
1
1
1
1
1
1
1
1
1
1
1
1
1
1.00002
0.999948
0.999975
0.999329
0.999417
0.995431
1.00034
0.96559
1.01214
1.01603
1.16255
1
1
1
1
1
1
1
1
1
1
1
1
1
1
1
1
1
1
1
1
1
1
1
1
1
1
1
1
1
1
1
1
1
1
1
1
1
1
1
1.00001
0.999982
0.999994
0.999755
0.999818
0.998495
1.00134
0.986288
1.00748
1.01451
1.07413
1
1
1
1
1
1
1
1
1
1
1
1
1
1
1
1
1
1
1
1
1
1
1
1
1
1
1
1
1
1
1
1
1
1
1
1
1
1
1
1.00001
0.99998
0.999991
0.999761
0.999797
0.998419
1.00043
0.987098
1.0059
1.00992
1.0637
1
1
1
1
1
1
1
1
1
1
1
1
1
1
1
1
1
1
1
1
1
1
1
1
1
1
1
1
1
1
1
1
1
1
1
1
1
1
0.999999
1.00001
0.999979
0.99999
0.999767
0.999801
0.998473
1.0004
0.987534
1.00566
1.00896
1.06148
1
1
1
1
1
1
1
1
1
1
1
1
1
1
1
1
1
1
1
1
1
1
1
1
1
1
1
1
1
1
1
1
1
1
1
1
1
1
1
1
1.00002
1.00002
1.00014
1.00013
1.00077
1.00075
1.00449
1.00326
1.02112
1.02405
1
1
1
1
1
1
1
1
1
1
1
1
1
1
1
1
1
1
1
1
1
1
1
1
1
1
1
1
1
1
1
1
1
1
1
1
1
1
1
1
1.00003
1.00002
1.00015
1.00014
1.00081
1.00077
1.00467
1.00282
1.02165
1.02318
1
1
1
1
1
1
1
1
1
1
1
1
1
1
1
1
1
1
1
1
1
1
1
1
1
1
1
1
1
1
1
1
1
1
1
1
1
1
0.999999
1.00001
0.999982
0.999992
0.999796
0.999839
0.99867
1.00065
0.988207
1.00596
1.00901
1.05993
1
1
1
1
1
1
1
1
1
1
1
1
1
1
1
1
1
1
1
1
1
1
1
1
1
1
1
1
1
1
1
1
1
1
1
1
1
1
1
1
1.00002
1.00002
1.00011
1.00004
1.00056
1.0005
1.004
1.00395
1.02248
1.02319
1.94217
1.84842
1.85376
1.93758
2.04683
2.18346
2.26912
2.36783
2.40647
2.43607
2.4935
2.62284
2.86153
3.12372
3.16852
3.10515
3.00216
2.9341
2.91656
2.90865
2.88457
2.86762
2.86042
2.85102
2.84522
2.84272
2.84242
2.84895
2.86222
2.88514
2.90982
2.93439
2.95555
2.96992
2.97927
2.983
2.98312
2.98229
2.97285
2.97076
2.96127
2.95585
2.94416
2.9384
2.92628
2.92008
2.90682
2.89939
2.88491
2.87762
2.86389
2.85684
2.84356
2.83667
2.82333
2.81686
2.80393
2.79752
2.78496
2.77882
2.76658
2.76055
2.74847
2.74233
2.73077
2.72376
2.71287
2.70472
2.69457
2.68539
2.67575
2.66594
2.65643
2.64641
2.63665
2.62681
2.61664
2.60718
2.59655
2.58763
2.57666
2.56827
2.55719
2.54931
2.53843
2.5309
2.52045
2.5133
2.50322
2.4966
2.48653
2.48047
2.4704
2.4648
2.4552
2.44997
2.44143
2.43761
2.43174
2.43329
1.95776
1.87062
1.85218
1.85365
1.85824
1.84009
1.81872
1.82137
1.85005
1.90362
2.00617
2.12798
2.3729
2.71469
2.89622
3.00597
3.04901
3.07288
3.08532
3.10546
3.12705
3.13253
3.1165
3.08077
3.06986
3.06753
3.06773
3.07323
3.0742
3.07741
3.0774
3.06806
3.04935
3.02581
3.00254
2.98474
2.94475
2.9225
2.8935
2.8736
2.85057
2.83075
2.81051
2.79199
2.77415
2.75806
2.73983
2.7246
2.70734
2.69519
2.67979
2.66911
2.65384
2.64416
2.62877
2.61961
2.60474
2.59588
2.58173
2.57319
2.55959
2.55143
2.53812
2.53021
2.51708
2.50916
2.49612
2.48809
2.47506
2.46685
2.45379
2.44538
2.43228
2.42362
2.41052
2.40162
2.38854
2.3794
2.3663
2.35689
2.34362
2.33388
2.3203
2.31021
2.29613
2.28583
2.27113
2.26088
2.24566
2.23576
2.22036
2.21094
2.19585
2.18668
2.1726
2.16343
2.15115
2.14276
2.13405
2.12937
2.01494
1.93938
1.8779
1.82246
1.75727
1.70186
1.66868
1.66944
1.67753
1.70285
1.74777
1.83652
2.0714
2.26539
2.55508
2.64892
2.70112
2.78488
2.85342
2.91581
2.97564
3.04619
3.10607
3.14235
3.16851
3.18606
3.1993
3.20271
3.18681
3.14368
3.09462
3.03442
2.97859
2.92216
2.88429
2.84633
2.81705
2.79198
2.77071
2.75184
2.73633
2.72013
2.70613
2.69193
2.6782
2.66667
2.65272
2.64127
2.62485
2.61372
2.59821
2.58799
2.57304
2.56315
2.54853
2.53876
2.52453
2.51519
2.50159
2.49313
2.48012
2.47247
2.46001
2.45291
2.44114
2.43457
2.42334
2.41717
2.40604
2.40001
2.38862
2.38251
2.37072
2.36443
2.35239
2.34589
2.33384
2.32712
2.31528
2.30816
2.29669
2.28886
2.27781
2.26877
2.25813
2.24761
2.23745
2.2253
2.21553
2.20182
2.1923
2.17728
2.16781
2.15188
2.14245
2.12607
2.11713
2.10117
2.09438
2.08178
2.04043
1.96652
1.89888
1.83872
1.78095
1.73159
1.69081
1.65632
1.64401
1.64533
1.65947
1.70285
1.80111
2.03356
2.38389
2.40624
2.47075
2.5464
2.58682
2.63642
2.68728
2.74414
2.80875
2.88374
2.94881
3.00746
3.04806
3.0542
3.03366
2.973
2.89489
2.83463
2.78097
2.74161
2.7115
2.69259
2.67496
2.66285
2.64692
2.63639
2.62034
2.61108
2.59598
2.58786
2.57407
2.56592
2.55172
2.54218
2.52675
2.51652
2.50167
2.49139
2.47575
2.46496
2.44942
2.43952
2.42505
2.41569
2.40138
2.39195
2.3777
2.36863
2.35499
2.34638
2.33322
2.32476
2.31203
2.30378
2.29187
2.28416
2.27325
2.26631
2.25632
2.24998
2.24069
2.23458
2.22582
2.21953
2.21131
2.20451
2.19684
2.18915
2.18248
2.17401
2.16849
2.15941
2.15472
2.14537
2.14072
2.13131
2.1265
2.1167
2.11167
2.10135
2.09598
2.08494
2.07899
2.0681
2.06252
2.05507
2.06572
1.99339
1.92417
1.86291
1.8086
1.75458
1.71179
1.66802
1.6356
1.61749
1.61885
1.63287
1.6779
1.78712
2.01679
2.2846
2.34364
2.38261
2.41996
2.45262
2.48573
2.52929
2.57563
2.62471
2.67817
2.73263
2.77764
2.80128
2.78983
2.74536
2.69455
2.64396
2.61617
2.59362
2.58265
2.58057
2.5782
2.57501
2.56811
2.56283
2.55279
2.54632
2.53535
2.52889
2.51896
2.51275
2.50055
2.49097
2.47624
2.46625
2.45278
2.44382
2.42938
2.41831
2.40254
2.39189
2.37782
2.36885
2.35582
2.3463
2.33265
2.3223
2.30899
2.29942
2.28697
2.27796
2.26525
2.256
2.24291
2.23373
2.22105
2.21223
2.2001
2.19122
2.17952
2.17009
2.15892
2.14881
2.13825
2.12774
2.11817
2.10764
2.09917
2.08877
2.08143
2.07116
2.06487
2.05471
2.04908
2.03916
2.03363
2.02431
2.01824
2.00987
2.00315
1.99622
1.9891
1.9839
1.9775
1.97634
2.0879
2.01976
1.95865
1.894
1.83969
1.78856
1.7386
1.70052
1.65883
1.63077
1.60723
1.6095
1.62297
1.66627
1.78114
1.98665
2.23376
2.27827
2.29273
2.32992
2.36464
2.38319
2.41914
2.46406
2.49671
2.55536
2.60883
2.63689
2.63001
2.59761
2.55062
2.51594
2.48794
2.47049
2.45938
2.46131
2.46631
2.46948
2.47086
2.46863
2.46311
2.45786
2.44848
2.44152
2.43061
2.4245
2.41515
2.40891
2.39709
2.38811
2.37514
2.367
2.35505
2.34665
2.33389
2.32428
2.31102
2.30137
2.28878
2.27964
2.26739
2.25763
2.24475
2.23398
2.22113
2.21052
2.19865
2.18854
2.17715
2.16695
2.1556
2.14555
2.1349
2.12586
2.11632
2.10819
2.09935
2.09149
2.08273
2.0745
2.06577
2.05707
2.04871
2.03967
2.0319
2.02275
2.01559
2.00677
2.00006
1.99192
1.9852
1.97782
1.97051
1.96388
1.9558
1.95011
1.94166
1.93744
1.93016
1.92992
2.10449
2.0396
1.98264
1.92862
1.87071
1.82322
1.77555
1.73018
1.69535
1.65482
1.63002
1.60561
1.6075
1.62077
1.66185
1.78263
1.97087
2.16865
2.21827
2.2387
2.27051
2.29161
2.31334
2.35739
2.39594
2.45093
2.51933
2.54909
2.54031
2.50765
2.46838
2.42856
2.39716
2.37902
2.36887
2.36388
2.37416
2.38697
2.39907
2.40302
2.40266
2.39982
2.39396
2.38992
2.38378
2.38085
2.37525
2.37141
2.36291
2.35585
2.34359
2.33574
2.32436
2.31717
2.30589
2.29773
2.28552
2.27596
2.26339
2.25362
2.24185
2.23255
2.22092
2.21077
2.19789
2.18658
2.17338
2.16255
2.15044
2.14041
2.12868
2.11808
2.1057
2.09415
2.08192
2.07063
2.05962
2.04922
2.03943
2.02967
2.02049
2.01102
2.00209
1.99291
1.98431
1.97566
1.96747
1.95953
1.95153
1.94445
1.93632
1.93023
1.92181
1.91673
1.90815
1.90388
1.8955
1.89202
1.88495
1.88499
2.11891
2.0585
2.00098
1.94668
1.8983
1.84567
1.80346
1.76017
1.71894
1.68767
1.64922
1.62747
1.60474
1.60677
1.6195
1.65753
1.78036
1.93784
2.11683
2.17641
2.19144
2.22104
2.24634
2.28715
2.34274
2.4097
2.48827
2.51119
2.49612
2.46109
2.42129
2.376
2.33671
2.31426
2.29848
2.29044
2.29306
2.30433
2.32001
2.33211
2.33884
2.33848
2.33706
2.33336
2.32864
2.32594
2.32072
2.31761
2.31071
2.30563
2.29544
2.28891
2.27889
2.27286
2.26266
2.25568
2.24433
2.23607
2.2243
2.21564
2.20431
2.19542
2.1845
2.17518
2.16443
2.15426
2.14315
2.13179
2.12049
2.10875
2.09822
2.08708
2.07758
2.06703
2.05773
2.04708
2.03727
2.0264
2.0163
2.00592
1.99631
1.98719
1.97847
1.97058
1.96231
1.95492
1.94648
1.9391
1.93038
1.92326
1.91458
1.9082
1.89974
1.89423
1.88587
1.88103
1.87274
1.86862
1.86142
1.86051
2.13872
2.08397
2.02705
1.97239
1.91914
1.8731
1.82309
1.78401
1.74283
1.70498
1.67519
1.63954
1.61902
1.59887
1.60135
1.61371
1.6507
1.76448
1.90283
2.08264
2.12809
2.14947
2.19057
2.23788
2.31692
2.41134
2.48732
2.49189
2.47065
2.43293
2.38623
2.33118
2.29249
2.26228
2.24546
2.23629
2.23371
2.23822
2.25086
2.26884
2.28012
2.2888
2.28973
2.29265
2.29085
2.28914
2.28529
2.28291
2.27774
2.27376
2.26532
2.25935
2.24939
2.24326
2.23334
2.22706
2.21742
2.21094
2.20133
2.19393
2.18391
2.17536
2.16499
2.15534
2.14481
2.13416
2.12385
2.11256
2.10272
2.09109
2.08166
2.06992
2.06071
2.04903
2.04001
2.02884
2.02019
2.00981
2.00127
1.9913
1.98229
1.97236
1.96284
1.95331
1.94389
1.93541
1.92651
1.91928
1.91074
1.90439
1.89586
1.88996
1.88126
1.8757
1.86691
1.86184
1.85322
1.84906
1.84168
1.84087
2.14555
2.10037
2.0536
2.00141
1.9514
1.90133
1.85638
1.81045
1.77105
1.73297
1.69626
1.66743
1.63461
1.61403
1.59756
1.6001
1.61248
1.64792
1.75559
1.87935
2.04908
2.09565
2.14129
2.20786
2.31697
2.43392
2.48028
2.47495
2.44701
2.41068
2.35814
2.30994
2.26915
2.23812
2.21472
2.20321
2.19765
2.19806
2.20087
2.20942
2.22325
2.23269
2.24168
2.24529
2.24829
2.2465
2.24235
2.2396
2.23458
2.23128
2.22444
2.21902
2.20976
2.20353
2.19444
2.18822
2.17931
2.17279
2.16392
2.15687
2.14801
2.14033
2.13158
2.1231
2.11445
2.10495
2.09636
2.08591
2.07744
2.06637
2.058
2.04654
2.03808
2.02649
2.01784
2.00655
1.99793
1.98743
1.97914
1.96964
1.96164
1.95295
1.94477
1.93653
1.92764
1.91966
1.91001
1.90243
1.89251
1.88561
1.87595
1.86985
1.86072
1.85532
1.84669
1.84197
1.83371
1.82991
1.82278
1.8222
2.14295
2.10272
2.06251
2.0196
1.97425
1.92908
1.88538
1.84237
1.80281
1.76303
1.72976
1.69361
1.66628
1.63643
1.61571
1.60282
1.60559
1.61882
1.65408
1.75516
1.87972
2.03204
2.12111
2.20489
2.34556
2.46831
2.47935
2.46747
2.43474
2.39118
2.34312
2.30081
2.26177
2.22925
2.20177
2.18319
2.17147
2.1645
2.16315
2.15903
2.16255
2.17115
2.18018
2.19014
2.19454
2.19643
2.19491
2.19212
2.18754
2.18509
2.18016
2.17653
2.16925
2.16353
2.15533
2.14903
2.1406
2.13392
2.12565
2.11875
2.11078
2.10354
2.09586
2.08798
2.08026
2.07145
2.06357
2.054
2.0462
2.03626
2.02855
2.01842
2.01067
2.00047
1.99257
1.98235
1.97417
1.96403
1.95552
1.94575
1.93695
1.928
1.91905
1.9112
1.90214
1.89533
1.88613
1.88009
1.87076
1.86517
1.85587
1.85052
1.84133
1.83626
1.82721
1.82253
1.81389
1.80981
1.80252
1.8014
2.14315
2.1078
2.06689
2.02862
1.98666
1.9466
1.9047
1.86672
1.82654
1.79209
1.75524
1.72431
1.69256
1.66481
1.64055
1.61825
1.61337
1.6171
1.63172
1.66923
1.78059
1.88984
2.09664
2.26594
2.42084
2.49268
2.49146
2.47707
2.43906
2.3864
2.34301
2.30231
2.26277
2.2253
2.19613
2.1701
2.15118
2.13426
2.12408
2.11507
2.11173
2.11154
2.11682
2.1263
2.13377
2.14003
2.14192
2.14247
2.13967
2.1372
2.1337
2.131
2.12552
2.1205
2.11325
2.10742
2.09971
2.0932
2.08553
2.0789
2.07166
2.06477
2.05764
2.05018
2.04282
2.03467
2.02708
2.01857
2.01095
2.00231
1.99463
1.98597
1.97814
1.96954
1.96157
1.95312
1.945
1.93677
1.9284
1.9205
1.91178
1.90425
1.89512
1.88791
1.87842
1.87162
1.86195
1.85577
1.84622
1.84068
1.83147
1.8264
1.81746
1.81274
1.80397
1.79954
1.79116
1.78716
1.78004
1.77879
2.14299
2.10789
2.07371
2.03445
1.9964
1.95789
1.91898
1.88297
1.84541
1.81238
1.7773
1.74813
1.7151
1.6911
1.66149
1.6427
1.62548
1.62657
1.63427
1.65624
1.71185
1.8109
2.0744
2.23312
2.50061
2.53339
2.52588
2.48459
2.42022
2.37683
2.34369
2.30172
2.25345
2.21408
2.18134
2.15461
2.12572
2.10433
2.08447
2.07585
2.06702
2.06465
2.06037
2.06459
2.07278
2.08192
2.09038
2.09553
2.09823
2.09764
2.09532
2.09359
2.08986
2.08602
2.07902
2.07311
2.06612
2.06004
2.05326
2.04721
2.04072
2.03445
2.02769
2.02092
2.01378
2.00676
1.99929
1.99213
1.98404
1.97661
1.96774
1.96005
1.95065
1.94294
1.93353
1.92603
1.91681
1.90961
1.90057
1.89375
1.8849
1.87849
1.86976
1.86369
1.85489
1.8491
1.84016
1.83469
1.82573
1.82053
1.81172
1.80667
1.79809
1.79311
1.78484
1.77994
1.77211
1.76759
1.76084
1.75898
2.13958
2.10778
2.07588
2.04189
2.00453
1.96786
1.93171
1.89446
1.86153
1.82648
1.79513
1.76558
1.73396
1.71044
1.68156
1.66304
1.644
1.64461
1.65105
1.66864
1.70939
1.79858
1.9873
2.1966
2.46835
2.4945
2.46797
2.44127
2.38898
2.33977
2.29936
2.26033
2.22038
2.18494
2.15535
2.12673
2.10104
2.0783
2.06107
2.04546
2.03735
2.0278
2.02445
2.02148
2.02379
2.03028
2.04081
2.0508
2.05831
2.06198
2.06365
2.06229
2.06034
2.0577
2.05329
2.04749
2.04118
2.03466
2.02774
2.02087
2.01377
2.00708
1.9999
1.99333
1.98597
1.9797
1.97209
1.96604
1.95802
1.95206
1.94372
1.93777
1.92924
1.92324
1.91453
1.90841
1.89943
1.89316
1.88399
1.87771
1.86859
1.86249
1.85353
1.84766
1.83875
1.83311
1.82421
1.81877
1.80999
1.80468
1.79618
1.7909
1.78277
1.77745
1.76967
1.76432
1.75689
1.75178
1.74528
1.74266
2.13116
2.10426
2.07578
2.04357
2.01363
1.97559
1.94572
1.90752
1.87613
1.84336
1.81043
1.78356
1.75119
1.72861
1.70134
1.68242
1.67038
1.67197
1.6811
1.70159
1.75304
1.83987
1.9749
2.12834
2.2604
2.39207
2.40969
2.39612
2.37517
2.3271
2.28739
2.25026
2.2125
2.17757
2.14899
2.12034
2.09433
2.07042
2.0502
2.03113
2.01735
2.00505
1.99882
1.99326
1.99135
1.99198
1.99718
2.00484
2.01463
2.02219
2.02678
2.02937
2.02884
2.02728
2.02514
2.02209
2.01765
2.01218
2.00632
2.00063
1.99464
1.98932
1.98325
1.97801
1.97156
1.96606
1.95889
1.95308
1.94516
1.93922
1.93075
1.92482
1.91608
1.91013
1.90123
1.89519
1.88619
1.88017
1.87113
1.86524
1.85616
1.85043
1.84137
1.83581
1.82687
1.82143
1.81267
1.80728
1.79871
1.79331
1.78493
1.77945
1.77138
1.76578
1.7581
1.75238
1.74513
1.73954
1.73321
1.72992
2.12442
2.09769
2.07275
2.04322
2.01525
1.98248
1.95181
1.92051
1.88763
1.85817
1.82701