/*--------------------------------*- C++ -*----------------------------------*\
| =========                 |                                                 |
| \\      /  F ield         | OpenFOAM: The Open Source CFD Toolbox           |
|  \\    /   O peration     | Version:  2112                                  |
|   \\  /    A nd           | Website:  www.openfoam.com                      |
|    \\/     M anipulation  |                                                 |
\*---------------------------------------------------------------------------*/
FoamFile
{
    version     2.0;
    format      ascii;
    arch        "LSB;label=32;scalar=64";
    class       volVectorField;
    location    "3.4995";
    object      U;
}
// * * * * * * * * * * * * * * * * * * * * * * * * * * * * * * * * * * * * * //

dimensions      [0 1 -1 0 0 0 0];

internalField   nonuniform List<vector> 
7000
(
(3 -5.80967e-07 0.000805021)
(3 -1.36338e-06 0.000764326)
(3 -1.91896e-06 0.000723861)
(3 -2.17016e-06 0.000683627)
(3 -1.89232e-06 0.000643625)
(3 -1.59015e-06 0.000603867)
(3 -1.29904e-06 0.000564355)
(3 -1.09847e-06 0.000525162)
(2.99999 -6.84502e-07 0.000486168)
(2.99998 -8.93175e-07 0.000447749)
(2.99994 -2.13362e-06 0.000410128)
(2.99981 -4.67268e-06 0.000374832)
(2.99956 -9.26075e-06 0.000341164)
(2.99885 -2.24192e-05 0.000320033)
(2.99764 -6.03315e-05 0.000302248)
(2.99357 -0.000153824 0.000375219)
(2.98875 -0.000542007 0.000384138)
(2.95328 -0.00284258 0.00153361)
(2.90084 2.61029e-05 0.00217589)
(2.69967 -0.00984305 0.00828686)
(2.05725 -0.0108466 0.0166163)
(1.09202 -0.0104897 0.0233053)
(0.442679 -0.0229475 0.00797226)
(0.616694 -0.0117451 -0.00250789)
(0.740875 -0.00571717 -0.00209075)
(0.759238 -0.00453794 -0.000727958)
(0.733118 -0.0046401 -0.000226706)
(0.693823 -0.00438843 -0.000178944)
(0.659591 -0.00368807 -0.000373159)
(0.635268 -0.00266843 -0.00062802)
(0.613865 -0.00168821 -0.000799355)
(0.591186 -0.000846703 -0.000924974)
(0.566855 -8.61445e-05 -0.00104955)
(0.541708 0.000655692 -0.00118375)
(0.516245 0.00140021 -0.00132447)
(0.490546 0.00214309 -0.00146678)
(0.464606 0.00288985 -0.00161035)
(0.438355 0.00362661 -0.00175613)
(0.411823 0.00437015 -0.00190306)
(0.384944 0.00511867 -0.00205464)
(0.357672 0.00590107 -0.00220699)
(0.32994 0.00675697 -0.00236289)
(0.301569 0.0077433 -0.00251863)
(0.272364 0.00897283 -0.00267493)
(0.241792 0.01054 -0.00283388)
(0.209353 0.0126225 -0.00299197)
(0.174144 0.0153989 -0.0031563)
(0.135237 0.0192172 -0.00332218)
(0.0877623 0.0253456 -0.0034862)
(0.0459867 0.037577 -0.00367192)
(3 -6.00499e-07 0.000777211)
(3 -1.39667e-06 0.00073787)
(3 -1.91644e-06 0.000698757)
(3 -2.10881e-06 0.000659871)
(3 -1.70901e-06 0.000621219)
(3 -1.29577e-06 0.000582808)
(3 -9.14981e-07 0.000544638)
(3 -6.6206e-07 0.000506779)
(2.99999 9.37847e-08 0.000469122)
(2.99998 -2.49826e-07 0.000432027)
(2.99994 -1.41876e-06 0.000395675)
(2.99981 -2.27733e-06 0.000361586)
(2.99957 -1.79451e-06 0.000329023)
(2.99886 -1.0432e-06 0.000308923)
(2.99768 -1.50459e-05 0.000291298)
(2.9935 -2.6197e-05 0.000366609)
(2.98818 -0.000473274 0.000390183)
(2.95538 -0.00280759 0.00138593)
(2.90237 0.00226603 0.00208466)
(2.70938 -0.00549767 0.0076106)
(2.10495 -7.98223e-05 0.0153591)
(1.1328 0.0205198 0.0232442)
(0.459886 0.00632593 0.00799878)
(0.623877 0.021103 -0.00232275)
(0.744921 0.0273025 -0.00198934)
(0.763196 0.0267881 -0.000701776)
(0.738133 0.0252487 -0.000229054)
(0.699785 0.0245114 -0.000179791)
(0.665821 0.0249389 -0.000358733)
(0.641326 0.0258807 -0.000600719)
(0.619584 0.0266902 -0.000765023)
(0.596511 0.0272977 -0.000886265)
(0.571687 0.027827 -0.00100634)
(0.545879 0.0283919 -0.00113504)
(0.519548 0.0289873 -0.00127003)
(0.492781 0.0296084 -0.00140606)
(0.465565 0.030251 -0.00154404)
(0.437832 0.0309015 -0.00168383)
(0.409605 0.0315878 -0.00182584)
(0.380818 0.032316 -0.0019717)
(0.351441 0.033134 -0.0021188)
(0.321423 0.0341195 -0.00226904)
(0.290655 0.0353617 -0.0024192)
(0.259037 0.0370354 -0.00257078)
(0.226201 0.0392905 -0.00272328)
(0.191858 0.0424279 -0.00287581)
(0.155318 0.04677 -0.00303188)
(0.1163 0.0527363 -0.00318693)
(0.0702644 0.0616977 -0.00333945)
(0.0340945 0.0764807 -0.00349876)
(3 -2.8729e-08 0.000748287)
(3 -8.7147e-08 0.00071036)
(3 -1.16721e-07 0.000672657)
(3 -1.68292e-07 0.000635179)
(3 -1.00838e-07 0.000597931)
(3 -2.91449e-08 0.000560922)
(3 2.72776e-08 0.00052415)
(3 -6.3837e-08 0.000487679)
(2.99999 9.13991e-07 0.000451415)
(2.99998 5.15233e-07 0.000415696)
(2.99994 -3.26113e-07 0.000380669)
(2.99981 -1.51698e-06 0.000347817)
(2.99958 2.48141e-06 0.000316385)
(2.99888 7.15649e-06 0.000297009)
(2.99774 4.76988e-05 0.000279233)
(2.99352 0.000108482 0.000353951)
(2.98808 0.000241034 0.000377585)
(2.95647 5.83446e-05 0.00130229)
(2.90468 0.000423972 0.00194288)
(2.71278 0.00163214 0.00729375)
(2.12467 -0.0148326 0.0145029)
(1.14719 -0.00591649 0.0229437)
(0.444104 -0.0181815 0.00782992)
(0.612254 0.00633353 -0.00225185)
(0.732309 0.0184584 -0.00187624)
(0.74942 0.0206677 -0.00065793)
(0.723978 0.0210716 -0.000223058)
(0.685436 0.0215016 -0.000180761)
(0.651298 0.0236965 -0.000351602)
(0.626427 0.0266454 -0.00057883)
(0.60436 0.0293728 -0.000734933)
(0.581166 0.0317688 -0.000852416)
(0.556429 0.0340087 -0.000968297)
(0.530845 0.0362588 -0.00109226)
(0.50481 0.0385199 -0.00122112)
(0.478383 0.0407965 -0.00135138)
(0.451492 0.0430889 -0.00148309)
(0.424033 0.0453779 -0.00161695)
(0.395982 0.0477143 -0.00175234)
(0.367234 0.0500878 -0.00189179)
(0.337761 0.052586 -0.00203132)
(0.307498 0.0553021 -0.00217452)
(0.276373 0.0583804 -0.00231687)
(0.244338 0.0620574 -0.00246141)
(0.211165 0.0665438 -0.00260692)
(0.176792 0.0722435 -0.00275229)
(0.140679 0.0795607 -0.00290095)
(0.103227 0.0889416 -0.0030453)
(0.0602766 0.101492 -0.00318773)
(0.0274848 0.119522 -0.00333553)
(3 9.91238e-09 0.000718202)
(3 4.0637e-08 0.00068175)
(3 1.07271e-07 0.000645518)
(3 1.06038e-07 0.000609508)
(3 1.37436e-07 0.000573724)
(3 1.60236e-07 0.000538174)
(3 1.60186e-07 0.000502858)
(3 -2.53265e-08 0.000467827)
(2.99999 1.58767e-06 0.000433014)
(2.99998 1.35443e-06 0.000398728)
(2.99994 4.0617e-07 0.000365084)
(2.99982 -3.39092e-06 0.000333464)
(2.99959 2.7789e-07 0.000303162)
(2.99892 -4.94978e-06 0.00028387)
(2.99785 5.7213e-05 0.000265448)
(2.99382 0.000128509 0.000332787)
(2.98903 0.000538045 0.00033783)
(2.95735 0.00096109 0.00125256)
(2.90969 0.00101296 0.0017341)
(2.71894 0.0034927 0.00701428)
(2.14283 -0.0108467 0.0136215)
(1.16908 -0.00332082 0.0224719)
(0.437246 0.00132523 0.00769888)
(0.602832 0.0303379 -0.00208877)
(0.71928 0.0426635 -0.00172021)
(0.734994 0.0440824 -0.000598031)
(0.70971 0.0438961 -0.000210615)
(0.671698 0.0439172 -0.000177893)
(0.638111 0.0459115 -0.000342753)
(0.613157 0.0486844 -0.000553442)
(0.590757 0.051238 -0.000700623)
(0.567293 0.0535016 -0.000814083)
(0.542405 0.055695 -0.000925991)
(0.516736 0.0579851 -0.00104487)
(0.490646 0.0603993 -0.00116785)
(0.464204 0.0629301 -0.00129194)
(0.437317 0.06559 -0.00141816)
(0.40989 0.0683485 -0.00154543)
(0.381877 0.0712627 -0.00167551)
(0.353163 0.0743227 -0.00180757)
(0.323733 0.0776192 -0.00194118)
(0.293505 0.081261 -0.00207679)
(0.262456 0.0853949 -0.00221251)
(0.230564 0.0903171 -0.00234979)
(0.197701 0.0962829 -0.00248771)
(0.163988 0.103711 -0.00262572)
(0.129015 0.113004 -0.00276619)
(0.093643 0.12453 -0.00290192)
(0.0540758 0.139026 -0.00303298)
(0.0236913 0.15839 -0.00316633)
(3 4.87842e-08 0.000686908)
(3 1.64398e-07 0.000651993)
(3 4.76252e-07 0.000617296)
(3 6.57795e-07 0.000582816)
(3 8.4298e-07 0.000548558)
(3 1.00411e-06 0.000514529)
(3 1.19232e-06 0.00048073)
(3 1.19467e-06 0.000447196)
(2.99999 5.22514e-06 0.000413897)
(2.99998 2.08514e-06 0.00038111)
(2.99994 2.10923e-07 0.000348932)
(2.99982 -3.96506e-05 0.000318609)
(2.99959 -3.91847e-05 0.000289626)
(2.99895 -0.000278436 0.000270598)
(2.99792 -0.000214679 0.000251934)
(2.994 -0.00195974 0.000314545)
(2.98944 0.00035134 0.000314758)
(2.95865 0.00382953 0.00116789)
(2.91265 0.00296064 0.00160353)
(2.72418 0.00782874 0.00663413)
(2.15836 -0.0102208 0.0127786)
(1.19075 -0.0139828 0.0216999)
(0.442682 0.000959963 0.0074776)
(0.599972 0.0321305 -0.00189755)
(0.710993 0.0452324 -0.00156327)
(0.724863 0.0479732 -0.000542783)
(0.699762 0.0493771 -0.000202704)
(0.662372 0.0513619 -0.000178155)
(0.62927 0.0550606 -0.00033472)
(0.604131 0.0592675 -0.000529466)
(0.581316 0.0631826 -0.000667587)
(0.557513 0.0667738 -0.000776872)
(0.532391 0.0702615 -0.000883968)
(0.506534 0.0737913 -0.000997449)
(0.480259 0.0774202 -0.00111408)
(0.453638 0.0811526 -0.00123207)
(0.426569 0.0850084 -0.00135212)
(0.398969 0.0889831 -0.001473)
(0.3708 0.093118 -0.00159672)
(0.341944 0.0974346 -0.00172205)
(0.31242 0.102013 -0.00184815)
(0.282134 0.106978 -0.00197692)
(0.251123 0.112487 -0.00210419)
(0.219397 0.118794 -0.00223536)
(0.186918 0.126206 -0.00236387)
(0.153904 0.135111 -0.00249377)
(0.120021 0.145894 -0.00262467)
(0.0864334 0.158865 -0.00275138)
(0.0495777 0.174455 -0.00287794)
(0.0210653 0.194074 -0.00300269)
(3 4.65439e-08 0.00065435)
(3 1.84788e-07 0.000621041)
(3 5.38722e-07 0.000587944)
(3 8.20901e-07 0.00055506)
(3 1.12981e-06 0.000522392)
(3 1.43722e-06 0.000489948)
(3 1.81922e-06 0.000457729)
(3 2.19109e-06 0.000425735)
(2.99999 5.60141e-06 0.000394067)
(2.99998 2.24412e-06 0.000362832)
(2.99992 -8.95118e-08 0.000332583)
(2.9998 -3.65134e-05 0.000303205)
(2.99947 -3.78323e-05 0.000278585)
(2.99886 -0.000251778 0.000256632)
(2.99694 -0.00019945 0.00026573)
(2.99438 -0.00173779 0.000259521)
(2.9935 0.00100995 0.000193631)
(2.9606 0.00473017 0.00116319)
(2.91845 0.00415939 0.00141756)
(2.72991 0.00952271 0.00642817)
(2.16139 -0.00748084 0.0121165)
(1.20738 -0.0104235 0.0206611)
(0.444662 0.0158482 0.00720578)
(0.591537 0.0485853 -0.00166189)
(0.697365 0.0593658 -0.00139461)
(0.710399 0.0621465 -0.000490343)
(0.686341 0.064261 -0.000195817)
(0.650145 0.0676421 -0.000176106)
(0.617824 0.0719957 -0.000321839)
(0.59293 0.0764633 -0.000501616)
(0.570251 0.0806971 -0.000632537)
(0.546665 0.0847455 -0.000736566)
(0.521826 0.0887837 -0.000839307)
(0.496257 0.0929374 -0.000946362)
(0.47024 0.0972582 -0.00105736)
(0.44383 0.101774 -0.00116868)
(0.416919 0.10648 -0.00128292)
(0.38943 0.1114 -0.00139729)
(0.361324 0.116553 -0.00151455)
(0.332507 0.121968 -0.0016333)
(0.30303 0.127717 -0.00175261)
(0.272828 0.133881 -0.00187478)
(0.241961 0.140647 -0.00199474)
(0.21049 0.148197 -0.00211764)
(0.178451 0.156799 -0.00223975)
(0.146138 0.166844 -0.00236015)
(0.113265 0.178646 -0.00248304)
(0.0812199 0.192482 -0.00259927)
(0.0465181 0.208645 -0.00271521)
(0.0192804 0.228155 -0.00283008)
(3 2.89213e-08 0.000620474)
(3 2.18105e-07 0.00058884)
(3 5.48957e-07 0.000557414)
(3 9.5519e-07 0.000526194)
(3 1.36382e-06 0.000495185)
(3 1.77059e-06 0.000464393)
(3 2.20037e-06 0.000433819)
(3 2.69251e-06 0.000403463)
(2.99999 3.22874e-06 0.000373429)
(2.99998 2.74879e-06 0.000343802)
(2.99992 1.88062e-06 0.000315081)
(2.99981 4.52946e-06 0.000287162)
(2.99949 1.06753e-05 0.000263514)
(2.99891 4.84778e-05 0.000242127)
(2.99714 0.000120863 0.000247831)
(2.99486 0.000431843 0.000237079)
(2.99432 0.00087939 0.000174232)
(2.96228 1.39617e-05 0.00107661)
(2.92224 0.00261621 0.00128443)
(2.73686 0.0030421 0.00601136)
(2.18022 -0.00248527 0.0112657)
(1.23801 -0.000698923 0.0196587)
(0.467524 0.0300729 0.00694741)
(0.594723 0.0638902 -0.00139745)
(0.692027 0.0689652 -0.00123145)
(0.704188 0.0720592 -0.00045864)
(0.680733 0.0755922 -0.000197096)
(0.644759 0.0813325 -0.000175251)
(0.611758 0.0868179 -0.000304846)
(0.586109 0.0919263 -0.0004737)
(0.562897 0.0968752 -0.000598278)
(0.538973 0.10178 -0.000697222)
(0.513945 0.106731 -0.000793834)
(0.488284 0.111831 -0.000895095)
(0.462249 0.117125 -0.000999057)
(0.43586 0.122659 -0.00110455)
(0.408995 0.128425 -0.00121143)
(0.38157 0.134448 -0.00131993)
(0.353536 0.140758 -0.00142981)
(0.324816 0.147361 -0.00154137)
(0.29545 0.154344 -0.00165322)
(0.265416 0.161733 -0.00176694)
(0.234788 0.169699 -0.00188065)
(0.203626 0.178418 -0.00199409)
(0.172051 0.188095 -0.00210816)
(0.140349 0.199062 -0.00222269)
(0.108284 0.211611 -0.00233397)
(0.0773598 0.225974 -0.00244402)
(0.044258 0.242391 -0.00255432)
(0.017974 0.261607 -0.00266259)
(3 1.92061e-08 0.000585223)
(3 2.12339e-07 0.000555338)
(3 5.28359e-07 0.000525655)
(3 9.42039e-07 0.000496172)
(3 1.34999e-06 0.000466892)
(3 1.73842e-06 0.000437823)
(3 2.10425e-06 0.000408964)
(3 2.45925e-06 0.000380315)
(2.99999 2.71146e-06 0.000351976)
(2.99998 2.6781e-06 0.000324016)
(2.99993 3.68246e-06 0.000296876)
(2.99982 1.17515e-05 0.000270448)
(2.99952 2.74698e-05 0.000247857)
(2.99898 8.74473e-05 0.000227088)
(2.99728 0.000187751 0.000231978)
(2.99493 0.00053296 0.000224967)
(2.99407 0.000902423 0.000161244)
(2.96351 -0.000245836 0.000973524)
(2.92727 0.00335137 0.00112964)
(2.74514 0.0041193 0.00558046)
(2.20111 0.00117064 0.0104052)
(1.26947 0.00760155 0.0186065)
(0.487624 0.0459261 0.00667704)
(0.592798 0.0824267 -0.00110463)
(0.680643 0.0814521 -0.00105547)
(0.696263 0.0845758 -0.000458111)
(0.675182 0.0892579 -0.000206609)
(0.639984 0.0970564 -0.000173485)
(0.606083 0.103429 -0.000281562)
(0.579892 0.109 -0.000443318)
(0.556528 0.1145 -0.000563216)
(0.532548 0.120096 -0.000656655)
(0.507489 0.125824 -0.000746759)
(0.481822 0.131765 -0.00084173)
(0.45581 0.137965 -0.00093908)
(0.429459 0.14447 -0.00103806)
(0.402637 0.151272 -0.00113832)
(0.375281 0.158384 -0.00123961)
(0.347321 0.165837 -0.00134301)
(0.318721 0.173632 -0.00144643)
(0.28951 0.181833 -0.00155169)
(0.259684 0.190471 -0.00165659)
(0.22936 0.199634 -0.00176334)
(0.198561 0.209441 -0.00187081)
(0.167455 0.220084 -0.0019742)
(0.13631 0.231836 -0.00208019)
(0.10489 0.244926 -0.00218512)
(0.0748425 0.259612 -0.00228279)
(0.0428793 0.276124 -0.00238564)
(0.0171321 0.29496 -0.00248413)
(3 7.79536e-09 0.000548536)
(3 2.05209e-07 0.000520477)
(3 4.94436e-07 0.000492613)
(3 9.11793e-07 0.000464942)
(3 1.29196e-06 0.000437468)
(3 1.63723e-06 0.000410194)
(3 1.92483e-06 0.000383124)
(3 2.14811e-06 0.000356254)
(3 2.17617e-06 0.000329678)
(2.99998 2.53815e-06 0.000303445)
(2.99993 5.07564e-06 0.000277934)
(2.99983 1.79148e-05 0.000253047)
(2.99956 4.10994e-05 0.000231513)
(2.99907 0.000125611 0.00021139)
(2.99754 0.000266664 0.00021236)
(2.99543 0.00075623 0.000204785)
(2.99467 0.00167788 0.000157592)
(2.9656 0.00157826 0.000864326)
(2.93215 0.00518166 0.000982842)
(2.75398 0.00586434 0.00514215)
(2.22873 0.00499585 0.00946625)
(1.31358 0.0163519 0.0174551)
(0.52105 0.0640358 0.00640427)
(0.59582 0.0993768 -0.000781708)
(0.670942 0.0967677 -0.000877437)
(0.691235 0.0999743 -0.00047143)
(0.672973 0.105094 -0.00022176)
(0.638233 0.113703 -0.000171987)
(0.602597 0.120588 -0.000255053)
(0.575504 0.126657 -0.000411713)
(0.551891 0.132775 -0.000527677)
(0.52782 0.1391 -0.000615006)
(0.502704 0.145642 -0.000698849)
(0.477024 0.152461 -0.000786961)
(0.451039 0.159606 -0.000877841)
(0.424734 0.167112 -0.000969801)
(0.39796 0.174979 -0.00106309)
(0.370678 0.183208 -0.00115682)
(0.342819 0.191822 -0.0012531)
(0.31436 0.200825 -0.00134901)
(0.285354 0.210232 -0.00144618)
(0.255772 0.22008 -0.00154347)
(0.225722 0.230434 -0.00163977)
(0.195243 0.241346 -0.00173923)
(0.164508 0.252928 -0.00183804)
(0.133791 0.265381 -0.00193398)
(0.102825 0.278949 -0.00202879)
(0.0732668 0.293849 -0.00212277)
(0.0420321 0.310354 -0.00221711)
(0.0165618 0.328775 -0.00231072)
(3 -1.9276e-09 0.000510349)
(3 1.96365e-07 0.000484198)
(3 4.48286e-07 0.000458233)
(3 8.73444e-07 0.000432454)
(3 1.19434e-06 0.000406862)
(3 1.46955e-06 0.000381463)
(3 1.66914e-06 0.000356256)
(3 1.77485e-06 0.000331241)
(3 1.59368e-06 0.000306498)
(2.99998 2.39623e-06 0.000282064)
(2.99994 5.86218e-06 0.000258246)
(2.99985 2.11979e-05 0.000234997)
(2.99961 4.98182e-05 0.000214452)
(2.99918 0.000147345 0.000195045)
(2.99781 0.00032799 0.000194063)
(2.99598 0.000862374 0.00018278)
(2.9955 0.00191109 0.000130243)
(2.96772 0.00197671 0.000777825)
(2.93729 0.00615003 0.000854853)
(2.76394 0.0077917 0.00465762)
(2.26031 0.00876046 0.00850919)
(1.36617 0.024857 0.0162294)
(0.560095 0.0848665 0.00613197)
(0.601167 0.111842 -0.000455889)
(0.663647 0.113995 -0.000717608)
(0.687977 0.118576 -0.000473384)
(0.672542 0.123895 -0.000230722)
(0.638462 0.131853 -0.000169213)
(0.601261 0.138813 -0.000230214)
(0.573269 0.145375 -0.000379875)
(0.54936 0.152094 -0.000490731)
(0.525153 0.159091 -0.000572033)
(0.49994 0.166398 -0.000649291)
(0.474213 0.174066 -0.000731041)
(0.448232 0.182142 -0.000814914)
(0.421962 0.19065 -0.000900222)
(0.395241 0.19959 -0.000986057)
(0.368029 0.208965 -0.0010724)
(0.340272 0.218771 -0.00116034)
(0.311935 0.229013 -0.00124887)
(0.283085 0.239673 -0.00133778)
(0.253732 0.250738 -0.00142809)
(0.223947 0.262235 -0.00151761)
(0.193757 0.274214 -0.00160572)
(0.163284 0.286753 -0.00169505)
(0.132788 0.299946 -0.00178523)
(0.102093 0.313935 -0.00187159)
(0.0727903 0.32903 -0.00195332)
(0.0418621 0.345504 -0.00204168)
(0.0163299 0.363505 -0.00212459)
(3 -1.09623e-08 0.000470595)
(3 1.84451e-07 0.000446438)
(3 3.99369e-07 0.000422457)
(3 8.31511e-07 0.000398652)
(3 1.07665e-06 0.000375026)
(3 1.26135e-06 0.00035158)
(3 1.34709e-06 0.000328318)
(3 1.2907e-06 0.000305237)
(3 8.61972e-07 0.000282403)
(2.99998 1.37504e-06 0.000259842)
(2.99995 4.3233e-06 0.000237802)
(2.99987 1.68156e-05 0.000216233)
(2.99966 4.20819e-05 0.000196884)
(2.99931 0.000123378 0.000177992)
(2.99813 0.000224433 0.00017425)
(2.99663 0.00069886 0.000161753)
(2.99632 0.0015447 0.000122339)
(2.97042 0.00105215 0.000667892)
(2.9435 0.00628643 0.000708331)
(2.77473 0.00887629 0.00420991)
(2.29522 0.01306 0.00752616)
(1.42739 0.0333985 0.0149285)
(0.598692 0.108061 0.00588817)
(0.603206 0.124863 -0.0001421)
(0.660377 0.131831 -0.000621391)
(0.685786 0.138092 -0.000443872)
(0.672074 0.143744 -0.00022408)
(0.638931 0.150798 -0.000162454)
(0.601182 0.157794 -0.000209705)
(0.572725 0.164922 -0.000347953)
(0.548661 0.172309 -0.000451457)
(0.524429 0.18001 -0.000526671)
(0.499222 0.188104 -0.000597978)
(0.473522 0.19664 -0.000673166)
(0.447596 0.205658 -0.000750582)
(0.421396 0.215175 -0.000828691)
(0.394761 0.225185 -0.000907281)
(0.367645 0.235696 -0.000985787)
(0.340007 0.246697 -0.00106518)
(0.311817 0.258179 -0.0011451)
(0.283099 0.270125 -0.0012253)
(0.253872 0.282487 -0.00130577)
(0.224215 0.295234 -0.00138797)
(0.19416 0.308338 -0.00147044)
(0.163833 0.32183 -0.00154974)
(0.133357 0.335829 -0.00162982)
(0.10259 0.350369 -0.00170873)
(0.0731708 0.365703 -0.00178708)
(0.042182 0.382187 -0.00186519)
(0.0162935 0.399798 -0.00194399)
(3 -5.06661e-09 0.000429205)
(3 1.59351e-07 0.000407131)
(3 3.73257e-07 0.000385222)
(3 7.4106e-07 0.00036348)
(3 1.0541e-06 0.000341904)
(3 1.18445e-06 0.000320498)
(3 1.21967e-06 0.000299264)
(3 1.11624e-06 0.0002782)
(3 6.51978e-07 0.000257359)
(2.99999 1.01823e-06 0.00023676)
(2.99995 3.46427e-06 0.000216612)
(2.99988 1.42957e-05 0.000196862)
(2.9997 3.59689e-05 0.000178928)
(2.99936 0.000106357 0.000162274)
(2.99831 0.000164268 0.000156319)
(2.99701 0.000559315 0.00014256)
(2.99656 0.00134454 0.000101519)
(2.97296 0.00099062 0.000567734)
(2.95052 0.00674409 0.000575535)
(2.78745 0.00992104 0.0037193)
(2.33386 0.0178449 0.00655363)
(1.49951 0.0429902 0.0134571)
(0.645782 0.133631 0.00565913)
(0.606801 0.144989 0.000171319)
(0.660037 0.151883 -0.000543275)
(0.685624 0.158517 -0.000407357)
(0.672727 0.164224 -0.000210196)
(0.640398 0.170745 -0.00015355)
(0.60269 0.177819 -0.000192034)
(0.574061 0.185435 -0.000316423)
(0.549939 0.193442 -0.000410868)
(0.525772 0.20184 -0.000479653)
(0.50068 0.210729 -0.000544721)
(0.475104 0.220157 -0.000613245)
(0.449308 0.230151 -0.000683593)
(0.423229 0.240714 -0.000754693)
(0.396721 0.251838 -0.000825739)
(0.369733 0.263524 -0.000896907)
(0.34222 0.275763 -0.000968266)
(0.314173 0.288523 -0.00103965)
(0.285594 0.301777 -0.00111199)
(0.256477 0.31546 -0.00118348)
(0.226876 0.329522 -0.00125517)
(0.196787 0.343916 -0.00132803)
(0.166345 0.358558 -0.00140155)
(0.1357 0.373451 -0.00147343)
(0.104649 0.388623 -0.00154182)
(0.0747639 0.404332 -0.0016088)
(0.043236 0.420924 -0.00168197)
(0.0165978 0.438213 -0.00174934)
(3 1.19642e-09 0.000386103)
(3 1.36034e-07 0.000366207)
(3 3.43144e-07 0.000346464)
(3 6.50302e-07 0.000326875)
(3 1.00988e-06 0.000307442)
(3 1.24365e-06 0.000288164)
(3 1.36427e-06 0.000269045)
(3 1.42203e-06 0.000250083)
(3 8.9512e-07 0.000231319)
(2.99999 2.34049e-06 0.000212768)
(2.99996 2.74858e-06 0.000194585)
(2.9999 2.14327e-05 0.000176749)
(2.99974 3.09427e-05 0.000160268)
(2.99945 0.000138799 0.000144828)
(2.99854 0.000207741 0.000137941)
(2.9976 0.000720495 0.000121502)
(2.99744 0.000980098 9.01381e-05)
(2.97621 -2.72334e-05 0.000462374)
(2.95766 0.0050479 0.00044341)
(2.80102 0.0026826 0.00323649)
(2.37891 0.018062 0.00556569)
(1.58605 0.0484312 0.0118848)
(0.702448 0.157859 0.00541374)
(0.611019 0.16641 0.000484761)
(0.66072 0.172493 -0.00046862)
(0.68691 0.179081 -0.000371131)
(0.674695 0.184755 -0.000193809)
(0.643258 0.191102 -0.000143599)
(0.605945 0.19859 -0.00017518)
(0.577325 0.206767 -0.000284631)
(0.553227 0.215391 -0.000369374)
(0.529221 0.224492 -0.000431481)
(0.504371 0.234182 -0.00049026)
(0.479051 0.244517 -0.000551534)
(0.453505 0.255508 -0.000614472)
(0.427661 0.267161 -0.000677695)
(0.401377 0.279462 -0.000740893)
(0.374604 0.292407 -0.000803959)
(0.347277 0.305978 -0.000867395)
(0.319378 0.32014 -0.00093013)
(0.290904 0.334841 -0.000993584)
(0.261817 0.35 -0.00105732)
(0.232187 0.365496 -0.00112074)
(0.201985 0.38128 -0.00118412)
(0.171223 0.39727 -0.00124662)
(0.140007 0.413372 -0.00131044)
(0.108251 0.429476 -0.0013733)
(0.077514 0.445743 -0.0014345)
(0.0449976 0.462615 -0.00149678)
(0.0171378 0.479684 -0.00156024)
(3 5.62345e-10 0.000341213)
(3 1.20369e-07 0.000323594)
(3 2.98806e-07 0.000306115)
(3 5.76566e-07 0.000288776)
(3 8.60659e-07 0.000271579)
(3 1.18206e-06 0.000254523)
(3 1.4687e-06 0.000237611)
(3 1.76462e-06 0.000220844)
(3 1.16969e-06 0.000204241)
(2.99999 1.6472e-06 0.000187853)
(2.99997 -1.33004e-07 0.000171665)
(2.99991 1.13255e-05 0.000155992)
(2.9998 7.76202e-06 0.000140877)
(2.99953 8.32405e-05 0.000127134)
(2.99882 6.67597e-05 0.000118758)
(2.99765 0.000448482 0.000109433)
(2.99663 -6.89467e-05 0.000107127)
(2.97756 -0.00212448 0.000362174)
(2.95916 0.00221996 0.000407532)
(2.80923 -0.001365 0.00267768)
(2.42999 0.0198582 0.00449373)
(1.67932 0.0590105 0.0103071)
(0.75379 0.188384 0.00515591)
(0.600776 0.191881 0.000775762)
(0.650438 0.196044 -0.000395333)
(0.680132 0.201598 -0.00033265)
(0.67058 0.206578 -0.000175646)
(0.641936 0.212534 -0.000134204)
(0.606658 0.2204 -0.00015954)
(0.579126 0.229004 -0.000252077)
(0.555968 0.238123 -0.000326807)
(0.532905 0.247878 -0.000382264)
(0.508942 0.258369 -0.000434259)
(0.484402 0.269635 -0.000488285)
(0.459533 0.281665 -0.000543339)
(0.43428 0.294465 -0.000598775)
(0.408517 0.308019 -0.000653731)
(0.382197 0.322322 -0.000708665)
(0.355259 0.337344 -0.000763758)
(0.327668 0.353037 -0.000818574)
(0.299403 0.369347 -0.000872857)
(0.270374 0.386204 -0.0009273)
(0.240611 0.403445 -0.000981553)
(0.210134 0.420949 -0.00103684)
(0.178933 0.438563 -0.00109168)
(0.147014 0.456168 -0.00114525)
(0.114198 0.473579 -0.00119702)
(0.082026 0.490821 -0.00124903)
(0.0478693 0.508242 -0.00130552)
(0.0181764 0.525269 -0.00135745)
(3 2.3095e-09 0.000294452)
(3 1.01428e-07 0.000279216)
(3 2.59467e-07 0.000264104)
(3 4.91754e-07 0.000249117)
(3 7.44953e-07 0.000234255)
(3 1.04153e-06 0.000219519)
(3 1.38831e-06 0.000204909)
(3 1.75733e-06 0.000190433)
(3 1.43293e-06 0.000176099)
(2.99999 7.44627e-07 0.000161951)
(2.99997 8.95611e-07 0.00014797)
(2.99991 2.24844e-06 0.000134455)
(2.99981 1.06969e-05 0.00012121)
(2.99952 3.84801e-05 0.000109922)
(2.9989 5.00144e-05 0.000101416)
(2.99755 0.000368291 9.72955e-05)
(2.99595 -1.86763e-05 9.21548e-05)
(2.97952 -0.00116897 0.000284451)
(2.96464 0.00343455 0.000265262)
(2.82529 0.00424324 0.00211037)
(2.49147 0.0260041 0.00355383)
(1.79093 0.0718085 0.00853402)
(0.81088 0.225599 0.00488649)
(0.580958 0.215688 0.00103447)
(0.632096 0.214894 -0.000329975)
(0.666538 0.218734 -0.000294776)
(0.660356 0.22444 -0.00015741)
(0.635409 0.231391 -0.000124839)
(0.603035 0.240633 -0.00014353)
(0.577329 0.250216 -0.000218616)
(0.556028 0.260168 -0.000283299)
(0.534899 0.270843 -0.000331927)
(0.512755 0.282372 -0.000376656)
(0.489837 0.29478 -0.000422714)
(0.466387 0.30805 -0.000469647)
(0.442376 0.322191 -0.000516706)
(0.417695 0.337193 -0.00056348)
(0.3923 0.353057 -0.000609992)
(0.366126 0.36976 -0.000656472)
(0.339147 0.387242 -0.000702987)
(0.311336 0.405432 -0.000749474)
(0.282574 0.424249 -0.000795222)
(0.252815 0.443566 -0.000840197)
(0.222032 0.463238 -0.000885006)
(0.190159 0.483052 -0.00093024)
(0.157184 0.502803 -0.000976641)
(0.122908 0.522128 -0.00102169)
(0.0887684 0.540901 -0.00106542)
(0.0521541 0.559404 -0.00111123)
(0.0197038 0.576706 -0.00115871)
(3 1.81464e-09 0.000245734)
(3 8.4114e-08 0.000232991)
(3 2.15686e-07 0.000220355)
(3 4.09635e-07 0.000207826)
(3 6.42824e-07 0.000195404)
(3 9.7417e-07 0.000183091)
(3 1.03241e-06 0.000170887)
(3 9.17281e-07 0.000158797)
(3 -1.89974e-07 0.000146827)
(2.99999 -2.03851e-06 0.000135006)
(2.99997 -5.6875e-06 0.000123325)
(2.99992 -1.19546e-05 0.000111984)
(2.99984 -2.6182e-05 0.00010083)
(2.99959 -5.64358e-05 9.12264e-05)
(2.99918 -0.000161997 8.21794e-05)
(2.99769 -0.000251569 8.2387e-05)
(2.99593 -0.00117179 7.43655e-05)
(2.9818 -0.00293502 0.000206349)
(2.96994 0.0126655 0.000175723)
(2.84241 -0.0191343 0.00162164)
(2.556 0.0886414 0.00264008)
(1.91776 0.0787292 0.00670666)
(0.882827 0.305284 0.00454658)
(0.555496 0.263094 0.00123863)
(0.611845 0.244232 -0.0002889)
(0.653761 0.237839 -0.000271642)
(0.651837 0.241969 -0.000147986)
(0.629657 0.248719 -0.000114934)
(0.599109 0.259198 -0.000125692)
(0.574205 0.269708 -0.000182948)
(0.554462 0.280525 -0.000238248)
(0.535463 0.292263 -0.000280051)
(0.515573 0.305066 -0.000317354)
(0.494843 0.318894 -0.000355268)
(0.473462 0.333705 -0.00039365)
(0.451377 0.349495 -0.000432374)
(0.42846 0.366263 -0.000470516)
(0.404648 0.384001 -0.000508759)
(0.379842 0.402711 -0.000546585)
(0.353991 0.422352 -0.000584007)
(0.327053 0.442867 -0.000621654)
(0.298904 0.464161 -0.000659196)
(0.269452 0.486121 -0.000696259)
(0.238585 0.508587 -0.00073261)
(0.206206 0.531317 -0.000768003)
(0.172143 0.554053 -0.000803456)
(0.135976 0.576378 -0.000838328)
(0.099062 0.597816 -0.000873852)
(0.0589072 0.618343 -0.000912131)
(0.0223322 0.636558 -0.000948502)
(3 2.61867e-09 0.000194968)
(3 6.59121e-08 0.000184835)
(3 1.73205e-07 0.000174789)
(3 3.26184e-07 0.00016483)
(3 5.04576e-07 0.00015496)
(3 7.36092e-07 0.000145179)
(3 8.20457e-07 0.000135486)
(3 5.45531e-07 0.000125889)
(2.99999 -4.40254e-07 0.000116389)
(2.99998 -1.83954e-06 0.00010702)
(2.99996 -4.56826e-06 9.77688e-05)
(2.9999 -9.16564e-06 8.88596e-05)
(2.99978 -2.08152e-05 8.01654e-05)
(2.99942 -4.84327e-05 7.32222e-05)
(2.99878 -0.000146357 6.68902e-05)
(2.99673 -0.000353964 7.0905e-05)
(2.99406 -0.00079512 6.87854e-05)
(2.99345 -0.00179344 4.96925e-05)
(2.95372 0.0101816 0.000400062)
(2.89743 -0.014625 0.000533188)
(2.66708 0.0759551 0.0022273)
(1.95176 0.0930169 0.00434074)
(1.08594 0.344915 0.00401371)
(0.607257 0.303823 0.00146242)
(0.647831 0.282029 -0.000239504)
(0.686774 0.262393 -0.000256423)
(0.682603 0.26312 -0.000147983)
(0.655463 0.268115 -0.000104229)
(0.619876 0.279009 -0.000106804)
(0.588921 0.289716 -0.000144579)
(0.565441 0.300693 -0.000190249)
(0.544799 0.312942 -0.000225098)
(0.524524 0.326694 -0.000254869)
(0.504218 0.341826 -0.000284547)
(0.483849 0.35822 -0.000314564)
(0.463196 0.375828 -0.000344667)
(0.441949 0.394624 -0.000374533)
(0.419913 0.414571 -0.000404099)
(0.396883 0.435674 -0.000433874)
(0.372688 0.457881 -0.000462922)
(0.347207 0.48123 -0.000491571)
(0.320262 0.505595 -0.00051991)
(0.29168 0.530898 -0.000547887)
(0.261191 0.557161 -0.000575352)
(0.22852 0.584055 -0.000602883)
(0.193507 0.611239 -0.000629879)
(0.15542 0.638195 -0.000656328)
(0.115063 0.664235 -0.000682024)
(0.0697404 0.688841 -0.000709979)
(0.0266351 0.709468 -0.000740251)
(3 3.90902e-09 0.000142059)
(3 4.79207e-08 0.000134658)
(3 1.34088e-07 0.000127322)
(3 2.4688e-07 0.000120053)
(3 3.75619e-07 0.00011285)
(3 4.8941e-07 0.000105713)
(3 7.52826e-07 9.86438e-05)
(3 7.92823e-07 9.16449e-05)
(2.99999 1.17611e-06 8.4717e-05)
(2.99999 2.40194e-06 7.78803e-05)
(2.99997 7.4896e-06 7.11268e-05)
(2.99992 1.72907e-05 6.45909e-05)
(2.99982 4.92709e-05 5.81855e-05)
(2.99952 0.000101592 5.29279e-05)
(2.999 0.000274815 4.7849e-05)
(2.99729 0.000530745 4.95486e-05)
(2.99474 0.00152395 4.92224e-05)
(2.99374 0.00299149 3.30768e-05)
(2.96233 0.00283175 0.000236243)
(2.92231 0.0181163 0.000291043)
(2.74468 0.0410709 0.00128415)
(2.19147 0.112381 0.00244346)
(1.30729 0.302203 0.00373633)
(0.688209 0.325185 0.00144113)
(0.703997 0.318465 -0.000136163)
(0.737876 0.301837 -0.000197477)
(0.740641 0.300148 -0.000144379)
(0.71163 0.301994 -8.98968e-05)
(0.670883 0.309845 -8.42121e-05)
(0.630708 0.318707 -0.000102647)
(0.599425 0.327893 -0.000137735)
(0.573145 0.338703 -0.000165354)
(0.548796 0.351652 -0.000187641)
(0.525672 0.36666 -0.000209203)
(0.503667 0.383564 -0.000230972)
(0.48246 0.402256 -0.000252743)
(0.461553 0.422659 -0.000274162)
(0.440528 0.44467 -0.000295364)
(0.418968 0.468307 -0.00031636)
(0.396569 0.49332 -0.000337429)
(0.372967 0.519851 -0.000358037)
(0.347774 0.548019 -0.000378012)
(0.320985 0.577652 -0.00039787)
(0.292016 0.608799 -0.000416839)
(0.260142 0.641307 -0.000434381)
(0.22495 0.67507 -0.000452222)
(0.185339 0.70954 -0.000469286)
(0.141291 0.743891 -0.000486557)
(0.0890525 0.777035 -0.000504944)
(0.0351975 0.804703 -0.000524083)
(3 7.56576e-09 8.6904e-05)
(3 3.25662e-08 8.23653e-05)
(3 1.00221e-07 7.78681e-05)
(3 1.6764e-07 7.34125e-05)
(3 2.85593e-07 6.89986e-05)
(3 3.66624e-07 6.46267e-05)
(3 5.10349e-07 6.02972e-05)
(3 7.45217e-07 5.60114e-05)
(3 1.99985e-06 5.1769e-05)
(2.99999 4.52977e-06 4.75791e-05)
(2.99998 1.39289e-05 4.34385e-05)