/*--------------------------------*- C++ -*----------------------------------*\
| =========                 |                                                 |
| \\      /  F ield         | OpenFOAM: The Open Source CFD Toolbox           |
|  \\    /   O peration     | Version:  2112                                  |
|   \\  /    A nd           | Website:  www.openfoam.com                      |
|    \\/     M anipulation  |                                                 |
\*---------------------------------------------------------------------------*/
FoamFile
{
    version     2.0;
    format      ascii;
    arch        "LSB;label=32;scalar=64";
    class       volScalarField;
    location    "32";
    object      p;
}
// * * * * * * * * * * * * * * * * * * * * * * * * * * * * * * * * * * * * * //

dimensions      [0 2 -2 0 0 0 0];

internalField   nonuniform List<scalar> 
400
(
6.117211e-08
-0.00067280717
-0.0013852843
-0.001942642
-0.0022199346
-0.002156431
-0.0017277263
-0.00092613542
0.00023548529
0.0017074694
0.0033873475
0.0051122524
0.0066735296
0.007849152
0.0084584414
0.0084237434
0.0078134662
0.0068445944
0.0058613798
0.0052990257
0.00065790741
-4.0458923e-05
-0.00056959286
-0.00094055865
-0.001110796
-0.0010398532
-0.00070572236
-9.5477697e-05
0.00078916539
0.0019162517
0.0032096496
0.0045547655
0.005782021
0.0067163147
0.0072144855
0.0072145939
0.006770021
0.0060528359
0.0053105989
0.0047385617
0.0014237653
0.00044071621
-0.00011653362
-0.00045317708
-0.00061474267
-0.00058474533
-0.00034651427
0.00011980823
0.00082852348
0.0017699712
0.0028943595
0.0040982368
0.005228312
0.0061110414
0.0065939318
0.0065977213
0.0061557886
0.0054215619
0.0045938062
0.0037483014
0.00201426
0.00068175031
1.6834598e-05
-0.00035878776
-0.00057148457
-0.0006264959
-0.00051001925
-0.00019056737
0.00036856477
0.0011844486
0.0022299793
0.0034174995
0.0045914402
0.0055570108
0.0061236163
0.0061666146
0.0056836684
0.0048171005
0.0037473516
0.0024736628
0.0021673307
0.00049617956
-0.00029619618
-0.00074864108
-0.0010581885
-0.0012452068
-0.0012926868
-0.0011512416
-0.00075499258
-5.3046754e-05
0.00095707729
0.0022103405
0.0035447743
0.0047327331
0.005521911
0.0057099437
0.0052293398
0.0042016589
0.0028062441
0.00098402354
0.0016540218
-0.00031441873
-0.0012387266
-0.0017992386
-0.0022525977
-0.0026278449
-0.002898559
-0.0029910245
-0.0028024848
-0.0022376315
-0.0012510543
0.00013093604
0.0017447024
0.0033271793
0.0045417163
0.0050658437
0.0047175519
0.0035662538
0.0017896516
-0.00072586209
0.00028708401
-0.0019195104
-0.0029729387
-0.0036713224
-0.0043202343
-0.0049531352
-0.005530054
-0.0059478908
-0.0060589476
-0.0057073317
-0.0047756718
-0.003258654
-0.0012664607
0.00090723833
0.002823194
0.0039868998
0.0040251508
0.002887762
0.00071543504
-0.0026804426
-0.002076371
-0.0044511321
-0.0056267444
-0.0064922644
-0.0073928622
-0.0083656998
-0.0093568496
-0.010231708
-0.010790903
-0.010804782
-0.010063309
-0.0084617158
-0.0060407232
-0.0030831676
-0.00012625111
0.0021126792
0.0029638803
0.002135634
-0.0003659798
-0.0048725546
-0.0055241086
-0.0079920551
-0.0092778608
-0.010333731
-0.011537945
-0.012935362
-0.014462641
-0.01595624
-0.017162388
-0.017765969
-0.017438028
-0.015919428
-0.013122915
-0.009251713
-0.0048989579
-0.0010299646
0.0012694608
0.0012778153
-0.0013339046
-0.0072016231
-0.010076853
-0.012565038
-0.013936605
-0.015183944
-0.016718328
-0.018602581
-0.020774151
-0.0230487
-0.025121614
-0.026586287
-0.026969298
-0.025812898
-0.022845633
-0.0180744
-0.012051041
-0.0059519027
-0.0013706891
0.00030064502
-0.0019471502
-0.0093821715
-0.015684926
-0.018132355
-0.019537497
-0.020926749
-0.022757687
-0.025129837
-0.027996979
-0.031166366
-0.034291414
-0.036876787
-0.03829412
-0.037844235
-0.035065812
-0.029601421
-0.021822446
-0.012985525
-0.0051849247
-0.00071569934
-0.0017641469
-0.010792202
-0.022243543
-0.024612977
-0.025945529
-0.027334899
-0.029324108
-0.032079179
-0.035588912
-0.039664632
-0.043927239
-0.047801249
-0.050530133
-0.051236434
-0.048956835
-0.043143502
-0.033768967
-0.021926292
-0.010036832
-0.0014153921
-9.8142325e-06
-0.010225566
-0.029641173
-0.031923837
-0.032978674
-0.034079808
-0.035939461
-0.038831457
-0.042795564
-0.047651559
-0.052990512
-0.058163551
-0.0622842
-0.064265485
-0.062875114
-0.057112142
-0.046476695
-0.031649038
-0.01503781
-0.00086433712
0.004646817
-0.0055214833
-0.037865975
-0.04004847
-0.040440065
-0.040752444
-0.042015001
-0.044653014
-0.048758133
-0.054144012
-0.060356
-0.066665315
-0.072060651
-0.075268241
-0.074811319
-0.069269222
-0.057628261
-0.03996146
-0.01824792
0.0027890915
0.014445212
0.0069076029
-0.047230559
-0.049134334
-0.048140531
-0.046882215
-0.046905438
-0.04879865
-0.052668247
-0.058275966
-0.065076055
-0.072231954
-0.078595729
-0.082712281
-0.082880168
-0.077309347
-0.064523893
-0.043934906
-0.016747937
0.012503002
0.03293884
0.03240901
-0.058896747
-0.059639857
-0.055883905
-0.051940993
-0.049972238
-0.05062982
-0.053928613
-0.059495308
-0.066611819
-0.074285251
-0.081191125
-0.085679363
-0.085831756
-0.079522151
-0.064876054
-0.040689219
-0.0072408686
0.032139427
0.064981507
0.077749239
-0.076226458
-0.07261367
-0.06351619
-0.055435367
-0.050724958
-0.049781527
-0.052312288
-0.057664326
-0.064891781
-0.072774929
-0.079779323
-0.084036705
-0.083391613
-0.075348919
-0.057602629
-0.028375092
0.01293338
0.065396532
0.11555157
0.15150628
-0.1080922
-0.089556244
-0.071233808
-0.057233013
-0.049072114
-0.046330173
-0.048077215
-0.053202562
-0.060434581
-0.068295824
-0.075027353
-0.078526873
-0.076388967
-0.065809634
-0.043865436
-0.0078184006
0.044393721
0.11299821
0.18838048
0.27186082
-0.17684556
-0.10828961
-0.076202389
-0.054651187
-0.042992346
-0.038997995
-0.040570471
-0.045928002
-0.053441497
-0.061438319
-0.068027547
-0.07096252
-0.067551094
-0.054739795
-0.029148771
0.013563648
0.078147008
0.17006441
0.28949552
0.47421827
-0.37208362
-0.12470852
-0.054973036
-0.031962466
-0.02206351
-0.020300481
-0.024359418
-0.031957962
-0.041261522
-0.050640849
-0.058316864
-0.062187427
-0.059782516
-0.048056771
-0.022658487
0.021474253
0.092818771
0.21015282
0.40288848
0.77640934
)
;

boundaryField
{
    movingWall
    {
        type            zeroGradient;
    }
    fixedWalls
    {
        type            zeroGradient;
    }
    frontAndBack
    {
        type            empty;
    }
}


// ************************************************************************* //
