/*--------------------------------*- C++ -*----------------------------------*\
| =========                 |                                                 |
| \\      /  F ield         | OpenFOAM: The Open Source CFD Toolbox           |
|  \\    /   O peration     | Version:  2112                                  |
|   \\  /    A nd           | Website:  www.openfoam.com                      |
|    \\/     M anipulation  |                                                 |
\*---------------------------------------------------------------------------*/
FoamFile
{
    version     2.0;
    format      ascii;
    arch        "LSB;label=32;scalar=64";
    class       surfaceScalarField;
    location    "32";
    object      phi;
}
// * * * * * * * * * * * * * * * * * * * * * * * * * * * * * * * * * * * * * //

dimensions      [0 3 -1 0 0 0 0];

oriented        oriented;

internalField   nonuniform List<scalar> 
760
(
1.2702822e-05
-1.270353e-05
-2.8723195e-05
4.1426018e-05
-0.00012229204
9.3568847e-05
-0.00025039693
0.00012810489
-0.00039607663
0.0001456797
-0.00054539376
0.00014931714
-0.00068627526
0.00014088149
-0.00080689669
0.00012062143
-0.00089495758
8.8060908e-05
-0.00093839582
4.3438247e-05
-0.00092727935
-1.111647e-05
-0.00085686591
-7.0413469e-05
-0.00073043208
-0.00012643388
-0.00056134336
-0.00016908875
-0.00037276105
-0.00018858235
-0.00019447419
-0.00017828689
-5.6521864e-05
-0.00013795229
1.9614548e-05
-7.6136349e-05
3.0411368e-05
-1.0796777e-05
3.0411378e-05
-4.3182938e-05
3.0479409e-05
-0.0002045667
0.00020280979
-0.00046832593
0.00035732807
-0.00080071022
0.00046048918
-0.0011673541
0.0005123236
-0.0015364542
0.00051841726
-0.0018782334
0.00048266064
-0.0021636886
0.00040607666
-0.002364551
0.00028892332
-0.0024553579
0.0001342451
-0.0024181504
-4.8323911e-05
-0.0022453651
-0.00024319883
-0.0019475619
-0.00042423718
-0.0015544728
-0.00056217781
-0.0011143234
-0.0006287318
-0.0006874756
-0.00060513457
-0.00033452577
-0.00049090208
-0.00010089667
-0.00030976546
-1.551887e-06
-0.00011014157
2.8859499e-05
-0.00011002752
0.00014050693
-0.00040303348
0.00049581575
-0.00083139247
0.00078568707
-0.0013456244
0.00097472114
-0.0018986087
0.0010653078
-0.0024465934
0.001066402
-0.002948047
0.00098411426
-0.0033626345
0.00082066419
-0.0036519069
0.00057819566
-0.0037823333
0.0002646716
-0.0037298377
-0.00010081946
-0.0034858238
-0.0004872127
-0.0030632827
-0.00084677821
-0.0024999988
-0.0011254617
-0.0018582374
-0.0012704932
-0.0012181456
-0.0012452264
-0.00066373721
-0.0010453106
-0.00026308979
-0.00071041296
-4.7956353e-05
-0.00032527503
-1.9096827e-05
-0.00017344053
0.00031394746
-0.00059329586
0.00091567108
-0.0011777025
0.0013700937
-0.0018583816
0.0016554002
-0.0025769245
0.0017838508
-0.0032813272
0.0017708047
-0.0039228152
0.0016256022
-0.0044541587
0.0013520078
-0.0048302818
0.00095431877
-0.0050112543
0.0004456441
-0.0049672708
-0.00014480292
-0.0046844454
-0.00077003799
-0.0041723582
-0.0013588653
-0.0034691327
-0.0018286872
-0.0026440131
-0.0020956128
-0.0017932029
-0.0020960367
-0.0010258515
-0.001812662
-0.0004402153
-0.0012960492
-9.6723932e-05
-0.00066876638
-0.00011582074
-0.00022979689
0.00054374436
-0.0007650793
0.0014509535
-0.0014914944
0.0020965088
-0.0023225613
0.0024864672
-0.003190159
0.0026514484
-0.0040368449
0.0026174906
-0.004810062
0.0023988193
-0.0054589916
0.0020009374
-0.0059342087
0.001429536
-0.006189839
0.00070127432
-0.0061884183
-0.00014622366
-0.0059055872
-0.0010528691
-0.0053404221
-0.0019240304
-0.0045231199
-0.0026459893
-0.0035229792
-0.0030957535
-0.0024498065
-0.0031692094
-0.0014425403
-0.0028199282
-0.00064123163
-0.0020973579
-0.00014883698
-0.001161161
-0.00026465772
-0.00027729941
0.00082104378
-0.00091155217
0.0020852062
-0.00176074
0.0029456966
-0.0027228232
0.0034485504
-0.0037222302
0.0036508555
-0.0046987174
0.0035939777
-0.0055989166
0.0032990185
-0.0063712181
0.0027732388
-0.0069637559
0.0020220738
-0.0073248632
0.0010623816
-0.0074074844
-6.3602511e-05
-0.0071717145
-0.0012886392
-0.0065989022
-0.0024968427
-0.0057016886
-0.0035432028
-0.0045400243
-0.0042574177
-0.0032318452
-0.0044773885
-0.0019490221
-0.0041027513
-0.00088728816
-0.0031590918
-0.00021159432
-0.0018368548
-0.00047625202
-0.00031411695
0.0011351607
-0.0010263421
0.0027974314
-0.0019735136
0.0038928681
-0.0030417626
0.0045167994
-0.0041507276
0.0047598205
-0.0052399568
0.004683207
-0.0062580878
0.0043171495
-0.0071555411
0.003670692
-0.0078803831
0.0027469157
-0.0083768576
0.0015588561
-0.0085854037
0.0001449436
-0.0084513325
-0.0014227105
-0.00792951
-0.0030186652
-0.0070049718
-0.0044677409
-0.0057150493
-0.0055473402
-0.0041735845
-0.0060188532
-0.0025818462
-0.0056944896
-0.0012041053
-0.0045368328
-0.00029450418
-0.002746456
-0.00077075619
-0.00033824891
0.0014734096
-0.0011031703
0.0035623529
-0.0021176362
0.0049073339
-0.0032598925
0.0056590557
-0.0044474105
0.0059473385
-0.0056219657
0.0058577621
-0.0067369526
0.0054321365
-0.0077479702
0.0046817098
-0.0086063774
0.0036053229
-0.0092552532
0.0022077319
-0.0096270165
0.00051670693
-0.0096492076
-0.0014005194
-0.0092489822
-0.0034188906
-0.0083739449
-0.0053427783
-0.0070220741
-0.0068992109
-0.0052818151
-0.0077591123
-0.0033676677
-0.0076086369
-0.0016173638
-0.0062871367
-0.00040826906
-0.0039555508
-0.0011790252
-0.00034815634
0.001821566
-0.0011372155
0.004351412
-0.0021827894
0.0059529078
-0.003358621
0.0068348874
-0.0045822439
0.0071709612
-0.0057998237
0.0070753418
-0.0069721961
0.006604509
-0.0080636692
0.005773183
-0.0090334426
0.0045750964
-0.0098289945
0.0030032838
-0.010381275
0.0010689876
-0.010604526
-0.0011772681
-0.010400779
-0.0036226386
-0.0096748965
-0.0060686603
-0.0083686761
-0.0082054314
-0.0065156867
-0.0096121017
-0.0043098857
-0.0098144379
-0.002148324
-0.0084486984
-0.00056492551
-0.0055389492
-0.0017439508
-0.00034393487
0.0021655008
-0.0011278599
0.005135337
-0.0021647104
0.0069897583
-0.0033259029
0.00799608
-0.0045308035
0.0083758619
-0.0057319455
0.0082764837
-0.0069002226
0.007772786
-0.0080123824
0.0068853429
-0.0090408267
0.0056035408
-0.0099449673
0.0039074244
-0.010663395
0.0017874153
-0.011106746
-0.00073391734
-0.011163421
-0.0035659639
-0.010697128
-0.0065349525
-0.0095825999
-0.0093199598
-0.007766778
-0.011427924
-0.005371502
-0.012209714
-0.0028071793
-0.011013021
-0.00077836917
-0.0075677593
-0.0025223199
-0.00032890791
0.0024944088
-0.0010824215
0.0058888506
-0.0020707773
0.007978114
-0.0031636132
0.0090889159
-0.0042839023
0.0094961511
-0.0053928538
0.0093854351
-0.0064741409
0.0088540729
-0.0075205485
0.0079317505
-0.0085229182
0.0066059107
-0.0094603447
0.004844851
-0.010291332
0.0026184025
-0.010933227
-9.2022388e-05
-0.011283212
-0.0032159788
-0.011173633
-0.0066445311
-0.010415714
-0.010077879
-0.0088467367
-0.012996901
-0.0064557545
-0.014600696
-0.0035815274
-0.013887248
-0.001064223
-0.010085064
-0.003586543
-0.00031178411
0.0028061929
-0.0010206788
0.0065977453
-0.0019260998
0.0088835351
-0.002894949
0.010057765
-0.0038568828
0.010458085
-0.0047855634
0.010314116
-0.0056807663
0.0097492757
-0.0065544557
0.0088054395
-0.0074198893
0.0074713442
-0.0082818247
0.0057067866
-0.009125155
0.003461733
-0.0099086391
0.00069146173
-0.010527256
-0.002597362
-0.010827013
-0.0063447738
-0.010573628
-0.010331265
-0.0094932086
-0.01407732
-0.0073911391
-0.016702766
-0.0044189149
-0.016859472
-0.0014372117
-0.013066767
-0.0050237547
-0.0003100427
0.0031162355
-0.00098036428
0.007268067
-0.0017790479
0.0096822189
-0.0025693649
0.010848082
-0.0032945947
0.011183315
-0.0039478955
0.010967417
-0.0045499688
0.010351349
-0.005134784
0.0093902547
-0.0057399186
0.0080764785
-0.0063985227
0.0063653907
-0.0071301252
0.0041933355
-0.0079302571
0.0014915937
-0.0087388039
-0.0017888152
-0.0094303572
-0.0056532205
-0.0097685798
-0.0099930419
-0.0094003428
-0.014445557
-0.0079305791
-0.018172529
-0.0052061613
-0.01958389
-0.0019026121
-0.016370316
-0.0069263668
-0.00035603992
0.0034722753
-0.0010239963
0.0079360233
-0.0017042286
0.010362451
-0.0022607961
0.01140465
-0.002665719
0.011588237
-0.0029440066
0.011245704
-0.0031442453
0.010551588
-0.0033248628
0.0095708723
-0.0035471882
0.0082988037
-0.003871041
0.0066892435
-0.0043491663
0.0046714607
-0.0050183759
0.0021608034
-0.0058766091
-0.00093058196
-0.006857832
-0.0046719975
-0.0077762858
-0.0090745882
-0.0082658335
-0.01395601
-0.007768739
-0.018669624
-0.005751099
-0.02160153
-0.0024366711
-0.019684744
-0.0093630379
-0.00050826054
0.0039805358
-0.0012456303
0.0086733927
-0.0017958818
0.010912703
-0.0020479958
0.011656764
-0.002032502
0.011572743
-0.0018254216
0.011038624
-0.0015121878
0.010238354
-0.0011778553
0.0092365401
-0.0009047088
0.0080256574
-0.00077371635
0.0065582511
-0.00086348688
0.0047612312
-0.0012473549
0.0025446714
-0.0019828295
-0.00019510736
-0.003081866
-0.003572961
-0.0044600297
-0.0076964245
-0.0058274853
-0.012588554
-0.0065661625
-0.017930947
-0.0057684462
-0.022399247
-0.0029512247
-0.022501965
-0.012314263
-0.00086855265
0.0048490887
-0.0017629814
0.0095678212
-0.0021213523
0.011271073
-0.0019368397
0.011472252
-0.0013509136
0.010986818
-0.00051618249
0.010203892
0.00043705247
0.009285119
0.0013996256
0.0082739667
0.0022723892
0.0071528939
0.0029609275
0.0058697129
0.0033691617
0.0043529969
0.0033968091
0.002517024
0.0029385537
0.00026314806
0.0019096174
-0.0025440247
0.00026968985
-0.006056497
-0.0018541597
-0.010464704
-0.0039515933
-0.015833513
-0.0048608329
-0.021490007
-0.003254703
-0.024108095
-0.015568966
-0.0015910836
0.0064401725
-0.0026108505
0.010587589
-0.0025131328
0.011173354
-0.0015899004
0.010549019
-0.00017216163
0.0095690794
0.0014928121
0.0085389193
0.00323291
0.0075450212
0.00492325
0.0065836266
0.0064630089
0.0056131349
0.0077575127
0.0045752091
0.0087075173
0.0034029923
0.0092015041
0.0020230372
0.0091033476
0.00036130459
0.0082750952
-0.0017157724
0.0065654639
-0.0043468657
0.0039042376
-0.0078034781
0.00055895595
-0.012488231
-0.0024680532
-0.018462998
-0.0030273163
-0.023548832
-0.018596282
-0.00271836
0.0091585322
-0.003149864
0.011019095
-0.0018029957
0.0098264852
0.00046670573
0.0082793166
0.0030894298
0.0069463548
0.0057738191
0.00585453
0.0083629073
0.0049559331
0.010760405
0.0041861286
0.012893501
0.0034800397
0.014690668
0.0027780414
0.016068352
0.0020253084
0.01692329
0.0011680996
0.017119717
0.00016487752
0.016490832
-0.0010868875
0.014816842
-0.0026728754
0.011846658
-0.0048332947
0.0074354934
-0.0080770663
0.0022629301
-0.013290435
-0.0012724661
-0.020013436
-0.019868748
-0.0024132805
0.011571812
2.8056744e-05
0.0085777593
0.004255139
0.0055994047
0.0084161236
0.0041183324
0.012231487
0.0031309918
0.015656266
0.0024297501
0.01868655
0.0019256491
0.021329194
0.001543485
0.023583494
0.0012257394
0.025429229
0.00093230679
0.026820171
0.00063436563
0.027677182
0.00031108901
0.027900205
-5.8145883e-05
0.027347226
-0.0005339076
0.025771632
-0.0010972823
0.022843047
-0.0019047096
0.01805477
-0.0032887893
0.011113587
-0.0063492511
0.0033886755
-0.012288525
-0.016480072
0.011571811
0.020149569
0.025748973
0.029867306
0.032998298
0.035428048
0.037353697
0.038897182
0.040122921
0.041055228
0.041689594
0.042000683
0.041942537
0.041408629
0.040311347
0.038406637
0.035117848
0.028768597
0.016480072
)
;

boundaryField
{
    movingWall
    {
        type            calculated;
        value           uniform 0;
    }
    fixedWalls
    {
        type            calculated;
        value           uniform 0;
    }
    frontAndBack
    {
        type            empty;
        value           nonuniform List<scalar> 0();
    }
}


// ************************************************************************* //
