/*--------------------------------*- C++ -*----------------------------------*\
| =========                 |                                                 |
| \\      /  F ield         | OpenFOAM: The Open Source CFD Toolbox           |
|  \\    /   O peration     | Version:  2112                                  |
|   \\  /    A nd           | Website:  www.openfoam.com                      |
|    \\/     M anipulation  |                                                 |
\*---------------------------------------------------------------------------*/
FoamFile
{
    version     2.0;
    format      ascii;
    arch        "LSB;label=32;scalar=64";
    class       surfaceScalarField;
    location    "32";
    object      phi_0;
}
// * * * * * * * * * * * * * * * * * * * * * * * * * * * * * * * * * * * * * //

dimensions      [0 3 -1 0 0 0 0];

oriented        oriented;

internalField   nonuniform List<scalar> 
760
(
1.2702821e-05
-1.2703531e-05
-2.8723196e-05
4.1426018e-05
-0.00012229204
9.3568846e-05
-0.00025039693
0.00012810489
-0.00039607662
0.0001456797
-0.00054539376
0.00014931714
-0.00068627526
0.0001408815
-0.00080689668
0.00012062142
-0.00089495758
8.8060898e-05
-0.00093839583
4.3438247e-05
-0.00092727938
-1.1116451e-05
-0.00085686595
-7.0413432e-05
-0.00073043209
-0.00012643384
-0.00056134336
-0.0001690887
-0.00037276101
-0.0001885823
-0.00019447413
-0.00017828685
-5.6521815e-05
-0.00013795231
1.9614575e-05
-7.6136404e-05
3.041138e-05
-1.0796824e-05
3.0411344e-05
-4.3182938e-05
3.0479408e-05
-0.00020456671
0.00020280979
-0.00046832593
0.00035732807
-0.00080071022
0.00046048918
-0.0011673541
0.00051232359
-0.0015364542
0.00051841725
-0.0018782334
0.00048266063
-0.0021636886
0.00040607665
-0.002364551
0.00028892332
-0.0024553579
0.00013424511
-0.0024181504
-4.8323863e-05
-0.0022453651
-0.00024319873
-0.0019475619
-0.00042423706
-0.0015544728
-0.00056217773
-0.0011143233
-0.00062873178
-0.00068747559
-0.00060513462
-0.00033452576
-0.00049090216
-0.00010089664
-0.00030976554
-1.5518732e-06
-0.00011014162
2.8859468e-05
-0.00011002752
0.00014050693
-0.00040303348
0.00049581575
-0.00083139248
0.00078568707
-0.0013456244
0.00097472114
-0.0018986087
0.0010653078
-0.0024465934
0.001066402
-0.002948047
0.00098411425
-0.0033626345
0.00082066419
-0.0036519068
0.00057819566
-0.0037823333
0.00026467158
-0.0037298377
-0.00010081947
-0.0034858238
-0.00048721269
-0.0030632827
-0.00084677819
-0.0024999988
-0.0011254616
-0.0018582375
-0.0012704931
-0.0012181457
-0.0012452264
-0.0006637372
-0.0010453106
-0.00026308972
-0.00071041296
-4.7956306e-05
-0.00032527503
-1.909684e-05
-0.00017344053
0.00031394746
-0.00059329586
0.00091567108
-0.0011777025
0.0013700937
-0.0018583816
0.0016554002
-0.0025769245
0.0017838508
-0.0032813272
0.0017708047
-0.0039228151
0.0016256022
-0.0044541587
0.0013520078
-0.0048302818
0.00095431874
-0.0050112543
0.00044564404
-0.0049672708
-0.00014480301
-0.0046844454
-0.00077003809
-0.0041723583
-0.0013588654
-0.0034691328
-0.0018286871
-0.0026440131
-0.0020956128
-0.0017932029
-0.0020960366
-0.0010258515
-0.001812662
-0.00044021523
-0.0012960492
-9.6723899e-05
-0.00066876636
-0.00011582075
-0.00022979689
0.00054374436
-0.00076507929
0.0014509535
-0.0014914944
0.0020965088
-0.0023225613
0.0024864672
-0.003190159
0.0026514484
-0.0040368449
0.0026174906
-0.004810062
0.0023988193
-0.0054589916
0.0020009374
-0.0059342088
0.0014295359
-0.006189839
0.00070127427
-0.0061884182
-0.00014622372
-0.0059055871
-0.0010528692
-0.0053404221
-0.0019240304
-0.0045231199
-0.0026459893
-0.0035229793
-0.0030957535
-0.0024498066
-0.0031692093
-0.0014425403
-0.0028199282
-0.00064123158
-0.0020973579
-0.00014883697
-0.001161161
-0.00026465772
-0.00027729942
0.00082104377
-0.00091155217
0.0020852062
-0.00176074
0.0029456966
-0.0027228232
0.0034485503
-0.0037222302
0.0036508555
-0.0046987174
0.0035939777
-0.0055989166
0.0032990185
-0.0063712181
0.0027732388
-0.0069637559
0.0020220738
-0.0073248632
0.0010623816
-0.0074074844
-6.3602491e-05
-0.0071717144
-0.0012886392
-0.0065989021
-0.0024968427
-0.0057016886
-0.0035432028
-0.0045400244
-0.0042574178
-0.0032318452
-0.0044773885
-0.0019490221
-0.0041027513
-0.00088728814
-0.0031590918
-0.00021159431
-0.0018368548
-0.00047625203
-0.00031411695
0.0011351607
-0.0010263421
0.0027974314
-0.0019735136
0.0038928681
-0.0030417626
0.0045167994
-0.0041507276
0.0047598205
-0.0052399568
0.0046832069
-0.0062580878
0.0043171495
-0.0071555411
0.0036706921
-0.0078803831
0.0027469158
-0.0083768576
0.0015588562
-0.0085854037
0.00014494366
-0.0084513324
-0.0014227105
-0.0079295099
-0.0030186652
-0.0070049718
-0.0044677409
-0.0057150493
-0.0055473403
-0.0041735845
-0.0060188532
-0.0025818463
-0.0056944896
-0.0012041053
-0.0045368328
-0.00029450416
-0.002746456
-0.00077075619
-0.0003382489
0.0014734096
-0.0011031703
0.0035623528
-0.0021176362
0.0049073339
-0.0032598925
0.0056590557
-0.0044474105
0.0059473384
-0.0056219656
0.0058577621
-0.0067369525
0.0054321364
-0.0077479703
0.0046817098
-0.0086063774
0.0036053229
-0.0092552533
0.002207732
-0.0096270166
0.00051670695
-0.0096492076
-0.0014005194
-0.0092489822
-0.0034188906
-0.0083739448
-0.0053427783
-0.0070220741
-0.006899211
-0.0052818151
-0.0077591123
-0.0033676677
-0.0076086369
-0.0016173638
-0.0062871367
-0.00040826906
-0.0039555508
-0.0011790253
-0.00034815634
0.001821566
-0.0011372155
0.004351412
-0.0021827894
0.0059529078
-0.0033586211
0.0068348874
-0.0045822439
0.0071709612
-0.0057998236
0.0070753417
-0.006972196
0.0066045089
-0.0080636692
0.0057731829
-0.0090334427
0.0045750964
-0.0098289945
0.0030032838
-0.010381275
0.0010689876
-0.010604526
-0.0011772681
-0.010400778
-0.0036226386
-0.0096748965
-0.0060686602
-0.0083686761
-0.0082054313
-0.0065156867
-0.0096121017
-0.0043098857
-0.0098144379
-0.002148324
-0.0084486984
-0.00056492551
-0.0055389492
-0.0017439508
-0.00034393489
0.0021655009
-0.0011278599
0.005135337
-0.0021647104
0.0069897583
-0.0033259029
0.00799608
-0.0045308036
0.0083758619
-0.0057319455
0.0082764837
-0.0069002225
0.0077727859
-0.0080123824
0.0068853428
-0.0090408268
0.0056035408
-0.0099449674
0.0039074244
-0.010663395
0.0017874153
-0.011106746
-0.00073391731
-0.011163421
-0.0035659639
-0.010697128
-0.0065349525
-0.0095825999
-0.0093199598
-0.007766778
-0.011427924
-0.005371502
-0.012209714
-0.0028071793
-0.011013021
-0.00077836917
-0.0075677593
-0.0025223199
-0.00032890793
0.0024944088
-0.0010824215
0.0058888506
-0.0020707773
0.0079781141
-0.0031636132
0.0090889159
-0.0042839023
0.0094961511
-0.0053928538
0.0093854352
-0.0064741408
0.0088540729
-0.0075205484
0.0079317504
-0.0085229181
0.0066059105
-0.0094603447
0.004844851
-0.010291332
0.0026184025
-0.010933227
-9.2022355e-05
-0.011283212
-0.0032159788
-0.011173633
-0.0066445311
-0.010415714
-0.010077879
-0.0088467367
-0.012996901
-0.0064557545
-0.014600696
-0.0035815274
-0.013887248
-0.001064223
-0.010085064
-0.003586543
-0.00031178409
0.0028061929
-0.0010206788
0.0065977453
-0.0019260999
0.0088835351
-0.002894949
0.010057765
-0.0038568828
0.010458085
-0.0047855635
0.010314116
-0.0056807664
0.0097492759
-0.0065544556
0.0088054396
-0.0074198891
0.0074713441
-0.0082818246
0.0057067865
-0.009125155
0.0034617329
-0.0099086391
0.00069146173
-0.010527256
-0.0025973619
-0.010827013
-0.0063447738
-0.010573628
-0.010331265
-0.0094932086
-0.01407732
-0.0073911391
-0.016702766
-0.0044189149
-0.016859472
-0.0014372117
-0.013066767
-0.0050237547
-0.00031004261
0.0031162355
-0.00098036418
0.0072680669
-0.001779048
0.0096822189
-0.002569365
0.010848082
-0.0032945946
0.011183315
-0.0039478955
0.010967417
-0.0045499689
0.010351349
-0.005134784
0.0093902548
-0.0057399185
0.0080764785
-0.0063985227
0.0063653907
-0.0071301252
0.0041933354
-0.0079302572
0.0014915937
-0.0087388039
-0.0017888152
-0.0094303572
-0.0056532205
-0.0097685798
-0.0099930419
-0.0094003428
-0.014445557
-0.0079305791
-0.018172529
-0.0052061613
-0.01958389
-0.0019026121
-0.016370316
-0.0069263668
-0.00035603984
0.0034722753
-0.0010239961
0.0079360232
-0.0017042286
0.010362451
-0.0022607963
0.01140465
-0.002665719
0.011588237
-0.0029440065
0.011245704
-0.0031442454
0.010551588
-0.0033248629
0.0095708724
-0.0035471882
0.0082988038
-0.003871041
0.0066892435
-0.0043491662
0.0046714607
-0.0050183759
0.0021608033
-0.0058766091
-0.00093058197
-0.006857832
-0.0046719975
-0.0077762858
-0.0090745882
-0.0082658335
-0.01395601
-0.007768739
-0.018669624
-0.005751099
-0.02160153
-0.0024366711
-0.019684744
-0.0093630379
-0.00050826059
0.003980536
-0.0012456301
0.0086733927
-0.0017958816
0.010912703
-0.002047996
0.011656764
-0.0020325021
0.011572743
-0.0018254216
0.011038624
-0.0015121877
0.010238354
-0.0011778553
0.00923654
-0.00090470883
0.0080256574
-0.00077371638
0.0065582511
-0.00086348689
0.0047612312
-0.0012473549
0.0025446714
-0.0019828295
-0.00019510735
-0.003081866
-0.003572961
-0.0044600297
-0.0076964245
-0.0058274853
-0.012588554
-0.0065661625
-0.017930947
-0.0057684462
-0.022399247
-0.0029512247
-0.022501965
-0.012314263
-0.0008685528
0.0048490888
-0.0017629816
0.0095678215
-0.0021213519
0.011271073
-0.0019368396
0.011472252
-0.0013509137
0.010986817
-0.00051618264
0.010203893
0.00043705247
0.0092851191
0.0013996257
0.0082739667
0.0022723892
0.0071528938
0.0029609274
0.0058697129
0.0033691617
0.0043529969
0.0033968091
0.002517024
0.0029385537
0.00026314808
0.0019096174
-0.0025440247
0.00026968985
-0.006056497
-0.0018541597
-0.010464704
-0.0039515933
-0.015833513
-0.0048608329
-0.021490007
-0.003254703
-0.024108095
-0.015568966
-0.0015910835
0.0064401724
-0.0026108512
0.010587589
-0.0025131327
0.011173354
-0.0015899
0.010549019
-0.00017216155
0.0095690791
0.001492812
0.0085389191
0.0032329099
0.0075450211
0.00492325
0.0065836267
0.0064630089
0.005613135
0.0077575127
0.004575209
0.0087075173
0.0034029923
0.0092015041
0.0020230372
0.0091033476
0.0003613046
0.0082750952
-0.0017157724
0.0065654639
-0.0043468657
0.0039042376
-0.0078034781
0.00055895595
-0.012488231
-0.0024680532
-0.018462998
-0.0030273163
-0.023548832
-0.018596282
-0.0027183594
0.0091585317
-0.0031498647
0.011019095
-0.0018029961
0.0098264859
0.00046670593
0.0082793172
0.00308943
0.006946355
0.0057738192
0.0058545299
0.0083629073
0.004955933
0.010760405
0.0041861286
0.012893501
0.0034800397
0.014690668
0.0027780414
0.016068352
0.0020253084
0.01692329
0.0011680996
0.017119717
0.00016487751
0.016490832
-0.0010868875
0.014816842
-0.0026728754
0.011846658
-0.0048332947
0.0074354934
-0.0080770663
0.0022629301
-0.013290435
-0.0012724661
-0.020013436
-0.019868748
-0.0024132795
0.011571811
2.8056926e-05
0.0085777583
0.0042551386
0.0055994042
0.0084161235
0.0041183324
0.012231487
0.0031309918
0.015656266
0.0024297502
0.01868655
0.0019256491
0.021329194
0.001543485
0.023583494
0.0012257394
0.025429229
0.00093230678
0.026820171
0.00063436562
0.027677182
0.00031108901
0.027900205
-5.8145889e-05
0.027347226
-0.00053390761
0.025771632
-0.0010972823
0.022843047
-0.0019047096
0.01805477
-0.0032887893
0.011113587
-0.0063492511
0.0033886755
-0.012288525
-0.016480072
0.011571811
0.020149569
0.025748973
0.029867306
0.032998298
0.035428048
0.037353697
0.038897182
0.040122921
0.041055228
0.041689594
0.042000683
0.041942537
0.041408629
0.040311347
0.038406637
0.035117848
0.028768597
0.016480072
)
;

boundaryField
{
    movingWall
    {
        type            calculated;
        value           uniform 0;
    }
    fixedWalls
    {
        type            calculated;
        value           uniform 0;
    }
    frontAndBack
    {
        type            empty;
        value           nonuniform List<scalar> 0();
    }
}


// ************************************************************************* //
