/*--------------------------------*- C++ -*----------------------------------*\
| =========                 |                                                 |
| \\      /  F ield         | OpenFOAM: The Open Source CFD Toolbox           |
|  \\    /   O peration     | Version:  2112                                  |
|   \\  /    A nd           | Website:  www.openfoam.com                      |
|    \\/     M anipulation  |                                                 |
\*---------------------------------------------------------------------------*/
FoamFile
{
    version     2.0;
    format      ascii;
    arch        "LSB;label=32;scalar=64";
    class       volVectorField;
    location    "32";
    object      U;
}
// * * * * * * * * * * * * * * * * * * * * * * * * * * * * * * * * * * * * * //

dimensions      [0 1 -1 0 0 0 0];

internalField   nonuniform List<vector> 
400
(
(0.00028444779 -0.0002813927 0)
(0.00011070071 7.9968754e-05 0)
(-0.0013271931 0.0004780351 0)
(-0.0036219066 0.00073593451 0)
(-0.0064236757 0.00086752603 0)
(-0.0094315221 0.00090727522 0)
(-0.012388066 0.00087487273 0)
(-0.015056528 0.00077153625 0)
(-0.017194649 0.00058849336 0)
(-0.018552959 0.00032008557 0)
(-0.018902724 -2.48134e-05 0)
(-0.018086234 -0.00041827064 0)
(-0.016079961 -0.00079972702 0)
(-0.013048985 -0.0010930877 0)
(-0.0093664125 -0.001221216 0)
(-0.0055776654 -0.0011294829 0)
(-0.0023003394 -0.00081287167 0)
(-8.295033e-05 -0.00033798228 0)
(0.00076015244 0.00015229496 0)
(0.0004094421 0.00038933899 0)
(-8.6059492e-05 -0.00012357974 0)
(-0.0018692605 0.0017872661 0)
(-0.0063065462 0.0036260803 0)
(-0.012452746 0.004862528 0)
(-0.019600761 0.0054985657 0)
(-0.027107121 0.0056207083 0)
(-0.034359116 0.0052860642 0)
(-0.040769145 0.0045044051 0)
(-0.045758469 0.0032662339 0)
(-0.048776213 0.001589654 0)
(-0.049366965 -0.00043548009 0)
(-0.047254132 -0.0026182121 0)
(-0.042452255 -0.004664574 0)
(-0.035361686 -0.0062189578 0)
(-0.02677874 -0.0069376279 0)
(-0.017827329 -0.006592301 0)
(-0.0097755601 -0.0051797993 0)
(-0.0037462992 -0.0029994427 0)
(-0.00038875099 -0.0006655355 0)
(0.00028989566 0.00078354981 0)
(-0.00058808011 0.0014336358 0)
(-0.004242821 0.0063775537 0)
(-0.011758631 0.010640661 0)
(-0.021468837 0.013483708 0)
(-0.032366425 0.014898411 0)
(-0.043588328 0.015017487 0)
(-0.054287804 0.013936246 0)
(-0.063643007 0.011684298 0)
(-0.070856337 0.0082813903 0)
(-0.075188879 0.0038286523 0)
(-0.076040056 -0.0014059369 0)
(-0.07305822 -0.0069357104 0)
(-0.066267045 -0.012071836 0)
(-0.056169636 -0.016000359 0)
(-0.043781004 -0.017942849 0)
(-0.0305693 -0.01738004 0)
(-0.018250708 -0.014290033 0)
(-0.0084179896 -0.0093123268 0)
(-0.0021511237 -0.0037618389 0)
(-1.9701331e-06 0.00031696946 0)
(-0.0010530689 0.0043004021 0)
(-0.0065148931 0.013565819 0)
(-0.016999229 0.020864227 0)
(-0.030031096 0.025561408 0)
(-0.044300893 0.02776163 0)
(-0.058784707 0.027688117 0)
(-0.072488035 0.025487764 0)
(-0.084447481 0.021218506 0)
(-0.093729532 0.014945159 0)
(-0.099464813 0.0068783793 0)
(-0.10093071 -0.0025013233 0)
(-0.097663335 -0.012378525 0)
(-0.089593472 -0.021605538 0)
(-0.077182519 -0.028824944 0)
(-0.061505292 -0.032706227 0)
(-0.044253768 -0.032300061 0)
(-0.027562286 -0.027445997 0)
(-0.013581785 -0.019080755 0)
(-0.0040263583 -0.0092707111 0)
(-0.00026772063 -0.0011081892 0)
(-0.0014558701 0.0083650637 0)
(-0.0085490974 0.023181334 0)
(-0.021746313 0.034051803 0)
(-0.037792612 0.040763242 0)
(-0.055097127 0.043701913 0)
(-0.072519854 0.043259171 0)
(-0.088984752 0.039661587 0)
(-0.10345882 0.033001433 0)
(-0.11493261 0.023384275 0)
(-0.12243729 0.011116751 0)
(-0.12511568 -0.0031289763 0)
(-0.12232021 -0.018219455 0)
(-0.1137618 -0.032541727 0)
(-0.099698473 -0.044132765 0)
(-0.081100662 -0.050966433 0)
(-0.059776439 -0.051441365 0)
(-0.038291249 -0.045013741 0)
(-0.019520485 -0.03275561 0)
(-0.0060923494 -0.017491876 0)
(-0.00051102281 -0.0035220291 0)
(-0.0017889395 0.013475493 0)
(-0.010269748 0.034960969 0)
(-0.025805587 0.04990879 0)
(-0.044466898 0.058794974 0)
(-0.064427909 0.062458545 0)
(-0.084477798 0.061551058 0)
(-0.10351686 0.05641617 0)
(-0.12050385 0.047182295 0)
(-0.13440431 0.033970395 0)
(-0.14417428 0.01713237 0)
(-0.14880381 -0.0025359554 0)
(-0.14739362 -0.023636503 0)
(-0.13931142 -0.044142763 0)
(-0.12443581 -0.061442314 0)
(-0.10343183 -0.07264252 0)
(-0.078056042 -0.07517411 0)
(-0.051261009 -0.067706906 0)
(-0.026809495 -0.051124278 0)
(-0.0086123141 -0.028965701 0)
(-0.00078707411 -0.0070521593 0)
(-0.0020420398 0.019436573 0)
(-0.011605679 0.048529051 0)
(-0.028995863 0.067998518 0)
(-0.049757841 0.079226222 0)
(-0.071891784 0.083657597 0)
(-0.09416227 0.08229791 0)
(-0.11550026 0.07564983 0)
(-0.13491525 0.063877001 0)
(-0.15140352 0.047076033 0)
(-0.163885 0.025567777 0)
(-0.17119262 0.00016299997 0)
(-0.17215479 -0.027610705 0)
(-0.16571589 -0.055396443 0)
(-0.15119218 -0.079945888 0)
(-0.12870076 -0.097351364 0)
(-0.09967014 -0.10369875 0)
(-0.067241925 -0.096286267 0)
(-0.036119172 -0.075220328 0)
(-0.011929748 -0.044539882 0)
(-0.0011708192 -0.012001498 0)
(-0.0022012916 0.026013426 0)
(-0.012484742 0.063419714 0)
(-0.031139972 0.087764637 0)
(-0.053354661 0.10149044 0)
(-0.07701785 0.1067773 0)
(-0.10091222 0.10507391 0)
(-0.12405025 0.097088307 0)
(-0.14555193 0.083021458 0)
(-0.16450979 0.062902234 0)
(-0.17987611 0.036930821 0)
(-0.19039939 0.0057954938 0)
(-0.19465583 -0.029033483 0)
(-0.19113645 -0.0650182 0)
(-0.1784899 -0.098391223 0)
(-0.15602504 -0.12417764 0)
(-0.12444502 -0.13676299 0)
(-0.086646705 -0.13132925 0)
(-0.048063803 -0.10623297 0)
(-0.016429383 -0.065393309 0)
(-0.0017537948 -0.018878436 0)
(-0.0022557107 0.032933308 0)
(-0.012853728 0.079088611 0)
(-0.032098961 0.10853517 0)
(-0.054981904 0.12486443 0)
(-0.07933495 0.13109304 0)
(-0.10399431 0.12919942 0)
(-0.12810044 0.12015144 0)
(-0.15094519 0.10420154 0)
(-0.17179741 0.081278376 0)
(-0.1897448 0.05137558 0)
(-0.20357632 0.014915381 0)
(-0.21172915 -0.026876168 0)
(-0.21232524 -0.071532435 0)
(-0.20333823 -0.11502619 0)
(-0.18306288 -0.15144723 0)
(-0.15101797 -0.17328523 0)
(-0.10916564 -0.17282203 0)
(-0.063026407 -0.14524396 0)
(-0.022524985 -0.092978142 0)
(-0.0026589643 -0.028422211 0)
(-0.0022086337 0.039904554 0)
(-0.012717085 0.094944321 0)
(-0.031841311 0.12954029 0)
(-0.054496843 0.14845865 0)
(-0.078500112 0.1556356 0)
(-0.10277104 0.15366653 0)
(-0.12662146 0.14384611 0)
(-0.14957662 0.12651342 0)
(-0.17117094 0.10149253 0)
(-0.19075577 0.068517122 0)
(-0.20732711 0.027627535 0)
(-0.21937773 -0.020394305 0)
(-0.2248878 -0.073462015 0)
(-0.22130659 -0.12768889 0)
(-0.2058548 -0.1766207 0)
(-0.17647628 -0.21099214 0)
(-0.13334658 -0.21961325 0)
(-0.080899183 -0.19275402 0)
(-0.030641904 -0.12885266 0)
(-0.0040700741 -0.041637061 0)
(-0.0020933489 0.04666332 0)
(-0.012189726 0.11041863 0)
(-0.030536214 0.1499659 0)
(-0.052017597 0.17124311 0)
(-0.07446501 0.17919262 0)
(-0.09691992 0.17712118 0)
(-0.11891406 0.16672985 0)
(-0.14026652 0.14850281 0)
(-0.16086208 0.12219249 0)
(-0.18044322 0.087272644 0)
(-0.19840292 0.043352577 0)
(-0.21353681 -0.0093897057 0)
(-0.2240146 -0.069676734 0)
(-0.22708288 -0.13413354 0)
(-0.21908959 -0.19645341 0)
(-0.19626649 -0.24625231 0)
(-0.15621929 -0.26886043 0)
(-0.10070625 -0.24798818 0)
(-0.041146021 -0.17433508 0)
(-0.0062706213 -0.059833957 0)
(-0.0019963289 0.053057498 0)
(-0.011565501 0.12508358 0)
(-0.028660952 0.16904527 0)
(-0.048056614 0.19210924 0)
(-0.067638436 0.20035677 0)
(-0.086643883 0.19791292 0)
(-0.10489589 0.18696731 0)
(-0.12256942 0.16821864 0)
(-0.13996398 0.14140913 0)
(-0.15729757 0.10579906 0)
(-0.17451557 0.06057179 0)
(-0.19108367 0.0052257137 0)
(-0.20560157 -0.059922487 0)
(-0.21550584 -0.13260798 0)
(-0.21690135 -0.20752799 0)
(-0.20457804 -0.27431826 0)
(-0.17317489 -0.31571793 0)
(-0.12017098 -0.30807992 0)
(-0.054147491 -0.22988383 0)
(-0.0096749056 -0.084653182 0)
(-0.0020996021 0.059184304 0)
(-0.011414858 0.13881594 0)
(-0.027115364 0.18617348 0)
(-0.043624829 0.20994722 0)
(-0.058981205 0.21760166 0)
(-0.072777794 0.21419786 0)
(-0.085249922 0.20247371 0)
(-0.097001114 0.18339421 0)
(-0.10878855 0.15675623 0)
(-0.12135025 0.12168631 0)
(-0.13525391 0.07701542 0)
(-0.15070271 0.02161819 0)
(-0.16712201 -0.0451108 0)
(-0.18273999 -0.12251614 0)
(-0.19405353 -0.20712625 0)
(-0.19523503 -0.29011484 0)
(-0.17829425 -0.3535852 0)
(-0.13540546 -0.3674382 0)
(-0.069089022 -0.29415303 0)
(-0.014795029 -0.1179845 0)
(-0.0027676955 0.065619983 0)
(-0.012740984 0.15199863 0)
(-0.02732995 0.20099737 0)
(-0.040244465 0.22368378 0)
(-0.049928495 0.22933098 0)
(-0.056643284 0.22403762 0)
(-0.0612324 0.21108068 0)
(-0.064815784 0.19168182 0)
(-0.068620456 0.16572046 0)
(-0.073874743 0.13227354 0)
(-0.081727938 0.089960251 0)
(-0.093119852 0.037200113 0)
(-0.10846905 -0.027479124 0)
(-0.12721363 -0.10497645 0)
(-0.14705409 -0.19422082 0)
(-0.16280337 -0.28948651 0)
(-0.16509069 -0.37509946 0)
(-0.14090146 -0.41772704 0)
(-0.084061562 -0.36281407 0)
(-0.022011634 -0.1615741 0)
(-0.004719581 0.07383478 0)
(-0.017222402 0.16572645 0)
(-0.031284272 0.21337843 0)
(-0.039683063 0.23217432 0)
(-0.041883261 0.23380258 0)
(-0.039350812 0.22539474 0)
(-0.033812235 0.21061261 0)
(-0.02700003 0.19081087 0)
(-0.020591665 0.16589803 0)
(-0.016215078 0.13493926 0)
(-0.01547603 0.096470887 0)
(-0.019925254 0.048689987 0)
(-0.030918353 -0.010412756 0)
(-0.049234037 -0.082920539 0)
(-0.074398903 -0.1701432 0)
(-0.1032765 -0.27050261 0)
(-0.12725447 -0.3736954 0)
(-0.12973493 -0.44868784 0)
(-0.094914797 -0.42750701 0)
(-0.030930662 -0.21612807 0)
(-0.0092999962 0.086952162 0)
(-0.027432062 0.18185345 0)
(-0.040981533 0.22303367 0)
(-0.042679247 0.23378976 0)
(-0.034405069 0.22880248 0)
(-0.019622168 0.21592316 0)
(-0.0012378868 0.19878019 0)
(0.018346128 0.17856486 0)
(0.037072126 0.15508364 0)
(0.053056334 0.12735939 0)
(0.064422202 0.093936246 0)
(0.069231523 0.053014502 0)
(0.065415583 0.0024625071 0)
(0.051047819 -0.060339448 0)
(0.024643269 -0.13837672 0)
(-0.01370175 -0.2341715 0)
(-0.058753687 -0.34517039 0)
(-0.093510869 -0.44954003 0)
(-0.094469896 -0.4755883 0)
(-0.039216114 -0.28048286 0)
(-0.018580314 0.11087148 0)
(-0.046039611 0.20177657 0)
(-0.055229915 0.22793174 0)
(-0.043984584 0.2250178 0)
(-0.019372068 0.21061312 0)
(0.012333937 0.19228021 0)
(0.046993739 0.17278511 0)
(0.081754875 0.15265409 0)
(0.11443862 0.13135289 0)
(0.14315392 0.10779554 0)
(0.16601744 0.080591564 0)
(0.18098169 0.048112069 0)
(0.18557649 0.0084491555 0)
(0.17716601 -0.04081765 0)
(0.15275968 -0.10317635 0)
(0.10948895 -0.18390634 0)
(0.04724063 -0.28855476 0)
(-0.021439222 -0.41051047 0)
(-0.072252925 -0.49101708 0)
(-0.041147482 -0.35054299 0)
(-0.033352251 0.15561543 0)
(-0.068601624 0.22040443 0)
(-0.055187245 0.21729227 0)
(-0.016078489 0.19532449 0)
(0.034511404 0.1709236 0)
(0.088508134 0.14849477 0)
(0.14176899 0.12861272 0)
(0.19196949 0.11057767 0)
(0.23754118 0.093297645 0)
(0.27712064 0.075575087 0)
(0.3092186 0.056181442 0)
(0.3320437 0.033823248 0)
(0.34317598 0.0070271773 0)
(0.3398291 -0.025910573 0)
(0.31813267 -0.067741856 0)
(0.27327736 -0.12410803 0)
(0.20044732 -0.20584717 0)
(0.10213984 -0.32506916 0)
(-0.012387253 -0.45457171 0)
(-0.023756651 -0.40864073 0)
(-0.033081129 0.23907317 0)
(-0.04264717 0.21792011 0)
(0.042207229 0.16426629 0)
(0.12760463 0.12783581 0)
(0.20769806 0.10143553 0)
(0.28028173 0.081658206 0)
(0.34487328 0.066648175 0)
(0.40158323 0.054703079 0)
(0.45055087 0.044399497 0)
(0.49162064 0.034639937 0)
(0.52416207 0.024550586 0)
(0.54698624 0.01338169 0)
(0.5582225 0.00039972214 0)
(0.55570952 -0.015137354 0)
(0.53552629 -0.034969204 0)
(0.49244663 -0.062488209 0)
(0.41797274 -0.10694763 0)
(0.30410596 -0.19317544 0)
(0.12313783 -0.33691905 0)
(0.052374208 -0.39437913 0)
(0.24299925 0.1525748 0)
(0.30529616 0.11854287 0)
(0.45481214 0.076108145 0)
(0.56000885 0.050840197 0)
(0.63223324 0.035126091 0)
(0.6865492 0.024812315 0)
(0.72943835 0.017960106 0)
(0.76379642 0.013255932 0)
(0.7912794 0.0097622054 0)
(0.81275158 0.006854362 0)
(0.82841148 0.0041185177 0)
(0.83794405 0.0012768539 0)
(0.84057079 -0.0018442022 0)
(0.83497559 -0.005326262 0)
(0.81886698 -0.0098289667 0)
(0.78942866 -0.01623275 0)
(0.73784287 -0.026935706 0)
(0.65316763 -0.05128655 0)
(0.45609767 -0.11374603 0)
(0.31788988 -0.17206002 0)
)
;

boundaryField
{
    movingWall
    {
        type            fixedValue;
        value           uniform (1 0 0);
    }
    fixedWalls
    {
        type            fixedValue;
        value           uniform (0 0 0);
    }
    frontAndBack
    {
        type            empty;
    }
}


// ************************************************************************* //
