/*--------------------------------*- C++ -*----------------------------------*\
| =========                 |                                                 |
| \\      /  F ield         | OpenFOAM: The Open Source CFD Toolbox           |
|  \\    /   O peration     | Version:  2112                                  |
|   \\  /    A nd           | Website:  www.openfoam.com                      |
|    \\/     M anipulation  |                                                 |
\*---------------------------------------------------------------------------*/
FoamFile
{
    version     2.0;
    format      ascii;
    arch        "LSB;label=32;scalar=64";
    class       volScalarField;
    location    "44.5";
    object      p;
}
// * * * * * * * * * * * * * * * * * * * * * * * * * * * * * * * * * * * * * //

dimensions      [0 2 -2 0 0 0 0];

internalField   nonuniform List<scalar> 
8800
(
0.870241
0.822453
0.78376
0.754761
0.733891
0.719051
0.708442
0.700946
0.696106
0.694021
0.695256
0.699419
0.706044
0.715344
0.728112
0.745837
0.770608
0.804545
0.847091
0.905793
0.701497
0.709176
0.716644
0.719949
0.718441
0.713357
0.706861
0.70077
0.696027
0.693158
0.692846
0.69532
0.699782
0.705707
0.712462
0.718731
0.722364
0.721624
0.716198
0.707503
0.679912
0.686071
0.690195
0.693133
0.695175
0.695769
0.694649
0.692526
0.690485
0.689546
0.690472
0.692822
0.695596
0.697757
0.698349
0.697138
0.694787
0.691387
0.686826
0.683065
0.674127
0.676776
0.679523
0.681919
0.683545
0.684694
0.685419
0.685516
0.685193
0.685107
0.685818
0.686952
0.687761
0.687802
0.687173
0.686068
0.68424
0.681661
0.679253
0.677749
0.668779
0.670202
0.671976
0.673999
0.675772
0.677099
0.678069
0.678841
0.679422
0.679944
0.680548
0.681
0.681063
0.680745
0.680024
0.678757
0.677046
0.675186
0.673873
0.673041
0.663745
0.664664
0.665899
0.667456
0.669076
0.670584
0.671846
0.672883
0.673808
0.674651
0.675283
0.675556
0.675468
0.674991
0.674079
0.672854
0.671506
0.67023
0.669401
0.66885
0.658892
0.659561
0.660517
0.661808
0.663202
0.66464
0.666054
0.667341
0.668493
0.669539
0.670289
0.670589
0.670445
0.669886
0.669039
0.668058
0.667019
0.666075
0.665482
0.665078
0.654176
0.654692
0.655468
0.656586
0.657846
0.659198
0.660613
0.662044
0.663416
0.664678
0.665596
0.66598
0.665878
0.665427
0.664771
0.664001
0.66319
0.662482
0.66204
0.661724
0.649529
0.649939
0.650587
0.65158
0.652766
0.654067
0.655475
0.656982
0.658537
0.660043
0.661179
0.661726
0.661792
0.661538
0.661084
0.66051
0.659891
0.659367
0.659034
0.658779
0.644866
0.6452
0.64576
0.646672
0.647806
0.649088
0.650525
0.652118
0.653841
0.655611
0.65703
0.657838
0.65815
0.658122
0.657874
0.657504
0.657064
0.656691
0.65644
0.656228
0.640107
0.640383
0.640881
0.641746
0.642861
0.644163
0.645663
0.64738
0.649309
0.651381
0.653161
0.654309
0.654918
0.655146
0.655121
0.65495
0.654682
0.654438
0.654254
0.654072
0.635169
0.6354
0.635859
0.636707
0.637841
0.639204
0.640811
0.642706
0.644903
0.647349
0.649574
0.651133
0.652085
0.652603
0.652822
0.65285
0.652753
0.652625
0.652495
0.652335
0.629967
0.630162
0.6306
0.631462
0.632658
0.634127
0.635897
0.638038
0.640586
0.643515
0.646279
0.648317
0.649664
0.650506
0.650995
0.651229
0.651305
0.651286
0.651202
0.651059
0.62441
0.624576
0.625011
0.625916
0.627215
0.628842
0.630837
0.633299
0.636292
0.639819
0.643241
0.645855
0.647672
0.648888
0.649677
0.650158
0.650406
0.650486
0.650441
0.650309
0.618396
0.618537
0.618984
0.61996
0.621405
0.623246
0.625541
0.628414
0.631968
0.636234
0.640457
0.643766
0.64614
0.647795
0.648928
0.649676
0.650114
0.650299
0.650291
0.650167
0.611799
0.611914
0.612386
0.613462
0.615104
0.617226
0.619906
0.623302
0.627553
0.632724
0.637926
0.64208
0.645121
0.647294
0.648827
0.649875
0.650531
0.650824
0.650851
0.650732
0.604452
0.604542
0.605054
0.606269
0.608164
0.610649
0.613829
0.617896
0.623033
0.62933
0.635717
0.640867
0.644693
0.647473
0.649478
0.650877
0.651774
0.652183
0.652245
0.652127
0.596155
0.596247
0.596809
0.59817
0.600387
0.603336
0.607144
0.61205
0.618285
0.625967
0.633791
0.640145
0.644904
0.648414
0.650999
0.65281
0.653977
0.654511
0.654608
0.654487
0.586601
0.586669
0.587316
0.588894
0.59153
0.595075
0.599683
0.605647
0.613246
0.62262
0.632185
0.639982
0.645858
0.650229
0.653491
0.655797
0.657283
0.657958
0.65809
0.657963
0.575442
0.575492
0.576231
0.578112
0.581283
0.585595
0.591226
0.598542
0.607865
0.619328
0.630991
0.640489
0.647671
0.653062
0.657112
0.660009
0.661859
0.662686
0.662852
0.662716
0.562139
0.562174
0.563058
0.565343
0.569221
0.574543
0.581518
0.590581
0.602076
0.616103
0.630257
0.641753
0.650468
0.657048
0.66202
0.665601
0.667863
0.668854
0.669049
0.6689
0.545949
0.545973
0.547066
0.549909
0.554748
0.56143
0.570192
0.581521
0.595743
0.612886
0.630005
0.643829
0.654311
0.662273
0.668339
0.672718
0.675444
0.676604
0.676822
0.676653
0.525742
0.525764
0.527185
0.530868
0.537108
0.54573
0.556972
0.571333
0.589047
0.609971
0.630506
0.646928
0.659383
0.668905
0.676168
0.681467
0.684689
0.686008
0.686231
0.686037
0.499712
0.499757
0.501758
0.506829
0.515258
0.526744
0.541475
0.55985
0.581905
0.607305
0.631753
0.651095
0.665724
0.676956
0.68556
0.691839
0.695558
0.697004
0.69721
0.696985
0.464829
0.464981
0.468188
0.475842
0.488006
0.503888
0.523624
0.54731
0.574727
0.605325
0.634071
0.656512
0.673427
0.686447
0.696483
0.703748
0.707888
0.709391
0.70955
0.709291
0.415317
0.416294
0.422728
0.435715
0.454404
0.477113
0.50376
0.534154
0.567889
0.604275
0.637609
0.663259
0.6825
0.697346
0.708818
0.716974
0.721389
0.722843
0.722924
0.722631
0.342247
0.349494
0.364465
0.387457
0.415879
0.447737
0.482852
0.521005
0.561796
0.604529
0.642854
0.672028
0.693877
0.710786
0.723891
0.732921
0.73761
0.73906
0.739117
0.738862
0.263441
0.280585
0.304885
0.338508
0.377091
0.41827
0.461969
0.508133
0.556453
0.606334
0.650725
0.684442
0.709721
0.729312
0.74449
0.754654
0.759543
0.760888
0.760981
0.760866
0.197895
0.218103
0.250173
0.292721
0.340247
0.390209
0.442225
0.496235
0.551937
0.608758
0.658938
0.696922
0.725388
0.747424
0.764279
0.775092
0.779983
0.781548
0.781704
0.781662
0.144206
0.166098
0.203652
0.252609
0.307171
0.364511
0.423878
0.485091
0.547723
0.611133
0.666772
0.708715
0.740072
0.764216
0.78252
0.794317
0.800039
0.801459
0.801639
0.801641
0.099395
0.122463
0.163796
0.217835
0.278087
0.341509
0.407171
0.474771
0.543727
0.613256
0.673996
0.719588
0.75354
0.779654
0.79941
0.812216
0.818397
0.819955
0.820232
0.820278
0.0611793
0.08493
0.129112
0.187181
0.252212
0.320808
0.391937
0.465201
0.53989
0.615066
0.680529
0.729468
0.765803
0.793669
0.814636
0.82813
0.834737
0.836603
0.836962
0.83702
0.0275807
0.0517971
0.0982449
0.159618
0.228673
0.30176
0.37773
0.456087
0.536012
0.616404
0.686245
0.738262
0.776735
0.806072
0.827895
0.841948
0.848925
0.851125
0.851547
0.8516
-0.00285288
0.0217771
0.0700778
0.134268
0.206788
0.283797
0.364092
0.447075
0.531826
0.61709
0.691054
0.745948
0.786325
0.81683
0.839243
0.853634
0.860894
0.863345
0.863835
0.86388
-0.0310452
-0.00602588
0.0438757
0.110454
0.18602
0.266499
0.350674
0.43788
0.52712
0.617002
0.694934
0.752597
0.794737
0.826221
0.849005
0.863662
0.871139
0.873767
0.874277
0.874301
-0.0577701
-0.032317
0.0190775
0.0877247
0.165982
0.249551
0.337226
0.428307
0.521747
0.616057
0.697899
0.758312
0.802145
0.834498
0.857666
0.872487
0.880096
0.882803
0.883305
0.883289
-0.0833548
-0.0574628
-0.00494341
0.0657639
0.146402
0.232747
0.323591
0.418234
0.515617
0.614223
0.699979
0.763177
0.808703
0.841908
0.865442
0.880418
0.888071
0.890782
0.891311
0.891284
-0.108201
-0.0817344
-0.028156
0.0443461
0.127113
0.215951
0.309672
0.407587
0.508678
0.611461
0.701175
0.767262
0.814558
0.84868
0.87261
0.887712
0.895371
0.898034
0.89851
0.89845
-0.13242
-0.105509
-0.0507462
0.0233446
0.108025
0.199099
0.29542
0.396339
0.500906
0.607745
0.701476
0.770607
0.819831
0.854987
0.879376
0.894595
0.902197
0.904767
0.905151
0.905034
-0.156108
-0.128661
-0.072857
0.00268554
0.0891013
0.182177
0.280835
0.384488
0.492294
0.603045
0.700835
0.773218
0.824598
0.860954
0.885846
0.901121
0.908547
0.910939
0.911216
0.911049
-0.179367
-0.151327
-0.0945223
-0.0176378
0.0703292
0.1652
0.265948
0.372069
0.482859
0.597333
0.699191
0.775055
0.828911
0.866696
0.892128
0.907345
0.914468
0.916589
0.916757
0.916558
-0.20219
-0.173484
-0.115729
-0.0376043
0.0517579
0.148208
0.250812
0.359135
0.472635
0.590589
0.696472
0.776046
0.832766
0.872328
0.898398
0.913384
0.919985
0.921739
0.921789
0.921571
-0.224407
-0.19508
-0.136419
-0.0571815
0.0334284
0.131274
0.235496
0.345766
0.461684
0.582834
0.692609
0.776082
0.836097
0.877943
0.904907
0.919477
0.925194
0.926395
0.926311
0.926091
-0.245989
-0.216074
-0.156562
-0.0763104
0.0154012
0.11446
0.220092
0.332041
0.450083
0.574093
0.687551
0.775028
0.838767
0.883544
0.911971
0.926117
0.930404
0.930616
0.930318
0.930151
-0.266993
-0.23642
-0.176123
-0.0949515
-0.00225815
0.0978498
0.204688
0.318065
0.437923
0.564431
0.681255
0.772738
0.840553
0.888955
0.919816
0.934133
0.936585
0.93485
0.933898
0.933993
-0.287246
-0.256093
-0.195041
-0.11304
-0.0194887
0.0815258
0.189378
0.303945
0.425318
0.553944
0.673717
0.769053
0.84116
0.893745
0.928235
0.944391
0.945873
0.941383
0.938192
0.937557
-0.306837
-0.275082
-0.213335
-0.130604
-0.0363251
0.0654406
0.174103
0.289619
0.412195
0.542552
0.6648
0.7637
0.840253
0.897284
0.936356
0.956851
0.960452
0.955028
0.945832
0.930731
-0.325692
-0.293377
-0.231122
-0.147841
-0.0530594
0.0492567
0.158442
0.274599
0.398008
0.529607
0.65384
0.75586
0.837189
0.898645
0.942041
0.968484
0.975231
0.963786
0.944464
0.931042
-0.343637
-0.311123
-0.248211
-0.164525
-0.0693621
0.0333218
0.142622
0.259211
0.383068
0.515379
0.640943
0.745127
0.831286
0.896692
0.94062
0.966632
0.976952
0.955417
0.886943
0.855787
-0.360015
-0.329561
-0.264272
-0.180084
-0.0844909
0.0181392
0.126951
0.243682
0.367591
0.499997
0.626064
0.731252
0.821309
0.890903
0.927543
0.946684
0.941385
0.889454
0.820224
0.777438
-0.416177
-0.345785
-0.278921
-0.195589
-0.100021
0.00226348
0.111365
0.227735
0.351217
0.483019
0.608631
0.713717
0.803631
0.880051
0.886069
0.893668
0.85037
0.783028
0.707224
0.664887
-0.377636
-0.361482
-0.300645
-0.217029
-0.122672
-0.0205512
0.0875579
0.203247
0.325642
0.455785
0.579013
0.68191
0.763407
0.842671
0.833736
0.725929
0.623505
0.552201
0.47976
0.511925
-0.408939
-0.379451
-0.31763
-0.23477
-0.140368
-0.0384834
0.0698806
0.184917
0.306216
0.434463
0.554693
0.653312
0.726482
0.768046
0.721802
0.577601
0.452486
0.362727
0.264667
0.316229
-0.433085
-0.400666
-0.337607
-0.254518
-0.160022
-0.0582228
0.050064
0.164263
0.284136
0.409906
0.526308
0.618966
0.683115
0.691661
0.588121
0.41784
0.267042
0.149552
0.0189397
0.0526319
-0.456711
-0.422746
-0.358519
-0.274549
-0.17988
-0.0781935
0.0295917
0.142829
0.261084
0.384022
0.495739
0.581582
0.630278
0.608136
0.452745
0.258424
0.0693126
-0.098022
-0.286913
-0.304081
-0.479691
-0.445295
-0.380192
-0.295463
-0.200582
-0.0990788
0.00808458
0.120246
0.236631
0.356378
0.462788
0.541304
0.571737
0.514243
0.324075
0.115273
-0.101162
-0.290216
-0.532848
-0.835675
-0.502943
-0.468553
-0.402919
-0.317696
-0.222592
-0.121219
-0.0146019
0.0964539
0.210873
0.327201
0.428083
0.498167
0.509351
0.401392
0.212335
0.00413988
-0.199197
-0.370921
-0.438727
-0.519758
-0.527395
-0.492965
-0.427047
-0.341594
-0.246406
-0.14525
-0.039268
0.0705131
0.18265
0.295046
0.390015
0.449529
0.436477
0.295048
0.113295
-0.0757667
-0.237105
-0.32888
-0.352642
-0.368783
-0.553359
-0.518828
-0.452737
-0.367227
-0.272143
-0.171371
-0.0662617
0.0419423
0.151375
0.259194
0.347717
0.393809
0.363406
0.196342
0.0235962
-0.140226
-0.265322
-0.303761
-0.316969
-0.318256
-0.581026
-0.546306
-0.480043
-0.394572
-0.299737
-0.199574
-0.0955878
0.0107035
0.116986
0.219629
0.300851
0.333039
0.284585
0.104815
-0.0588332
-0.20522
-0.280602
-0.297538
-0.299056
-0.298908
-0.610445
-0.575436
-0.508972
-0.423611
-0.329187
-0.229829
-0.127232
-0.0232036
0.0794954
0.176411
0.249419
0.270184
0.186514
0.0207517
-0.13481
-0.255077
-0.290764
-0.289751
-0.289192
-0.288679
-0.641319
-0.606051
-0.539403
-0.45424
-0.360383
-0.262057
-0.161137
-0.059731
0.0389438
0.12962
0.194086
0.198346
0.0958847
-0.0578819
-0.195221
-0.269706
-0.280205
-0.282827
-0.283526
-0.28326
-0.673073
-0.637648
-0.571064
-0.48621
-0.393112
-0.29607
-0.197118
-0.0987165
-0.00447291
0.079557
0.135244
0.123696
0.0136702
-0.125037
-0.24043
-0.270283
-0.279708
-0.281586
-0.281357
-0.280937
-0.705246
-0.669693
-0.603473
-0.519102
-0.426995
-0.331508
-0.234848
-0.139827
-0.0504302
0.0268045
0.0717818
0.050338
-0.0645176
-0.179188
-0.272704
-0.290512
-0.282494
-0.281825
-0.281977
-0.281668
-0.736944
-0.701484
-0.635768
-0.552273
-0.461454
-0.367846
-0.273813
-0.18251
-0.0983805
-0.0280501
0.00658153
-0.0217378
-0.139841
-0.220657
-0.274412
-0.28548
-0.285218
-0.283898
-0.283682
-0.283715
-0.766583
-0.731814
-0.666962
-0.584786
-0.495672
-0.404319
-0.313275
-0.225958
-0.147412
-0.0842256
-0.0546702
-0.105735
-0.216701
-0.258789
-0.250359
-0.283298
-0.291917
-0.290161
-0.290092
-0.290016
-0.792602
-0.758871
-0.695917
-0.615452
-0.528566
-0.439908
-0.352253
-0.26913
-0.196187
-0.140537
-0.114104
-0.194788
-0.315523
-0.32273
-0.287117
-0.313167
-0.325393
-0.328439
-0.32804
-0.326851
-0.812926
-0.780847
-0.720568
-0.642832
-0.558798
-0.473386
-0.389492
-0.310755
-0.243092
-0.195103
-0.175322
-0.276068
-0.446681
-0.58825
-0.542161
-0.484436
-0.443023
-0.425701
-0.41446
-0.408021
-0.825325
-0.795849
-0.739092
-0.66504
-0.58482
-0.503331
-0.423607
-0.349298
-0.286369
-0.245008
-0.23254
-0.337909
-0.557614
-0.91862
-0.905508
-0.640118
-0.52112
-0.480306
-0.465505
-0.461343
-0.827229
-0.801693
-0.74956
-0.680295
-0.604918
-0.528223
-0.45307
-0.383146
-0.324163
-0.285496
-0.272063
-0.326356
-0.422462
-0.613478
-0.618517
-0.490144
-0.420952
-0.398526
-0.393795
-0.392428
-0.816865
-0.796079
-0.749958
-0.687034
-0.617618
-0.546558
-0.476439
-0.410761
-0.354265
-0.314571
-0.284493
-0.199474
-0.00641587
0.0667801
-0.0695489
-0.206351
-0.283051
-0.30654
-0.311644
-0.311194
-0.791868
-0.775839
-0.738552
-0.684114
-0.621996
-0.557329
-0.492596
-0.430786
-0.376322
-0.335502
-0.285109
-0.125675
0.219526
0.636826
0.31418
-0.0867067
-0.315465
-0.345011
-0.352797
-0.356126
-0.754409
-0.743795
-0.715864
-0.671735
-0.618107
-0.560419
-0.501072
-0.442716
-0.390187
-0.348739
-0.306338
-0.297743
-0.307071
-0.152946
-0.272632
-0.469505
-0.550179
-0.496915
-0.496488
-0.522295
-0.710652
-0.704539
-0.686582
-0.652572
-0.607855
-0.556711
-0.502163
-0.446749
-0.394047
-0.353641
-0.329672
-0.584019
-1.2434
-2.2312
-2.66824
-2.781
-2.53151
-2.09998
-1.67398
-1.55057
-0.669778
-0.666179
-0.656768
-0.632053
-0.594352
-0.548239
-0.496994
-0.441902
-0.387095
-0.338602
-0.333688
-0.568106
-1.26528
-2.09447
-2.50285
-2.47318
-2.27277
-1.93826
-1.63565
-1.50155
-0.639231
-0.636998
-0.632279
-0.61516
-0.582482
-0.538624
-0.48752
-0.429925
-0.366982
-0.30179
-0.257163
-0.276219
-0.274797
-0.0895086
0.204698
0.55255
0.838384
1.01704
1.12371
1.171
-0.615492
-0.614627
-0.613266
-0.603705
-0.575499
-0.53168
-0.477474
-0.413822
-0.34241
-0.259847
-0.168242
-0.0555337
0.182482
0.66632
1.20861
1.69005
2.02977
2.21692
2.29737
2.31919
-0.601439
-0.600867
-0.600402
-0.595971
-0.572869
-0.528012
-0.468521
-0.397969
-0.314585
-0.216676
-0.104438
0.0148427
0.301037
0.803838
1.35414
1.84332
2.18784
2.38074
2.46206
2.48259
-0.593457
-0.593026
-0.592449
-0.59128
-0.573629
-0.528183
-0.46287
-0.384981
-0.293174
-0.189946
-0.0775682
0.037803
0.255714
0.715016
1.18291
1.58992
1.88329
2.04774
2.11774
2.13664
-0.590361
-0.589166
-0.587143
-0.587403
-0.577642
-0.533167
-0.461789
-0.376392
-0.280863
-0.176073
-0.0742167
0.0308874
0.179544
0.544053
0.921263
1.22846
1.45329
1.57954
1.6343
1.64931
-0.601474
-0.598911
-0.596093
-0.598014
-0.592234
-0.544122
-0.462815
-0.368879
-0.270889
-0.168119
-0.0760679
0.0114334
0.12046
0.388374
0.665899
0.885494
1.04759
1.13879
1.17915
1.18976
-0.631671
-0.631398
-0.636289
-0.640796
-0.628207
-0.558894
-0.459731
-0.356662
-0.257507
-0.159838
-0.079251
-0.0110444
0.0613276
0.255756
0.457644
0.614362
0.728089
0.792361
0.819659
0.826059
-0.650945
-0.659282
-0.673841
-0.677294
-0.644844
-0.551261
-0.438692
-0.333425
-0.238867
-0.150839
-0.0813745
-0.0298077
0.0157724
0.150988
0.296417
0.406896
0.485603
0.529317
0.548735
0.553463
-0.576679
-0.587851
-0.602617
-0.602875
-0.566095
-0.479854
-0.382943
-0.292108
-0.211205
-0.136567
-0.0753071
-0.0297658
0.0136505
0.110254
0.209335
0.282862
0.334687
0.363846
0.375921
0.37752
-0.390432
-0.398507
-0.408509
-0.410149
-0.389088
-0.342955
-0.28775
-0.229876
-0.172253
-0.113887
-0.0618113
-0.0192679
0.020055
0.0831531
0.147571
0.196613
0.23055
0.250161
0.258188
0.259114
-0.17951
-0.1833
-0.190529
-0.199219
-0.202733
-0.197015
-0.182109
-0.158551
-0.12745
-0.0882749
-0.0467209
-0.00686636
0.0299923
0.0689534
0.109622
0.142731
0.169057
0.185363
0.191981
0.191493
-0.0268053
-0.0288208
-0.0353235
-0.0490027
-0.0682326
-0.0860071
-0.0963188
-0.0966589
-0.0859513
-0.0638064
-0.0333845
0.0012976
0.0333497
0.0548412
0.0795927
0.10383
0.12216
0.133734
0.13786
0.136792
0.0515552
0.0502317
0.0443619
0.029798
0.0066305
-0.01829
-0.038695
-0.0510388
-0.0531785
-0.0437744
-0.0241503
0.000157453
0.0223519
0.033152
0.0459404
0.0643237
0.0789216
0.0883189
0.091077
0.0895816
0.0777715
0.0767602
0.0720264
0.0598878
0.0399135
0.0167578
-0.00496643
-0.021748
-0.0311189
-0.0314517
-0.0230468
-0.00984399
0.00112706
0.00318215
0.0117884
0.0251668
0.0366529
0.0430069
0.0442727
0.0426156
0.0776644
0.0769186
0.073468
0.0645293
0.0493899
0.0307281
0.011619
-0.00523475
-0.0178607
-0.025042
-0.0267851
-0.0258031
-0.0267747
-0.0305628
-0.0249158
-0.0139899
-0.00504237
-0.00115989
-0.000436267
-0.00176357
0.0669877
0.06648
0.0641261
0.0579405
0.0471484
0.0331283
0.0176141
0.00240576
-0.0112236
-0.0229978
-0.0335811
-0.0437668
-0.0567593
-0.0619091
-0.0551311
-0.0463881
-0.0408736
-0.0394456
-0.0397145
-0.0405605
0.0533645
0.0530252
0.0514792
0.0473711
0.0399667
0.0298356
0.0178687
0.00499375
-0.00834962
-0.0227262
-0.0395599
-0.058771
-0.0766139
-0.0810652
-0.0742063
-0.0676673
-0.0653249
-0.0657294
-0.0663727
-0.0668874
0.0402363
0.040002
0.0390201
0.0364229
0.0315694
0.024539
0.0156546
0.0052563
-0.00681222
-0.0216735
-0.0414713
-0.0654587
-0.08637
-0.0874114
-0.0802215
-0.0755293
-0.0751139
-0.0766039
-0.0772752
-0.0776023
0.0291679
0.028973
0.0283602
0.0268197
0.0238318
0.0192072
0.0129284
0.00504122
-0.00481071
-0.0184472
-0.0375122
-0.0614451
-0.0798631
-0.0766936
-0.0704484
-0.068515
-0.0701411
-0.0721515
-0.0727414
-0.0729718
0.0207035
0.0205504
0.0201747
0.0193499
0.0176768
0.0148685
0.0107563
0.00522476
-0.00214059
-0.0122582
-0.0269408
-0.0451459
-0.0567335
-0.0519872
-0.0481763
-0.0491545
-0.0519646
-0.0539923
-0.0545091
-0.0547656
0.0148183
0.0147015
0.0144839
0.0141095
0.0133175
0.0118072
0.00943504
0.0061042
0.00172111
-0.00406453
-0.0114312
-0.0199138
-0.0233246
-0.0181994
-0.018518
-0.0214844
-0.0246923
-0.0263302
-0.0267822
-0.0271333
0.0109852
0.0108969
0.010788
0.0106748
0.0104073
0.00978639
0.00872211
0.0072732
0.00579883
0.00495298
0.00598306
0.00889145
0.0129866
0.016818
0.0138826
0.00895153
0.00607518
0.00523502
0.00488249
0.00437563
0.00851817
0.00846101
0.00841486
0.00840815
0.00842591
0.00835965
0.00820075
0.00820485
0.00900759
0.0124133
0.0213342
0.0356149
0.05014
0.0510747
0.0425897
0.0364213
0.0345396
0.0344782
0.0339037
0.033106
0.0066659
0.00663272
0.00661759
0.00666955
0.00681241
0.00702267
0.00735487
0.00819743
0.0104587
0.0164489
0.0303031
0.0515906
0.0699399
0.0673807
0.0577408
0.0529199
0.0523999
0.0532071
0.0524618
0.0515493
0.00487699
0.00485305
0.00485501
0.00492004
0.00510434
0.00534013
0.00581521
0.00693083
0.00951787
0.0159763
0.0302944
0.0524942
0.0702443
0.0655798
0.0587787
0.0563982
0.0573338
0.0585106
0.0573363
0.0561819
0.00283856
0.00280876
0.00280282
0.002836
0.00299178
0.0031763
0.00354465
0.00438832
0.00624889
0.0108155
0.0208361
0.0386136
0.0495663
0.0442302
0.0387493
0.039799
0.0431137
0.0451416
0.043642
0.0423611
0.000729632
0.000699993
0.000701498
0.000697627
0.000575767
0.000496596
0.000712247
0.000831154
0.00104537
0.0016651
0.00322159
0.00662169
0.00975264
0.0147312
0.0127214
0.0121449
0.0103552
0.00721821
0.00720498
0.0075786
-0.0555628
0.112943
0.310022
0.481861
0.619645
0.728753
0.819282
0.896137
0.930848
0.907542
0.251273
0.373207
0.504428
0.618047
0.714041
0.793663
0.858127
0.903817
0.926695
0.938709
0.472767
0.556474
0.64617
0.725561
0.793908
0.851107
0.896569
0.929756
0.953698
0.971634
0.635219
0.694973
0.757557
0.81522
0.865441
0.90808
0.94308
0.970978
0.993905
1.01218
0.76183
0.805407
0.851787
0.895989
0.935041
0.969134
0.998299
1.02255
1.04303
1.06085
0.866861
0.900015
0.938402
0.974207
1.00706
1.03649
1.0622
1.0838
1.10171
1.11905
0.959857
0.988708
1.02287
1.05516
1.08525
1.11254
1.13639
1.15617
1.17172
1.1888
1.04872
1.07802
1.11214
1.14429
1.17398
1.20064
1.22357
1.2421
1.25551
1.27254
1.1442
1.17747
1.21418
1.24782
1.27793
1.30416
1.32615
1.34346
1.35535
1.37275
1.25929
1.29717
1.33585
1.37013
1.39951
1.42429
1.44469
1.4606
1.47208
1.49016
1.4043
1.44287
1.47904
1.50975
1.53544
1.55756
1.57663
1.59217
1.60461
1.62261
1.57942
1.61105
1.63725
1.65971
1.6797
1.69843
1.71616
1.73265
1.748
1.76607
1.76806
1.78527
1.80031
1.81655
1.83246
1.84701
1.86021
1.87415
1.89169
1.91185
1.94978
1.95933
1.97088
1.98169
1.99098
2.00057
2.01135
2.02272
2.03409
2.04945
2.15704
2.1607
2.14576
2.13095
2.12467
2.13035
2.14884
2.17915
2.21133
2.23798
2.46336
2.32849
2.25186
2.20949
2.19207
2.19603
2.22343
2.27984
2.38246
2.60683
0.76084
0.758709
0.754224
0.745596
0.733366
0.72123
0.71099
0.703078
0.697438
0.694153
0.693758
0.696458
0.70153
0.708728
0.718097
0.729624
0.742267
0.753295
0.759404
0.762455
0.685302
0.691148
0.697481
0.701968
0.704431
0.704098
0.701349
0.697522
0.693987
0.691694
0.691505
0.69366
0.697288
0.70155
0.705338
0.707207
0.70626
0.70277
0.697602
0.690981
0.676895
0.679191
0.682592
0.685582
0.687649
0.689135
0.689875
0.689539
0.688487
0.687568
0.687696
0.689076
0.690852
0.692127
0.692284
0.691375
0.689813
0.687467
0.684196
0.681273
0.671408
0.672494
0.674324
0.676695
0.678709
0.680125
0.681128
0.681857
0.682228
0.682408
0.682845
0.683598
0.68415
0.684179
0.683738
0.682867
0.68138
0.679283
0.677187
0.675801
0.666237
0.6669
0.668004
0.669701
0.671472
0.673088
0.674364
0.675353
0.676198
0.67694
0.677607
0.678093
0.67823
0.678019
0.677415
0.676332
0.674881
0.673321
0.671991
0.671208
0.661302
0.661763
0.662545
0.663834
0.665308
0.666808
0.66825
0.669516
0.670609
0.671606
0.672446
0.672934
0.67301
0.672679
0.671936
0.670909
0.669754
0.668599
0.66767
0.66715
0.656524
0.656869
0.657476
0.658535
0.659814
0.661168
0.66258
0.66399
0.665312
0.666522
0.667541
0.668134
0.668225
0.667877
0.667218
0.666393
0.665503
0.664608
0.663918
0.663537
0.651852
0.65212
0.65261
0.653508
0.654662
0.655936
0.657299
0.658745
0.660227
0.661663
0.6629
0.663647
0.66384
0.663626
0.663157
0.662535
0.661836
0.661159
0.660647
0.660356
0.647208
0.647421
0.647827
0.648615
0.649687
0.650909
0.652258
0.653743
0.655344
0.657
0.658497
0.659474
0.659875
0.659877
0.659616
0.659195
0.658687
0.658191
0.657814
0.657586
0.642507
0.642679
0.643026
0.643741
0.644765
0.645962
0.647332
0.64889
0.65063
0.652515
0.654321
0.655618
0.656309
0.656568
0.656532
0.656316
0.655997
0.655661
0.655395
0.655214
0.637668
0.637807
0.638112
0.638782
0.639788
0.641006
0.642436
0.644107
0.646036
0.648203
0.650388
0.652086
0.653124
0.653677
0.653894
0.653892
0.653758
0.653572
0.653399
0.653253
0.632609
0.63272
0.632997
0.633648
0.63467
0.635954
0.637488
0.639327
0.641514
0.644042
0.646698
0.648877
0.650319
0.651209
0.651706
0.651931
0.651984
0.651943
0.65185
0.651732
0.627242
0.62733
0.627591
0.628246
0.629322
0.630713
0.632405
0.63448
0.637004
0.639998
0.643237
0.64599
0.647908
0.649182
0.64999
0.650476
0.650728
0.650822
0.6508
0.650705
0.621473
0.621539
0.621792
0.622473
0.623639
0.625184
0.627095
0.62948
0.632431
0.636008
0.639963
0.643413
0.6459
0.64763
0.648797
0.64957
0.650042
0.650281
0.650325
0.650248
0.61518
0.615226
0.615478
0.616209
0.617505
0.619258
0.621459
0.624242
0.627731
0.632022
0.636851
0.641153
0.64433
0.646602
0.648187
0.64928
0.650004
0.650396
0.650505
0.650445
0.608229
0.608255
0.608511
0.609313
0.610782
0.612807
0.615382
0.618676
0.622854
0.628046
0.633948
0.63927
0.643259
0.646168
0.648241
0.649712
0.650723
0.651281
0.651457
0.651411
0.600443
0.600455
0.600714
0.601607
0.603302
0.605664
0.60872
0.612664
0.617705
0.62401
0.631223
0.63778
0.642742
0.646405
0.649062
0.650987
0.652324
0.653065
0.653309
0.653277
0.591531
0.591511
0.591826
0.592856
0.594825
0.597621
0.60129
0.606055
0.612176
0.619864
0.628683
0.636713
0.642836
0.647397
0.650751
0.653222
0.654937
0.655884
0.656203
0.656181
0.581215
0.581169
0.581525
0.582737
0.585064
0.588425
0.592875
0.598678
0.606152
0.615536
0.626301
0.636128
0.643632
0.64926
0.653444
0.656555
0.658718
0.659902
0.660299
0.660286
0.569035
0.568961
0.569394
0.570848
0.573639
0.577739
0.583206
0.590361
0.599581
0.611114
0.624246
0.636163
0.645269
0.652141
0.657299
0.66115
0.663832
0.665277
0.665755
0.665746
0.554356
0.554252
0.554804
0.556595
0.56001
0.565095
0.571905
0.580816
0.592236
0.606394
0.622373
0.636795
0.647796
0.65612
0.662429
0.667152
0.670432
0.672166
0.672723
0.672714
0.536263
0.536132
0.536874
0.539154
0.543445
0.549901
0.558558
0.569833
0.58413
0.601583
0.620958
0.638233
0.651368
0.661333
0.668959
0.67469
0.678648
0.68069
0.681318
0.681298
0.513314
0.513166
0.514237
0.517293
0.522919
0.531407
0.5427
0.557203
0.575211
0.596697
0.620047
0.640577
0.656096
0.66791
0.676967
0.683836
0.68852
0.690865
0.691539
0.691496
0.483166
0.483042
0.484723
0.48914
0.497018
0.508677
0.523849
0.542789
0.565565
0.59192
0.619833
0.643957
0.662057
0.675838
0.686471
0.694554
0.699964
0.702564
0.703246
0.703168
0.441682
0.441723
0.444762
0.452043
0.464114
0.480993
0.501936
0.526883
0.555624
0.587687
0.620658
0.648595
0.669378
0.685189
0.69745
0.706762
0.712778
0.715503
0.716137
0.716017
0.381142
0.382332
0.389813
0.403473
0.423248
0.448438
0.47751
0.510102
0.545897
0.584333
0.622687
0.654555
0.67804
0.695853
0.709685
0.720108
0.726578
0.729228
0.7297
0.729538
0.308894
0.310672
0.325017
0.348611
0.379212
0.414229
0.452214
0.493019
0.536455
0.582011
0.626721
0.663567
0.690704
0.711315
0.727216
0.738981
0.745975
0.748667
0.749181
0.74913
0.234219
0.240412
0.261619
0.295368
0.336265
0.380842
0.427716
0.476794
0.527965
0.580786
0.632077
0.674134
0.705067
0.728654
0.746928
0.760152
0.767506
0.769887
0.770223
0.770269
0.173238
0.181698
0.20753
0.248289
0.297156
0.349858
0.404739
0.461551
0.520105
0.579909
0.637484
0.684436
0.718889
0.745122
0.765308
0.779703
0.787197
0.789778
0.79052
0.790624
0.123576
0.132627
0.162006
0.20798
0.262937
0.32219
0.383819
0.447453
0.512732
0.579049
0.64253
0.694044
0.731709
0.760296
0.782261
0.797808
0.806176
0.80935
0.810235
0.810373
0.0818481
0.0911808
0.123012
0.172973
0.23292
0.297613
0.364956
0.434541
0.505848
0.578134
0.647105
0.702845
0.743436
0.774181
0.79781
0.814436
0.823629
0.827231
0.828271
0.828407
0.045708
0.0551618
0.0888471
0.142006
0.206065
0.275386
0.347712
0.422558
0.499299
0.577057
0.651107
0.710741
0.754012
0.786684
0.811641
0.829126
0.838948
0.842941
0.844082
0.844227
0.0135335
0.0230392
0.0581482
0.114012
0.181511
0.254807
0.331528
0.411095
0.492792
0.575598
0.65438
0.717641
0.763354
0.797669
0.82361
0.84167
0.852068
0.856378
0.857557
0.857702
-0.015912
-0.0063471
0.0299215
0.0881055
0.158569
0.235338
0.315956
0.39979
0.486035
0.573559
0.656821
0.723539
0.771525
0.807263
0.833944
0.85239
0.863022
0.867604
0.8689
0.869048
-0.0434591
-0.0338346
0.00349374
0.0636417
0.136737
0.216571
0.300668
0.388371
0.478821
0.570793
0.658379
0.728478
0.77867
0.815699
0.842994
0.861711
0.872544
0.877305
0.878628
0.878756
-0.0696628
-0.0599401
-0.0216339
0.0401916
0.115653
0.198209
0.285439
0.376667
0.471011
0.567209
0.659037
0.732529
0.78491
0.823171
0.851034
0.870024
0.880969
0.885776
0.887094
0.887176
-0.094979
-0.0850634
-0.045915
0.0175249
0.0950687
0.180064
0.27012
0.364564
0.462527
0.562758
0.658782
0.735734
0.790363
0.829885
0.858332
0.877567
0.888608
0.893396
0.894676
0.894726
-0.119625
-0.109471
-0.0695463
-0.00453955
0.0748433
0.162022
0.254628
0.352004
0.453322
0.557407
0.657597
0.738114
0.795122
0.836008
0.86512
0.884615
0.895707
0.900433
0.901637
0.901675
-0.143683
-0.133305
-0.0925346
-0.0261642
0.0549001
0.144043
0.238936
0.338969
0.443386
0.551126
0.655445
0.739667
0.799248
0.841671
0.871547
0.891314
0.902393
0.906976
0.908061
0.908046
-0.167275
-0.156582
-0.115054
-0.0473852
0.0352046
0.126109
0.223048
0.325477
0.432733
0.543915
0.652277
0.740346
0.802765
0.846971
0.877729
0.897723
0.908673
0.913028
0.913941
0.913865
-0.190348
-0.179364
-0.137077
-0.068203
0.0157734
0.108247
0.207011
0.311576
0.421401
0.535773
0.648048
0.740075
0.805653
0.851985
0.883801
0.903966
0.914596
0.918569
0.919286
0.919162
-0.212933
-0.201636
-0.15855
-0.0885879
-0.00335848
0.0905054
0.190876
0.297335
0.409452
0.526727
0.642717
0.73877
0.807835
0.856744
0.88994
0.910244
0.920286
0.923654
0.924118
0.923951
-0.234843
-0.223307
-0.179451
-0.108491
-0.0221364
0.0729607
0.174716
0.28283
0.39696
0.516834
0.636263
0.736334
0.80919
0.861213
0.896328
0.916913
0.92601
0.928356
0.928433
0.92823
-0.256209
-0.244326
-0.199749
-0.127876
-0.0405211
0.055655
0.158627
0.268147
0.384018
0.506175
0.628696
0.732663
0.809545
0.865233
0.903049
0.924496
0.932435
0.93304
0.932276
0.932007
-0.27686
-0.264663
-0.219407
-0.146691
-0.0584288
0.0386761
0.142689
0.253406
0.370734
0.494816
0.620059
0.727664
0.808691
0.868504
0.909917
0.933473
0.94089
0.939107
0.936238
0.935074
-0.296852
-0.284357
-0.238367
-0.164881
-0.07582
0.022094
0.126987
0.238685
0.357218
0.482892
0.61043
0.721256
0.806413
0.870595
0.916282
0.943629
0.952797
0.949919
0.943042
0.933993
-0.316101
-0.303365
-0.256728
-0.182602
-0.0929063
0.00562436
0.111179
0.223576
0.34301
0.469885
0.599253
0.712838
0.802147
0.87099
0.921198
0.953806
0.968106
0.966811
0.95663
0.949824