/*--------------------------------*- C++ -*----------------------------------*\
| =========                 |                                                 |
| \\      /  F ield         | OpenFOAM: The Open Source CFD Toolbox           |
|  \\    /   O peration     | Version:  2112                                  |
|   \\  /    A nd           | Website:  www.openfoam.com                      |
|    \\/     M anipulation  |                                                 |
\*---------------------------------------------------------------------------*/
FoamFile
{
    version     2.0;
    format      ascii;
    arch        "LSB;label=32;scalar=64";
    class       surfaceScalarField;
    location    "44.5";
    object      phi;
}
// * * * * * * * * * * * * * * * * * * * * * * * * * * * * * * * * * * * * * //

dimensions      [0 3 -1 0 0 0 0];

oriented        oriented;

internalField   nonuniform List<scalar> 
17370
(
-0.0916069
0.0960077
0.28461
-0.0775918
0.059416
0.364951
-0.0430381
0.0316186
0.427588
-0.022314
0.0162603
0.505305
-0.0116654
0.0087898
0.602278
-0.00657749
0.00509367
0.720541
-0.00386087
0.00298564
0.863782
-0.00221784
0.00164322
1.03602
-0.0011148
0.000696262
1.24292
-0.000287067
-0.000104405
1.49158
0.000490997
-0.000900483
1.4916
0.00130219
-0.00180533
1.24319
0.00235617
-0.00310188
1.03638
0.00396371
-0.00518847
0.864131
0.00666737
-0.00887247
0.721263
0.0117373
-0.0163162
0.603793
0.0223539
-0.0316419
0.508727
0.0430448
-0.0594122
0.432536
0.07759
-0.0960046
0.36519
0.0916202
0.197391
-0.127088
0.0880185
0.0390697
-0.364352
0.354026
-0.0714791
0.0818056
-0.446655
0.454249
-0.0791717
0.0715777
-0.52101
0.529106
-0.0637282
0.0556316
-0.612988
0.620758
-0.048245
0.0404752
-0.727161
0.733681
-0.0338625
0.027342
-0.86758
0.872425
-0.0221413
0.0172961
-1.03856
1.0419
-0.0136047
0.0102708
-1.24472
1.24712
-0.00772332
0.00532094
-1.49284
1.49485
-0.00336
0.00134914
-1.49269
1.49451
0.000469842
-0.0022872
-1.24411
1.24602
0.00425907
-0.00616931
-1.03761
1.04009
0.00850512
-0.0109863
-0.866188
0.869823
0.0142492
-0.0178847
-0.724594
0.729756
0.0226803
-0.0278424
-0.609066
0.615638
0.0343214
-0.0408932
-0.515125
0.522463
0.0486144
-0.0559517
-0.43988
0.447662
0.0639774
-0.0717596
-0.374711
0.377356
0.0792618
-0.0819073
-0.256901
0.224443
0.0715581
-0.0390992
-0.0688035
0.0591889
0.00961461
-0.0521226
0.0589559
-0.374833
0.368
-0.058112
0.0542731
-0.453942
0.457781
-0.0487881
0.0442301
-0.527611
0.532169
-0.0396808
0.035786
-0.620794
0.624689
-0.0315762
0.0275873
-0.734653
0.738642
-0.0232396
0.0193601
-0.873948
0.877828
-0.015321
0.0118676
-1.04335
1.04681
-0.00835168
0.00532242
-1.24864
1.25167
-0.00211799
-0.000859601
-1.49694
1.49992
0.0038169
-0.00696244
-1.49742
1.50057
0.00990736
-0.0133104
-1.25007
1.25347
0.0166517
-0.0205675
-1.04566
1.04957
0.0243435
-0.0285918
-0.877141
0.88139
0.0325004
-0.0366266
-0.738987
0.743114
0.0404479
-0.0449223
-0.625978
0.630452
0.0494183
-0.0548431
-0.535022
0.540447
0.0586146
-0.0593785
-0.458082
0.458846
0.0524383
-0.0320567
-0.336774
0.316392
0.00967094
-0.06867
0.058999
-0.053398
0.0492838
0.00411419
-0.0332616
0.0436935
-0.358547
0.348115
-0.0473759
0.0467939
-0.459569
0.460151
-0.04387
0.0406611
-0.536121
0.539329
-0.0369879
0.033637
-0.628382
0.631733
-0.0300088
0.0267751
-0.74202
0.745253
-0.0233324
0.0201433
-0.88132
0.884509
-0.016558
0.0132124
-1.05023
1.05357
-0.00952023
0.00612127
-1.25493
1.25833
-0.00233577
-0.00127683
-1.50327
1.50688
0.00485945
-0.00855793
-1.50407
1.50776
0.0118392
-0.0153737
-1.25704
1.26057
0.0185618
-0.0219714
-1.05328
1.05669
0.0250095
-0.0283041
-0.884996
0.888291
0.0314168
-0.0349237
-0.746797
0.750304
0.0381689
-0.04173
-0.634577
0.638138
0.0448414
-0.0476568
-0.544595
0.54741
0.0481278
-0.0442921
-0.456969
0.453133
0.0336735
-0.0163696
-0.297084
0.279781
0.00417574
-0.0531521
0.0489764
-0.046112
0.0435533
0.00255868
-0.0230686
0.033429
-0.337515
0.327155
-0.0391727
0.0401283
-0.459896
0.45894
-0.0388834
0.0365598
-0.541981
0.544304
-0.0339226
0.0313818
-0.634693
0.637234
-0.0284136
0.0255766
-0.748334
0.751171
-0.0223519
0.0193485
-0.887559
0.890562
-0.0160067
0.0128804
-1.05674
1.05987
-0.00933306
0.00594246
-1.26172
1.26511
-0.00204256
-0.00174709
-1.51061
1.5144
0.00549848
-0.00928337
-1.51155
1.51533
0.01252
-0.015862
-1.26404
1.26738
0.0187819
-0.0218914
-1.05989
1.063
0.0246906
-0.0277098
-0.891486
0.894505
0.0303786
-0.0331798
-0.753486
0.756287
0.0355773
-0.038067
-0.641098
0.643587
0.0402648
-0.0413441
-0.549253
0.550333
0.0402182
-0.034227
-0.448019
0.442028
0.0235958
-0.0103618
-0.264606
0.251372
0.00263475
-0.0457363
0.0431016
-0.0414325
0.0396284
0.00180404
-0.0169692
0.0262679
-0.317275
0.307976
-0.0328779
0.0350089
-0.457372
0.455241
-0.0345843
0.0328934
-0.546328
0.548018
-0.0306739
0.0285537
-0.639537
0.641657
-0.0261259
0.0237581
-0.753764
0.756132
-0.0209558
0.0182199
-0.893409
0.896145
-0.0150472
0.0120241
-1.0629
1.06592
-0.00857193
0.00526855
-1.26842
1.27172
-0.00144112
-0.00229685
-1.51816
1.5219
0.00598588
-0.00966814
-1.51908
1.52276
0.0127753
-0.0159652
-1.27066
1.27385
0.0187241
-0.0215971
-1.06603
1.06891
0.0240671
-0.0266018
-0.89729
0.899825
0.0287517
-0.0309652
-0.75873
0.760944
0.0329039
-0.0349353
-0.645821
0.647853
0.0364449
-0.0366459
-0.550923
0.551124
0.0342548
-0.0272849
-0.435453
0.428483
0.0176251
-0.00745755
-0.239815
0.229647
0.00189694
-0.0408971
0.0390002
-0.0380762
0.0367205
0.00135576
-0.0129737
0.0209886
-0.299324
0.291309
-0.0277744
0.030711
-0.452677
0.449741
-0.0309305
0.0298157
-0.549449
0.550564
-0.027824
0.0259046
-0.643705
0.645624
-0.0237023
0.0215722
-0.758365
0.760495
-0.0190792
0.0166254
-0.898679
0.901133
-0.0137224
0.0108841
-1.0688
1.07164
-0.00757425
0.00437631
-1.27494
1.27813
-0.00066312
-0.00295076
-1.52556
1.52917
0.00650404
-0.0100371
-1.52638
1.52991
0.0129927
-0.0159791
-1.27698
1.27996
0.01849
-0.0210175
-1.07163
1.07416
0.0231338
-0.0252812
-0.90214
0.904287
0.0271275
-0.0290538
-0.76299
0.764917
0.0307458
-0.0325167
-0.649729
0.6515
0.0333705
-0.0328393
-0.550967
0.550436
0.0295327
-0.0222563
-0.421306
0.414029
0.0137797
-0.00575004
-0.220652
0.212622
0.00146886
-0.037346
0.0358772
-0.0355367
0.0344912
0.00104553
-0.0101506
0.0169423
-0.283932
0.277141
-0.0234831
0.0268893
-0.446554
0.443147
-0.0276956
0.0270207
-0.551455
0.552129
-0.0252718
0.0235034
-0.647506
0.649275
-0.0214584
0.0194689
-0.762551
0.76454
-0.0171264
0.0148255
-0.903441
0.905742
-0.012119
0.00946624
-1.07431
1.07697
-0.00634567
0.00329755
-1.28122
1.28427
0.000268077
-0.00373838
-1.53269
1.53616
0.00713584
-0.0104794
-1.53335
1.53669
0.0132288
-0.0159499
-1.28284
1.28556
0.0182002
-0.0204442
-1.07655
1.0788
0.0223257
-0.0242342
-0.906322
0.90823
0.0258668
-0.0275662
-0.766713
0.768413
0.0290512
-0.030492
-0.653121
0.654562
0.0308366
-0.0296007
-0.549564
0.548328
0.0256873
-0.0185044
-0.406777
0.399595
0.0111356
-0.00461315
-0.205418
0.198896
0.001183
-0.0345695
0.0333865
-0.0335729
0.0327567
0.000816171
-0.00805889
0.0137787
-0.270917
0.265197
-0.0198471
0.0234632
-0.439632
0.436016
-0.0247575
0.0243351
-0.552712
0.553135
-0.0228635
0.0212089
-0.651032
0.652687
-0.0192645
0.01737
-0.766476
0.76837
-0.0151383
0.0129456
-0.907919
0.910112
-0.0103645
0.00784113
-1.07948
1.082
-0.00488223
0.00198948
-1.28719
1.29008
0.00139711
-0.00469248
-1.53952
1.54281
0.00789832
-0.0110148
-1.53992
1.54304
0.0135411
-0.0160114
-1.28818
1.29065
0.0180413
-0.0200559
-1.08095
1.08296
0.0217349
-0.0234325
-0.910047
0.911745
0.0248835
-0.0263962
-0.770007
0.771519
0.0276979
-0.0287773
-0.655797
0.656876
0.0287656
-0.0268756
-0.546771
0.544881
0.0225865
-0.0156981
-0.392555
0.385666
0.0092633
-0.00382108
-0.192965
0.187523
0.000983814
-0.0323175
0.0313337
-0.0320388
0.0313995
0.000639303
-0.00644791
0.011251
-0.259966
0.255163
-0.0167389
0.0203694
-0.432397
0.428767
-0.0220029
0.021817
-0.553481
0.553667
-0.0205901
0.0190047
-0.654354
0.65594
-0.0171274
0.0152936
-0.770225
0.772059
-0.0131343
0.011014
-0.912187
0.914307
-0.0085191
0.00608291
-1.0844
1.08684
-0.00323478
0.000469128
-1.29285
1.29562
0.00274652
-0.00585233
-1.54598
1.54908
0.00884816
-0.0117344
-1.54603
1.54892
0.0140582
-0.016316
-1.29304
1.29529
0.0181566
-0.0199662
-1.0849
1.08671
0.0214588
-0.022959
-0.913361
0.914861
0.0242419
-0.0255803
-0.772949
0.774287
0.0267386
-0.0274196
-0.657738
0.658419
0.0270507
-0.0246259
-0.542746
0.540321
0.0201204
-0.0136002
-0.378974
0.372454
0.00791666
-0.00325912
-0.182515
0.177857
0.000843164
-0.0304335
0.0295903
-0.03084
0.0303436
0.000496471
-0.00515261
0.0091642
-0.250784
0.246772
-0.014023
0.0175158
-0.425217
0.421724
-0.0193486
0.01937
-0.553795
0.553773
-0.0183601
0.0168274
-0.657561
0.659094
-0.0149903
0.0131856
-0.773862
0.775667
-0.0110594
0.0089771
-0.91632
0.918402
-0.00653711
0.00416666
-1.08916
1.09153
-0.00140793
-0.00125546
-1.29827
1.30093
0.00433069
-0.00727316
-1.55207
1.55501
0.0100815
-0.0127554
-1.55169
1.55436
0.0148784
-0.0169131
-1.29747
1.29951
0.0185529
-0.0201521
-1.08845
1.09005
0.0214669
-0.0227897
-0.916295
0.917618
0.023923
-0.0250983
-0.775548
0.776723
0.026072
-0.0263896
-0.658888
0.659205
0.025652
-0.022791
-0.537695
0.534834
0.018182
-0.0120374
-0.366142
0.359998
0.0069446
-0.0028601
-0.173522
0.169437
0.000744642
-0.028809
0.0280644
-0.0299148
0.0295392
0.000375624
-0.00406669
0.00738169
-0.243136
0.239821
-0.0115975
0.0148411
-0.418377
0.415134
-0.0167433
0.0169278
-0.553729
0.553544
-0.0160098
0.0145569
-0.660661
0.662114
-0.0127261
0.0109199
-0.777451
0.779257
-0.00879855
0.00673244
-0.920371
0.922437
-0.00432499
0.00199778
-1.09378
1.0961
0.000690483
-0.00327234
-1.30349
1.30607
0.00622257
-0.00900822
-1.55783
1.56061
0.0116322
-0.0140956
-1.55692
1.55938
0.0160228
-0.0178439
-1.30146
1.30328
0.0192902
-0.0206827
-1.09157
1.09297
0.0218171
-0.0229576
-0.918878
0.920019
0.023939
-0.0249469
-0.777842
0.77885
0.0256749
-0.0257156
-0.659381
0.659422
0.0245934
-0.0213643
-0.531804
0.528575
0.0167095
-0.010899
-0.35405
0.348239
0.00625658
-0.0025845
-0.165592
0.16192
0.00067872
-0.0273659
0.0266872
-0.029223
0.0289551
0.000267966
-0.00311189
0.0057945
-0.236844
0.234161
-0.00936273
0.0122725
-0.41208
0.40917
-0.0141369
0.0144276
-0.553373
0.553082
-0.0135817
0.0122018
-0.663618
0.664998
-0.0103746
0.00854886
-0.781048
0.782874
-0.00639904
0.00430892
-0.924396
0.926486
-0.00188534
-0.000435723
-1.09832
1.10064
0.00310315
-0.00562899
-1.30854
1.31107
0.00847952
-0.0111326
-1.56328
1.56594
0.0135883
-0.0158444
-1.56172
1.56398
0.017573
-0.0191726
-1.30503
1.30663
0.0204206
-0.0216033
-1.0943
1.09548
0.0225559
-0.0235179
-0.921105
0.922067
0.0243522
-0.025184
-0.779792
0.780623
0.0256529
-0.0254284
-0.659306
0.659082
0.0239038
-0.0203296
-0.525201
0.521627
0.015644
-0.0101022
-0.342604
0.337062
0.00578994
-0.00240465
-0.158427
0.155042
0.000638247
-0.0260436
0.0254053
-0.028743
0.0285767
0.000166368
-0.00222647
0.00431339
-0.231794
0.229707
-0.0072265
0.00972752
-0.406491
0.40399
-0.011439
0.0117502
-0.55286
0.552549
-0.0109371
0.00958879
-0.666464
0.667812
-0.00773755
0.00586452
-0.784688
0.786562
-0.0036574
0.00152036
-0.928466
0.930604
0.000937921
-0.00328136
-1.10285
1.1052
0.00593972
-0.00843157
-1.31349
1.31598
0.0112039
-0.0137372
-1.56847
1.57101
0.0160306
-0.0180838
-1.56612
1.56817
0.019613
-0.020986
-1.30815
1.30952
0.0220274
-0.0229855
-1.09662
1.09758
0.0237336
-0.0244787
-0.922968
0.923713
0.0251294
-0.0257883
-0.78137
0.782029
0.0259583
-0.0254128
-0.658634
0.658089
0.0234999
-0.0196227
-0.517947
0.51407
0.0149126
-0.00957333
-0.331674
0.326335
0.00549282
-0.00229732
-0.151789
0.148594
0.000616775
-0.0247942
0.0241774
-0.028467
0.028403
6.39963e-05
-0.00136338
0.00286804
-0.227925
0.226421
-0.00511038
0.00713831
-0.401755
0.399727
-0.00859307
0.00883987
-0.552369
0.552122
-0.00800626
0.00664444
-0.669292
0.670653
-0.00472368
0.00277209
-0.788429
0.790381
-0.000478027
-0.00173049
-0.932619
0.934828
0.00425588
-0.0066431
-1.10742
1.10981
0.00932651
-0.0118065
-1.31837
1.32085
0.0145107
-0.0169171
-1.57342
1.57582
0.019033
-0.0208618
-1.57008
1.57191
0.0221693
-0.0232861
-1.31079
1.31191
0.0240911
-0.0247938
-1.09846
1.09917
0.0253158
-0.0258356
-0.924423
0.924942
0.0263173
-0.026809
-0.782579
0.78307
0.0266919
-0.0257863
-0.657275
0.65637
0.0234774
-0.019286
-0.510108
0.505917
0.0145152
-0.00929275
-0.321121
0.315899
0.00535008
-0.00225755
-0.145494
0.142401
0.000614127
-0.0235816
0.0229675
-0.0283973
0.0284437
-4.63926e-05
-0.000473537
0.00138624
-0.225224
0.224311
-0.00292297
0.00440854
-0.397997
0.396512
-0.00550806
0.00562035
-0.552062
0.55195
-0.00473437
0.00333265
-0.672186
0.673588
-0.00133631
-0.000717559
-0.792324
0.794378
0.00314164
-0.00546862
-0.93692
0.939247
0.00811577
-0.010592
-1.11209
1.11456
0.0133387
-0.0158359
-1.32322
1.32572
0.0185038
-0.0208119
-1.5781
1.58041
0.022765
-0.0243727
-1.57359
1.5752
0.0254541
-0.0263117
-1.31293
1.31379
0.0268731
-0.0273058
-1.09982
1.10025
0.0275746
-0.0278309
-0.925424
0.92568
0.0280967
-0.0282983
-0.783294
0.783496
0.0279287
-0.0265637
-0.655157
0.653792
0.0238191
-0.0192881
-0.501669
0.497138
0.0144142
-0.00922675
-0.310779
0.305591
0.00533848
-0.00227409
-0.139375
0.136311
0.000626559
-0.02237
0.0217435
-0.0285463
0.0287089
-0.0001626
0.000470705
-0.000189272
-0.223719
0.223438
-0.000589011
0.00145128
-0.395357
0.394495
-0.00207618
0.00196236
-0.552099
0.552213
-0.000956972
-0.000555026
-0.675216
0.676728
0.00267876
-0.00488309
-0.796431
0.798635
0.00748415
-0.00996632
-0.94146
0.943943
0.0127653
-0.0153565
-1.11693
1.11952
0.0181937
-0.0207298
-1.32811
1.33065
0.0233732
-0.0255775
-1.58259
1.58479
0.0273474
-0.0286975
-1.57664
1.57799
0.0295157
-0.0300556
-1.31452
1.31506
0.0303278
-0.0304543
-1.10062
1.10075
0.0304566
-0.0304371
-0.925901
0.925882
0.0304699
-0.0303432
-0.783338
0.783211
0.0296471
-0.0277525
-0.652147
0.650252
0.024548
-0.0196505
-0.49258
0.487683
0.0146169
-0.00937285
-0.300479
0.295235
0.00545499
-0.00234586
-0.133285
0.130175
0.00065397
-0.021129
0.0204751
-0.0289539
0.0292624
-0.000308495
0.0015023
-0.00187598
-0.223509
0.223883
0.00196077
-0.00183675
-0.39397
0.393846
0.00182278
-0.00228324
-0.55272
0.55318
0.00350148
-0.00518783
-0.678537
0.680224
0.00750965
-0.00990627
-0.800836
0.803233
0.0127189
-0.0153852
-0.946293
0.94896
0.0183733
-0.021117
-1.122
1.12474
0.0240822
-0.0266796
-1.33308
1.33567
0.0293068
-0.0313979
-1.58684
1.58893
0.0329648
-0.0340215
-1.57913
1.58019
0.0345503
-0.0347365
-1.31545
1.31564
0.0346793
-0.0344532
-1.10076
1.10054
0.0341369
-0.0337924
-0.925782
0.925438
0.0335727
-0.0330385
-0.782641
0.782107
0.0319524
-0.0294651
-0.648146
0.645659
0.0257491
-0.0204137
-0.482772
0.477437
0.0151372
-0.00973421
-0.290036
0.284633
0.00570008
-0.002473
-0.127077
0.12385
0.000696558
-0.0198293
0.0191327
-0.0296406
0.0301258
-0.000485157
0.00280689
-0.00395582
-0.224658
0.225807
0.00492675
-0.00560769
-0.394057
0.394738
0.00630264
-0.00718886
-0.554154
0.55504
0.00866251
-0.0105615
-0.682268
0.684167
0.0131413
-0.0157979
-0.805625
0.808281
0.0189127
-0.0218533
-0.951507
0.954448
0.025122
-0.0280853
-1.12739
1.13035
0.0312319
-0.0339201
-1.33816
1.34085
0.0365407
-0.0385083
-1.59086
1.59283
0.0398395
-0.0405598
-1.58101
1.58173
0.0407377
-0.0405353
-1.31564
1.31544
0.0401144
-0.0395001
-1.10014
1.09952
0.0388341
-0.0381157
-0.924948
0.92423
0.0375662
-0.0365202
-0.781048
0.780002
0.0349282
-0.0317556
-0.643024
0.639852
0.0274446
-0.0215901
-0.472096
0.466242
0.015983
-0.0103128
-0.279247
0.273576
0.00607244
-0.0026532
-0.120608
0.117189
0.000752863
-0.018441
0.0176881
-0.0306831
0.0313876
-0.000704518
0.00431231
-0.00635402
-0.227378
0.22942
0.0084251
-0.0100237
-0.395833
0.397431
0.01155
-0.0130013
-0.55661
0.558061
0.0148763
-0.0170842
-0.686497
0.688705
0.02002
-0.0230197
-0.810933
0.813933
0.0265162
-0.0297901
-0.957277
0.960551
0.0333895
-0.0366072
-1.13322
1.13644
0.0399606
-0.0427524
-1.34342
1.34621
0.0453674
-0.0471893
-1.59461
1.59643
0.0482424
-0.0485653
-1.58218
1.58251
0.0483152
-0.0476584
-1.31498
1.31433
0.046808
-0.045741
-1.09865
1.09758
0.0446812
-0.0435401
-0.923283
0.922142
0.0425217
-0.0409579
-0.778399
0.776835
0.0387139
-0.0347627
-0.636589
0.632638
0.0297686
-0.0232771
-0.460388
0.453897
0.017213
-0.0111383
-0.267883
0.261808
0.00658606
-0.00289127
-0.113725
0.11003
0.000824122
-0.0169367
0.0161125
-0.0321626
0.0331534
-0.000990794
0.00620095
-0.00933758
-0.231898
0.235035
0.0126562
-0.0153137
-0.399569
0.402227
0.0178116
-0.0199696
-0.560403
0.56256
0.0224262
-0.0251001
-0.691459
0.694133
0.0285437
-0.0319896
-0.816926
0.820372
0.035946
-0.0396098
-0.963707
0.967371
0.0435954
-0.0471094
-1.13955
1.14307
0.0506969
-0.0535879
-1.34887
1.35176
0.0561464
-0.057737
-1.59802
1.59961
0.0584098
-0.0582358
-1.58251
1.58234
0.0574937
-0.0562791
-1.31332
1.3121
0.0549327
-0.0533302
-1.09615
1.09455
0.051811
-0.050177
-0.920676
0.919042
0.0486397
-0.0464731
-0.774667
0.7725
0.0435038
-0.038647
-0.628631
0.623774
0.0328226
-0.0255239
-0.447397
0.440098
0.0188488
-0.0122124
-0.25567
0.249034
0.00723331
-0.00317862
-0.106264
0.10221
0.0009061
-0.0152888
0.0143827
-0.0342083
0.0355927
-0.00138434
0.00869135
-0.0131589
-0.238585
0.243052
0.017949
-0.0218249
-0.405597
0.409473
0.025442
-0.0284254
-0.565848
0.568831
0.0316035
-0.0348717
-0.697459
0.700727
0.0389615
-0.0429745
-0.823809
0.827822
0.0475204
-0.0516829
-0.97094
0.975102
0.0561508
-0.0600153
-1.14648
1.15034
0.0638538
-0.0668217
-1.35448
1.35745
0.0692693
-0.0705554
-1.60091
1.60219
0.0707599
-0.0699697
-1.58178
1.58099
0.0686276
-0.0667313
-1.31042
1.30853
0.0648003
-0.0626009
-1.09245
1.09025
0.0605569
-0.058379
-0.916973
0.914795
0.0562086
-0.0533332
-0.769673
0.766797
0.0494877
-0.0435424
-0.618873
0.612927
0.0367155
-0.0284115
-0.432796
0.424492
0.0209368
-0.0135491
-0.242293
0.234905
0.00800996
-0.0035055
-0.0980588
0.0935543
0.000993051
-0.0134793
0.0124862
-0.0370215
0.0389696
-0.00194808
0.0120615
-0.0182129
-0.247885
0.254036
0.0247819
-0.0300894
-0.414363
0.419671
0.0350229
-0.039013
-0.573266
0.577256
0.0431095
-0.0471603
-0.704773
0.708824
0.0520962
-0.0568403
-0.831836
0.83658
0.0621295
-0.0668926
-0.979201
0.983964
0.0718974
-0.0761025
-1.15409
1.15829
0.0801193
-0.0830509
-1.36018
1.36312
0.0852218
-0.0860286
-1.60309
1.6039
0.0855858
-0.0840174
-1.57972
1.57815
0.0819513
-0.0792826
-1.3061
1.30343
0.0766888
-0.0738135
-1.08742
1.08454
0.0712022
-0.0683983
-0.91203
0.909226
0.0655179
-0.0617753
-0.76321
0.759467
0.0568911
-0.0496701
-0.606941
0.59972
0.0416358
-0.0320646
-0.416186
0.406614
0.0235443
-0.0151676
-0.227366
0.21899
0.00891266
-0.00386355
-0.0889304
0.0838813
0.00108059
-0.011501
0.0104204
-0.0409182
0.0437259
-0.00280772
0.0169262
-0.0252849
-0.260486
0.268845
0.0340379
-0.0410666
-0.426522
0.433551
0.0476054
-0.0528471
-0.583149
0.588391
0.0581937
-0.0633467
-0.713824
0.718977
0.0693691
-0.0749724
-0.841323
0.846927
0.0810526
-0.0863798
-0.988638
0.993965
0.091806
-0.0961963
-1.16229
1.16668
0.100177
-0.102849
-1.36568
1.36835
0.104474
-0.104538
-1.60416
1.60422
0.103209
-0.10065
-1.57597
1.57341
0.0976948
-0.0940996
-1.30013
1.29653
0.0907342
-0.0871073
-1.08091
1.07728
0.0838783
-0.08038
-0.905646
0.902148
0.0767993
-0.0720401
-0.754863
0.750104
0.065954
-0.0572078
-0.592421
0.583675
0.0476935
-0.0365273
-0.39704
0.385874
0.0266626
-0.0170251
-0.210434
0.200797
0.00989731
-0.00422777
-0.0787078
0.0730383
0.00116069
-0.00935675
0.00819606
-0.0464546
0.0507149
-0.00426031
0.0244777
-0.035829
-0.277504
0.288856
0.047395
-0.0566802
-0.443096
0.452381
0.0651704
-0.0718684
-0.596138
0.602836
0.078772
-0.0854019
-0.725105
0.731735
0.0926044
-0.0990034
-0.852484
0.858883
0.10571
-0.111385
-0.999092
1.00477
0.116935
-0.121203
-1.17069
1.17496
0.124779
-0.126833
-1.37046
1.37252
0.127503
-0.126457
-1.60354
1.60249
0.123917
-0.12008
-1.57008
1.56625
0.116035
-0.111339
-1.2922
1.2875
0.10708
-0.102631
-1.07274
1.06829
0.0987847
-0.0945435
-0.897657
0.893416
0.0902492
-0.0843045
-0.74429
0.738345
0.0767477
-0.0661284
-0.57474
0.564121
0.0548072
-0.0416783
-0.374705
0.361576
0.0301442
-0.0189832
-0.191021
0.179861
0.0108631
-0.00454988
-0.0672933
0.0609801
0.00121893
-0.0070688
0.00584987
-0.0546863
0.0620084
-0.00732212
0.0378524
-0.0535919
-0.301039
0.316779
0.0690806
-0.0813886
-0.465619
0.477927
0.0918965
-0.0999641
-0.612666
0.620733
0.108406
-0.116269
-0.73898
0.746843
0.124359
-0.131159
-0.865051
0.871852
0.137967
-0.143458
-1.01
1.01549
0.148532
-0.152097
-1.17857
1.18213
0.15464
-0.155488
-1.37371
1.37456
0.154631
-0.152
-1.60044
1.5978
0.147875
-0.14248
-1.56149
1.5561
0.137147
-0.131208
-1.28201
1.27607
0.125943
-0.120564
-1.06276
1.05738
0.11601
-0.111017
-0.887858
0.882865
0.105799
-0.0982929
-0.731076
0.72357
0.0889423
-0.0760446
-0.553106
0.540208
0.062526
-0.0470994
-0.348412
0.332985
0.0336657
-0.0208575
-0.16877
0.155962
0.0117112
-0.00479096
-0.054771
0.0478508
0.00123864
-0.00469239
0.00345374
-0.0688641
0.0729469
-0.00408275
0.0288882
-0.0424821
-0.335057
0.348651
0.0561765
-0.0673192
-0.495395
0.506538
0.0772467
-0.0865673
-0.632316
0.641636
0.0969853
-0.106292
-0.754324
0.763632
0.116567
-0.12568
-0.877815
0.886927
0.135296
-0.143729
-1.02006
1.02849
0.152334
-0.15946
-1.18458
1.19171
0.16615
-0.171001
-1.37419
1.37904
0.174529
-0.175713
-1.59388
1.59507
0.174483
-0.171364
-1.54957
1.54645
0.167271
-0.161964
-1.26924
1.26393
0.156979
-0.151113
-1.0508
1.04494
0.14609
-0.140343
-0.876007
0.87026
0.133886
-0.123523
-0.714376
0.704014
0.110123
-0.0921509
-0.526541
0.508569
0.0739527
-0.0536651
-0.317248
0.296961
0.0369066
-0.021843
-0.143633
0.128569
0.011722
-0.00457584
-0.0415534
0.0344073
0.00111528
-0.002337
0.00122172
-0.0800626
0.0782005
0.00186204
0.0072311
-0.0161538
-0.365114
0.374037
0.0265363
-0.0344263
-0.522418
0.530308
0.042379
-0.050374
-0.653279
0.661274
0.0599847
-0.0687821
-0.772645
0.781443
0.078058
-0.086497
-0.89554
0.903979
0.0953631
-0.10279
-1.03665
1.04407
0.110526
-0.116546
-1.19861
1.20463
0.122091
-0.125745
-1.3835
1.38715
0.127654
-0.127371
-1.59523
1.59495
0.124653
-0.119984
-1.54227
1.53761
0.114323
-0.107373
-1.25784
1.25089
0.100894
-0.0937271
-1.03789
1.03072
0.0872096
-0.0798878
-0.860773
0.853451
0.0726966
-0.0635468
-0.68967
0.68052
0.0534971
-0.041279
-0.4888
0.476582
0.0302062
-0.0196187
-0.276556
0.265969
0.0122039
-0.00657207
-0.11427
0.108638
0.00331857
-0.00128542
-0.0277533
0.0257201
0.000362693
-0.000132106
-0.000230587
-0.08145
0.0785758
0.00287418
-0.00182543
-0.00332539
-0.38538
0.390531
0.0103699
-0.0162255
-0.542352
0.548208
0.0222957
-0.0292183
-0.671213
0.678136
0.037562
-0.0452265
-0.789392
0.797057
0.0535415
-0.0609388
-0.911714
0.919111
0.0684538
-0.0750919
-1.05132
1.05796
0.0817888
-0.0870744
-1.2102
1.21549
0.0914802
-0.0941153
-1.3901
1.39274
0.0952736
-0.0941609
-1.5939
1.59279
0.0907028
-0.0853557
-1.53226
1.52691
0.0791952
-0.0718658
-1.24367
1.23634
0.0645422
-0.056484
-1.02253
1.01447
0.0489379
-0.0405274
-0.843785
0.835374
0.0331606
-0.0252543
-0.667594
0.659688
0.0176579
-0.00960726
-0.462488
0.454438
0.00406049
-0.000436101
-0.254537
0.250912
-0.00104803
0.00133194
-0.102251
0.101967
-0.000974133
0.000435193
-0.0233161
0.0238551
-0.000103404
0.00060229
-0.000498887
-0.0802022
0.0775021
0.0027001
-0.00532492
0.00285133
-0.398887
0.401361
0.00166369
-0.00615521
-0.557291
0.561782
0.0113744
-0.0172208
-0.686084
0.691931
0.0244065
-0.0310294
-0.804135
0.810758
0.0381816
-0.0445531
-0.926007
0.932379
0.0513966
-0.0570477
-1.06418
1.06983
0.0629418
-0.0671542
-1.22038
1.22459
0.0709459
-0.0731028
-1.39517
1.39733
0.0736589
-0.0718688
-1.59126
1.58947
0.0681709
-0.0626189
-1.521
1.51545
0.0562773
-0.0484114
-1.2287
1.22083
0.0409241
-0.032645
-1.00568
0.997397
0.0248141
-0.0166643
-0.825403
0.817253
0.00940983
-0.00250019
-0.64819
0.641281
-0.00316317
0.00781354
-0.444828
0.440177
-0.00961587
0.00932039
-0.244726
0.245021
-0.00787614
0.00555219
-0.10045
0.102774
-0.00347308
0.00150604
-0.0238271
0.0257941
-0.000375625
0.000492628
-0.000117004
-0.0787492
0.0763775
0.00237169
-0.00635861
0.00544038
-0.407924
0.408842
-0.00211268
-0.00118351
-0.569369
0.572666
0.00549723
-0.0108266
-0.698631
0.70396
0.0168952
-0.0227499
-0.816706
0.822561
0.0289843
-0.0345514
-0.938328
0.943895
0.040466
-0.0455571
-1.07537
1.08046
0.0506227
-0.0545871
-1.2287
1.23267
0.0579061
-0.0597074
-1.39917
1.40097
0.0599438
-0.0578983
-1.58749
1.58544
0.0539937
-0.0480936
-1.50913
1.50323
0.0416965
-0.0340346
-1.21284
1.20518
0.0267532
-0.0187182
-0.988729
0.980694
0.0115165
-0.00394984
-0.80806
0.800493
-0.00248065
0.00836731
-0.631307
0.62542
-0.0126596
0.0156179
-0.433045
0.430086
-0.0159061
0.0138549
-0.242041
0.244092
-0.0110845
0.00775216
-0.103801
0.107133
-0.0048195
0.00212577
-0.0271889
0.0298827
-0.0005792
-0.000275235
0.000854435
-0.077435
0.0754173
0.00201773
-0.00616895
0.00572112
-0.414172
0.41462
-0.00375109
0.001073
-0.578738
0.581417
0.0031593
-0.00773279
-0.709327
0.7139
0.0129842
-0.0181016
-0.827638
0.832755
0.0236906
-0.028721
-0.949149
0.954179
0.034215
-0.0387685
-1.08532
1.08987
0.0434465
-0.0471263
-1.2364
1.24008
0.0501517
-0.0517563
-1.40255
1.40415
0.051842
-0.0501341
-1.58331
1.5816
0.0463215
-0.0408869
-1.49694
1.4915
0.0349312
-0.0279018
-1.1975
1.19047
0.0215283
-0.0141597
-0.972741
0.965373
0.00749637
-0.000425413
-0.792306
0.785235
-0.00573074
0.011505
-0.616675
0.610901
-0.0152166
0.0176025
-0.424492
0.422106
-0.0172574
0.0147998
-0.242771
0.245229
-0.0118357
0.00824678
-0.109198
0.112787
-0.00512953
0.00232888
-0.0317964
0.0345971
-0.000678668
-0.0013239
0.00200257
-0.076475
0.074917
0.00155801
-0.00523976
0.00509549
-0.418868
0.419012
-0.00349755
0.00145853
-0.586945
0.588984
0.00251862
-0.00666325
-0.718627
0.722772
0.011666
-0.0161114
-0.837483
0.841928
0.0210793
-0.0256116
-0.959217
0.963749
0.0309248
-0.0351734
-1.0945
1.09875
0.0394623
-0.0430649
-1.24364
1.24724
0.046368
-0.0479549
-1.40583
1.40742
0.0482868
-0.0468185
-1.5796
1.57814
0.0438488
-0.0389791
-1.48612
1.48125
0.0340517
-0.0281717
-1.18367
1.17779
0.0225014
-0.0160346
-0.958262
0.951795
0.00969959
-0.00256487
-0.777346
0.770211
-0.00344024
0.009339
-0.602639
0.596741
-0.013096
0.0150873
-0.417323
0.415332
-0.0150126
0.0131093
-0.244547
0.24645
-0.0104953
0.00731106
-0.11482
0.118004
-0.00456697
0.00210948
-0.0364291
0.0388866
-0.000638958
-0.00244734
0.0030863
-0.0760285
0.0748158
0.00121271
-0.00414179
0.00410155
-0.422653
0.422694
-0.00266808
0.000730495
-0.594117
0.596055
0.00310573
-0.00683292
-0.727009
0.730737
0.0111492
-0.0154678
-0.84632
0.850639
0.0201165
-0.0248494
-0.968132
0.972865
0.029531
-0.0336858
-1.10314
1.1073
0.0381988
-0.0416524
-1.25077
1.25423
0.0446009
-0.0467367
-1.40898
1.41111
0.0474897
-0.0466687
-1.57689
1.57607
0.0443708
-0.0406949
-1.47691
1.47323
0.0366355
-0.0315626
-1.17192
1.16685
0.0265218
-0.020384
-0.945228
0.93909
0.0141951
-0.00727429
-0.762572
0.755652
0.00098625
0.00464501
-0.588949
0.583318
-0.00815536
0.0101964
-0.410834
0.408793
-0.0105424
0.0093092
-0.245671
0.246904
-0.00754097
0.00530915
-0.119312
0.121543
-0.00335859
0.00157011
-0.0402081
0.0419966
-0.000491329
-0.00340753
0.00389886
-0.0761105
0.0751029
0.00100763
-0.00287168
0.00257667
-0.426088
0.426383
-0.0012989
-0.000708774
-0.600701
0.602709
0.00422341
-0.00783457
-0.734838
0.738449
0.0119941
-0.0159401
-0.854748
0.858694
0.0207498
-0.024758
-0.977066
0.981074
0.0294733
-0.0335085
-1.11164
1.11568
0.0379707
-0.041679
-1.2577
1.26141
0.0449986
-0.0470495
-1.41308
1.41513
0.0483691
-0.0482616
-1.57535
1.57524
0.0469679
-0.0439642
-1.46969
1.46669
0.0405567
-0.035958
-1.162
1.1574
0.031212
-0.0251558
-0.932611
0.926555
0.0191632
-0.0122844
-0.748068
0.741189
0.00627029
-0.000702923
-0.576227
0.570659
-0.00289026
0.0048191
-0.404365
0.402436
-0.00551766
0.00510257
-0.245537
0.245952
-0.00425949
0.00299785
-0.121973
0.123235
-0.00190814
0.000938738
-0.0425971
0.0435665
-0.000309467
-0.0040544
0.00436387
-0.0764701
0.075773
0.000697117
-0.00174864
0.00104749
-0.429654
0.430356
1.05436e-05
-0.00231676
-0.606526
0.608832
0.00549987
-0.00900296
-0.742158
0.745661
0.0130082
-0.0171052
-0.862507
0.866604
0.0213424
-0.0255458
-0.985315
0.989519
0.0302636
-0.0341243
-1.12016
1.12402
0.0387054
-0.0424041
-1.26494
1.26864
0.0458466
-0.0485198
-1.41764
1.42031
0.0504928
-0.0508648
-1.57531
1.57568
0.0499905
-0.0477709
-1.46397
1.46175
0.0448517
-0.0404513
-1.15265
1.14825
0.0357526
-0.0300458
-0.920273
0.914567
0.0239481
-0.0176134
-0.733825
0.727491
0.0120538
-0.00680979
-0.564369
0.559125
0.00335824
-0.000916339
-0.397851
0.395409
-0.000222468
0.00074262
-0.244113
0.243593
-0.000798759
0.000662231
-0.122703
0.12284
-0.000523234
0.000326435
-0.0434683
0.0436651
-0.000138576
-0.00435488
0.00449345
-0.0772336
0.0766886
0.00054507
-0.000815671
0.000233737
-0.433455
0.434036
0.00159795
-0.00367274
-0.612624
0.614698
0.00701418
-0.0104145
-0.749015
0.752415
0.0142853
-0.0180082
-0.870382
0.874104
0.0223946
-0.0263083
-0.993746
0.99766
0.0309917
-0.0352881
-1.12833
1.13263
0.0395198
-0.0435587
-1.2724
1.27643
0.0474559
-0.0502866
-1.42293
1.42577
0.0527253
-0.0539449
-1.57634
1.57756
0.0535099
-0.0517983
-1.4594
1.45769
0.0489061
-0.0447378
-1.14378
1.13961
0.0402875
-0.0347072
-0.908366
0.902786
0.0291232
-0.0232137
-0.720588
0.714679
0.0181051
-0.0131018
-0.553186
0.548182
0.00950444
-0.00667595
-0.390989
0.388161
0.00470782
-0.00327428
-0.240944
0.23951
0.00222134
-0.00127281
-0.121348
0.120399
0.000583551
-0.000110688
-0.0428778
0.042405
-3.35618e-05
-0.00428465
0.00431821
-0.0782536
0.0778885
0.000365086
0.00019225
-0.00104023
-0.437336
0.438184
0.00268989
-0.00508294
-0.618281
0.620674
0.00837237
-0.0116354
-0.755676
0.758939
0.0156028
-0.0191904
-0.877812
0.8814
0.0234376
-0.0274801
-1.00206
1.0061
0.0320627
-0.0363145
-1.13678
1.14103
0.0407547
-0.0448201
-1.2804
1.28446
0.0489209
-0.0525222
-1.42891
1.43251
0.0554281
-0.0569141
-1.57874
1.58023
0.0570535
-0.055464
-1.4558
1.45421
0.0529231
-0.0490954
-1.13528
1.13146
0.0446371
-0.0393534
-0.896895
0.891612
0.0341651
-0.0285576
-0.708384
0.702777
0.0238541
-0.0189395
-0.542799
0.537885