/*--------------------------------*- C++ -*----------------------------------*\
| =========                 |                                                 |
| \\      /  F ield         | OpenFOAM: The Open Source CFD Toolbox           |
|  \\    /   O peration     | Version:  2112                                  |
|   \\  /    A nd           | Website:  www.openfoam.com                      |
|    \\/     M anipulation  |                                                 |
\*---------------------------------------------------------------------------*/
FoamFile
{
    version     2.0;
    format      ascii;
    arch        "LSB;label=32;scalar=64";
    class       volVectorField;
    location    "44.5";
    object      U;
}
// * * * * * * * * * * * * * * * * * * * * * * * * * * * * * * * * * * * * * //

dimensions      [0 1 -1 0 0 0 0];

internalField   nonuniform List<vector> 
8800
(
(0.980148 -0.0915211 0)
(1.00234 -0.0587257 0)
(0.999596 -0.0321262 0)
(0.999991 -0.0165177 0)
(1.00007 -0.00883378 0)
(1.00007 -0.00508656 0)
(1.00004 -0.00298952 0)
(1.00002 -0.00168689 0)
(0.999997 -0.000790516 0)
(1.00006 -9.6058e-05 0)
(0.999987 0.000607939 0)
(0.999995 0.0013583 0)
(1.00001 0.00238345 0)
(1.00002 0.00399323 0)
(1.00003 0.00674615 0)
(0.999986 0.0120495 0)
(0.999788 0.023095 0)
(0.99903 0.0431585 0)
(1.00723 0.0790273 0)
(0.775023 0.0478395 0)
(0.358979 -0.014749 0)
(1.04649 -0.0724909 0)
(1.08848 -0.0660291 0)
(1.04945 -0.0509239 0)
(1.02554 -0.0377045 0)
(1.01272 -0.0258974 0)
(1.00655 -0.0167076 0)
(1.00362 -0.010229 0)
(1.00218 -0.00560475 0)
(1.00151 -0.0020182 0)
(1.00138 0.00118974 0)
(1.00173 0.00449468 0)
(1.0027 0.00838274 0)
(1.00473 0.0137012 0)
(1.00896 0.0213918 0)
(1.01794 0.0318916 0)
(1.03578 0.0446654 0)
(1.0674 0.0581077 0)
(1.0947 0.0699647 0)
(0.845637 0.0555065 0)
(0.21777 -0.00138168 0)
(1.07566 -0.0506648 0)
(1.09941 -0.0489512 0)
(1.06438 -0.0400376 0)
(1.03988 -0.0325784 0)
(1.02377 -0.0253679 0)
(1.014 -0.0181623 0)
(1.0085 -0.0115493 0)
(1.00565 -0.00579785 0)
(1.00448 -0.000514794 0)
(1.00479 0.00458993 0)
(1.00664 0.0098745 0)
(1.01056 0.0158478 0)
(1.01787 0.0226162 0)
(1.03049 0.0297335 0)
(1.05048 0.0368257 0)
(1.08003 0.0446024 0)
(1.10565 0.0519297 0)
(0.943281 0.0410069 0)
(0.217209 0.00140469 0)
(0.176615 -0.000629284 0)
(1.01936 -0.0354772 0)
(1.10569 -0.0414318 0)
(1.07795 -0.0364213 0)
(1.05241 -0.0303801 0)
(1.03518 -0.0245104 0)
(1.02333 -0.0187284 0)
(1.01553 -0.0127409 0)
(1.01093 -0.00665466 0)
(1.0089 -0.000425338 0)
(1.00944 0.00572557 0)
(1.01252 0.0116356 0)
(1.01847 0.0174085 0)
(1.02805 0.0229998 0)
(1.04226 0.0285625 0)
(1.06308 0.0343507 0)
(1.09385 0.0402381 0)
(1.09443 0.0417669 0)
(0.830239 0.0227706 0)
(0.175655 0.000647573 0)
(0.154693 -0.000463155 0)
(0.958104 -0.0257074 0)
(1.10436 -0.035145 0)
(1.08804 -0.0327042 0)
(1.0612 -0.0282038 0)
(1.04315 -0.0232538 0)
(1.03078 -0.0179698 0)
(1.0222 -0.0124396 0)
(1.01666 -0.00654233 0)
(1.01402 -0.000103471 0)
(1.01467 0.00634502 0)
(1.01846 0.0122113 0)
(1.02523 0.017535 0)
(1.03537 0.0225576 0)
(1.05012 0.0273951 0)
(1.07206 0.0318467 0)
(1.10102 0.0357318 0)
(1.06972 0.0339487 0)
(0.742628 0.0144425 0)
(0.153258 0.000483679 0)
(0.139993 -0.000335278 0)
(0.901034 -0.0193473 0)
(1.09673 -0.0302629 0)
(1.09615 -0.0294014 0)
(1.06888 -0.0256341 0)
(1.05004 -0.0215666 0)
(1.0371 -0.0168863 0)
(1.02813 -0.0116542 0)
(1.02221 -0.00595115 0)
(1.01924 0.000387344 0)
(1.01987 0.00674945 0)
(1.02388 0.01239 0)
(1.0309 0.0173738 0)
(1.0414 0.0218649 0)
(1.05679 0.0258321 0)
(1.0796 0.0293613 0)
(1.10335 0.0320861 0)
(1.03799 0.0280958 0)
(0.675892 0.0102912 0)
(0.137976 0.000359621 0)
(0.129237 -0.000254035 0)
(0.851084 -0.0149555 0)
(1.08432 -0.0261769 0)
(1.10179 -0.0265457 0)
(1.07567 -0.0232428 0)
(1.05632 -0.0196084 0)
(1.04295 -0.0154377 0)
(1.03362 -0.0106026 0)
(1.02742 -0.00513445 0)
(1.02425 0.00100566 0)
(1.02478 0.00714 0)
(1.02881 0.0124949 0)
(1.03599 0.0170618 0)
(1.04678 0.0209479 0)
(1.06255 0.0243118 0)
(1.08581 0.0273759 0)
(1.10263 0.0292165 0)
(1.00341 0.0235345 0)
(0.623967 0.00788204 0)
(0.12651 0.000283612 0)
(0.121029 -0.000195331 0)
(0.808497 -0.0117735 0)
(1.06892 -0.0225949 0)
(1.10525 -0.0239443 0)
(1.08186 -0.0211084 0)
(1.06206 -0.0177135 0)
(1.04842 -0.0138312 0)
(1.03884 -0.00932499 0)
(1.03238 -0.00414425 0)
(1.02898 0.00175002 0)
(1.02937 0.00761013 0)
(1.03338 0.012608 0)
(1.04062 0.016722 0)
(1.05153 0.0201462 0)
(1.06755 0.0231118 0)
(1.09121 0.025859 0)
(1.09903 0.0267911 0)
(0.968481 0.0199298 0)
(0.582374 0.00630435 0)
(0.11744 0.000231286 0)
(0.114658 -0.000150821 0)
(0.772559 -0.00939212 0)
(1.05196 -0.0194391 0)
(1.10751 -0.0215318 0)
(1.08764 -0.0190843 0)
(1.06744 -0.0158552 0)
(1.05356 -0.0121553 0)
(1.04379 -0.00787779 0)
(1.03711 -0.00296169 0)
(1.03348 0.00265158 0)
(1.03368 0.00818584 0)
(1.03758 0.0127924 0)
(1.04477 0.0164935 0)
(1.05571 0.0195465 0)
(1.07197 0.022184 0)
(1.09536 0.0246007 0)
(1.09269 0.0247508 0)
(0.934571 0.0171204 0)
(0.54812 0.00521519 0)
(0.110018 0.000194711 0)
(0.109673 -0.000115748 0)
(0.74235 -0.00754623 0)
(1.0345 -0.0166395 0)
(1.10879 -0.0192699 0)
(1.09311 -0.0171493 0)
(1.07261 -0.0140343 0)
(1.05845 -0.0104506 0)
(1.0485 -0.00631585 0)
(1.04163 -0.00159305 0)
(1.03774 0.00373708 0)
(1.0377 0.00891739 0)
(1.0414 0.0131508 0)
(1.04847 0.0165034 0)
(1.05943 0.0192253 0)
(1.07595 0.021563 0)
(1.09828 0.0236184 0)
(1.084 0.023034 0)
(0.902312 0.0149502 0)
(0.519173 0.00444348 0)
(0.103757 0.000169107 0)
(0.105784 -8.68774e-05 0)
(0.717056 -0.0060589 0)
(1.01737 -0.0141206 0)
(1.10919 -0.017079 0)
(1.09843 -0.0152712 0)
(1.07766 -0.0121985 0)
(1.06322 -0.0086713 0)
(1.05306 -0.00462829 0)
(1.04596 -5.35982e-05 0)
(1.04178 0.00503837 0)
(1.04143 0.0098981 0)
(1.04488 0.0137681 0)
(1.05179 0.0167588 0)
(1.06274 0.0191551 0)
(1.07945 0.021228 0)
(1.09986 0.0228858 0)
(1.07335 0.0216124 0)
(0.871874 0.0132985 0)
(0.494097 0.00389584 0)
(0.0983154 0.000151781 0)
(0.102801 -6.18566e-05 0)
(0.696043 -0.00481034 0)
(1.00121 -0.0118165 0)
(1.10887 -0.0149143 0)
(1.10356 -0.0133201 0)
(1.08268 -0.0102326 0)
(1.06792 -0.00672002 0)
(1.05751 -0.0027322 0)
(1.05013 0.0017341 0)
(1.04561 0.0066115 0)
(1.04487 0.011152 0)
(1.04799 0.0146725 0)
(1.05471 0.017316 0)
(1.06565 0.0193801 0)
(1.08254 0.0211769 0)
(1.10051 0.0224288 0)
(1.0611 0.0205021 0)
(0.843168 0.0120756 0)
(0.471837 0.00351641 0)
(0.0934404 0.000141231 0)
(0.1006 -3.89346e-05 0)
(0.678844 -0.00370985 0)
(0.986458 -0.00964939 0)
(1.10803 -0.0127023 0)
(1.10846 -0.0112744 0)
(1.08773 -0.00818361 0)
(1.07261 -0.00462943 0)
(1.06189 -0.000613847 0)
(1.05417 0.00379908 0)
(1.04919 0.00850963 0)
(1.04799 0.0127591 0)
(1.05074 0.0159197 0)
(1.05723 0.0182042 0)
(1.06814 0.0199368 0)
(1.08514 0.0214577 0)
(1.10015 0.0223513 0)
(1.04745 0.0196999 0)
(0.815943 0.0112044 0)
(0.451588 0.00326548 0)
(0.0889368 0.000135985 0)
(0.0991184 -1.66972e-05 0)
(0.665156 -0.00269028 0)
(0.973498 -0.00755046 0)
(1.10695 -0.0103648 0)
(1.11321 -0.00901039 0)
(1.09286 -0.00587954 0)
(1.07737 -0.00223159 0)
(1.06629 0.00184432 0)
(1.05813 0.00623956 0)
(1.05262 0.0108195 0)
(1.05085 0.0147914 0)
(1.05315 0.0175921 0)
(1.05936 0.0195015 0)
(1.07019 0.0208651 0)
(1.08724 0.0220705 0)
(1.09867 0.022524 0)
(1.03254 0.0191635 0)
(0.789879 0.0106174 0)
(0.432714 0.00311359 0)
(0.0846508 0.000134573 0)
(0.098339 6.97053e-06 0)
(0.654836 -0.00169986 0)
(0.962661 -0.00545137 0)
(1.106 -0.00785228 0)
(1.11799 -0.00646735 0)
(1.09816 -0.00323689 0)
(1.08225 0.000557049 0)
(1.07073 0.00473695 0)
(1.06204 0.00916998 0)
(1.05587 0.0136338 0)
(1.05341 0.0172972 0)
(1.05516 0.0196972 0)
(1.06101 0.021179 0)
(1.07179 0.0221393 0)
(1.08883 0.0230429 0)
(1.09604 0.0230397 0)
(1.01647 0.0189505 0)
(0.764619 0.0102971 0)
(0.414698 0.00305228 0)
(0.0804586 0.000137581 0)
(0.0982923 2.90432e-05 0)
(0.647902 -0.000688231 0)
(0.954263 -0.00326623 0)
(1.10551 -0.00508849 0)
(1.12294 -0.00360961 0)
(1.10372 -0.000262306 0)
(1.08733 0.00374393 0)
(1.0753 0.00811991 0)
(1.06598 0.0126554 0)
(1.05901 0.0170543 0)
(1.0557 0.020437 0)
(1.05677 0.0224341 0)
(1.06219 0.0234722 0)
(1.07285 0.0239797 0)
(1.08968 0.0244582 0)
(1.09205 0.023926 0)
(0.999167 0.0190457 0)
(0.739771 0.0102086 0)
(0.397084 0.00306748 0)
(0.0762436 0.000143737 0)
(0.0990059 6.59295e-05 0)
(0.644463 0.000365224 0)
(0.948657 -0.000920497 0)
(1.1058 -0.00196725 0)
(1.12818 -0.000269231 0)
(1.1096 0.00327446 0)
(1.09271 0.00757496 0)
(1.08003 0.0121979 0)
(1.0699 0.0168795 0)
(1.06193 0.0212334 0)
(1.0576 0.0243015 0)
(1.05787 0.0258226 0)
(1.0628 0.0263362 0)
(1.07331 0.026355 0)
(1.08958 0.0263871 0)
(1.08653 0.0251889 0)
(0.980561 0.019471 0)
(0.714929 0.0103501 0)
(0.379448 0.00315774 0)
(0.0719017 0.000153128 0)
(0.100706 9.52956e-05 0)
(0.644883 0.00154714 0)
(0.946181 0.0016403 0)
(1.10736 0.00160095 0)
(1.13397 0.00365702 0)
(1.11593 0.00753716 0)
(1.09846 0.0121916 0)
(1.08502 0.0171223 0)
(1.07392 0.0220091 0)
(1.06472 0.0263277 0)
(1.05914 0.0290601 0)
(1.05844 0.0300378 0)
(1.06277 0.0299593 0)
(1.07308 0.0294054 0)
(1.08841 0.0289039 0)
(1.07935 0.0269234 0)
(0.960467 0.0202796 0)
(0.689628 0.0107274 0)
(0.361375 0.00332281 0)
(0.0673308 0.000165898 0)
(0.103438 0.000142584 0)
(0.649598 0.0030238 0)
(0.94732 0.00459051 0)
(1.11064 0.00567661 0)
(1.14051 0.00819788 0)
(1.12286 0.012527 0)
(1.1047 0.0176777 0)
(1.09035 0.0230642 0)
(1.07805 0.0282482 0)
(1.06735 0.0325509 0)
(1.06026 0.0348784 0)
(1.05839 0.0352461 0)
(1.06195 0.0345057 0)
(1.07201 0.0333285 0)
(1.08596 0.0321644 0)
(1.07028 0.0291996 0)
(0.938587 0.0214859 0)
(0.663393 0.0113451 0)
(0.342453 0.00356128 0)
(0.0624319 0.000181242 0)
(0.107486 0.000203725 0)
(0.659048 0.00471462 0)
(0.952551 0.00806485 0)
(1.11607 0.0105035 0)
(1.14796 0.0136839 0)
(1.13058 0.0186362 0)
(1.11165 0.0244081 0)
(1.09613 0.0303351 0)
(1.08232 0.0358554 0)
(1.06979 0.0401447 0)
(1.06086 0.0419982 0)
(1.05762 0.0416288 0)
(1.06026 0.0401117 0)
(1.06996 0.0382158 0)
(1.08206 0.0362939 0)
(1.05898 0.0321329 0)
(0.91458 0.0231948 0)
(0.635643 0.0122392 0)
(0.322229 0.0038795 0)
(0.0571072 0.00019947 0)
(0.113178 0.000286465 0)
(0.673922 0.00683202 0)
(0.962543 0.0122466 0)
(1.12432 0.0162656 0)
(1.15677 0.0203861 0)
(1.13931 0.0262213 0)
(1.11936 0.032739 0)
(1.10237 0.0393017 0)
(1.08668 0.0452049 0)
(1.07192 0.0493968 0)
(1.06083 0.050603 0)
(1.05596 0.0493483 0)
(1.05749 0.0469189 0)
(1.06673 0.0441975 0)
(1.07662 0.0414169 0)
(1.04513 0.0358949 0)
(0.887914 0.0254671 0)
(0.605714 0.0134173 0)
(0.300239 0.00426956 0)
(0.0512699 0.000218644 0)
(0.121021 0.000403856 0)
(0.695205 0.00958714 0)
(0.978079 0.0174196 0)
(1.13597 0.0232621 0)
(1.16747 0.0285346 0)
(1.14941 0.0354958 0)
(1.1281 0.0429727 0)
(1.10928 0.0503276 0)
(1.09127 0.0566445 0)
(1.07379 0.0606544 0)
(1.06015 0.0610615 0)
(1.05332 0.0587098 0)
(1.05355 0.0552338 0)
(1.06221 0.0515673 0)
(1.06937 0.0477966 0)
(1.02821 0.0406113 0)
(0.857958 0.0283905 0)
(0.572841 0.0149063 0)
(0.276004 0.00472275 0)
(0.0448691 0.000235996 0)
(0.131786 0.000578617 0)
(0.724172 0.0132867 0)
(1.00024 0.0240191 0)
(1.15168 0.0320227 0)
(1.18053 0.038754 0)
(1.16117 0.0471914 0)
(1.13803 0.0558778 0)
(1.11673 0.0641216 0)
(1.09572 0.0707366 0)
(1.07495 0.0743018 0)
(1.05838 0.0735971 0)
(1.04942 0.0699421 0)
(1.04826 0.0652566 0)
(1.05616 0.0604728 0)
(1.05997 0.0554672 0)
(1.00764 0.046479 0)
(0.823929 0.0321073 0)
(0.536095 0.0167403 0)
(0.24902 0.00522992 0)
(0.0378906 0.000249788 0)
(0.146689 0.00085295 0)
(0.762708 0.0185721 0)
(1.0306 0.0328209 0)
(1.17243 0.0434967 0)
(1.19676 0.0522424 0)
(1.17504 0.0625193 0)
(1.1493 0.072511 0)
(1.12472 0.0814658 0)
(1.10004 0.0880381 0)
(1.07543 0.0907107 0)
(1.05552 0.0884852 0)
(1.04418 0.0832115 0)
(1.04154 0.0771304 0)
(1.04842 0.0710553 0)
(1.04785 0.0648168 0)
(0.982732 0.0536903 0)
(0.784847 0.0366877 0)
(0.494457 0.0188903 0)
(0.218867 0.00575721 0)
(0.0303658 0.000258109 0)
(0.167851 0.00132538 0)
(0.81386 0.0266038 0)
(1.07177 0.0453805 0)
(1.19941 0.0594579 0)
(1.21694 0.0709606 0)
(1.1911 0.0829628 0)
(1.16156 0.09405 0)
(1.13271 0.103237 0)
(1.10359 0.109159 0)
(1.0746 0.110274 0)
(1.0511 0.105965 0)
(1.03727 0.0986759 0)
(1.03312 0.0909491 0)
(1.03874 0.0836811 0)
(1.03262 0.075981 0)
(0.952552 0.0622687 0)
(0.739617 0.0420545 0)
(0.447094 0.0212204 0)
(0.185499 0.00623781 0)
(0.0224284 0.000257691 0)
(0.198624 0.00237735 0)
(0.88321 0.0401457 0)
(1.12692 0.0655602 0)
(1.23297 0.0833847 0)
(1.24083 0.097553 0)
(1.20878 0.110719 0)
(1.17408 0.122041 0)
(1.14004 0.130453 0)
(1.10583 0.13469 0)
(1.0721 0.133292 0)
(1.04488 0.126171 0)
(1.02857 0.11648 0)
(1.02291 0.106921 0)
(1.0269 0.0983142 0)
(1.01368 0.0887786 0)
(0.915932 0.0719052 0)
(0.687249 0.0478118 0)
(0.394165 0.0235101 0)
(0.149968 0.00661549 0)
(0.0144891 0.000242077 0)
(0.240532 0.00859327 5.01879e-20)
(0.974762 0.0673468 4.37509e-20)
(1.19374 0.0995865 -1.52437e-20)
(1.27009 0.118969 0)
(1.26567 0.135725 -3.83434e-34)
(1.22612 0.148278 5.59089e-21)
(1.1855 0.158176 -9.99008e-21)
(1.14565 0.164468 0)
(1.10589 0.165957 2.03136e-34)
(1.06702 0.161272 -1.2175e-20)
(1.03576 0.150884 0)
(1.01671 0.138642 -1.43594e-20)
(1.00934 0.127285 -4.22877e-20)
(1.01134 0.117528 -1.99627e-20)
(0.988702 0.10636 -5.99683e-21)
(0.868523 0.0851635 -3.56162e-21)
(0.621738 0.0552562 0)
(0.333094 0.0263677 2.49473e-21)
(0.112988 0.00755805 2.94649e-21)
(0.00700311 0.000371616 5.30314e-20)
(0.269762 0.023983 3.77153e-20)
(1.05013 0.109916 5.21603e-22)
(1.24839 0.148295 4.11704e-21)
(1.30355 0.167782 0)
(1.28747 0.184318 -1.96672e-20)
(1.24101 0.194824 -2.22388e-20)
(1.19441 0.202523 -1.01369e-20)
(1.14851 0.20639 -3.58383e-20)
(1.10279 0.205076 0)
(1.05808 0.197141 5.19996e-20)
(1.02182 0.183518 5.14125e-20)
(0.999283 0.16863 1.52598e-20)
(0.989547 0.155232 5.54409e-20)
(0.986743 0.143515 7.77106e-20)
(0.950876 0.129135 0)
(0.805595 0.102051 1.09549e-19)
(0.545326 0.0644302 1.57295e-19)
(0.269884 0.0298804 1.74787e-19)
(0.0783989 0.00832022 -1.99936e-19)
(0.000192119 0.000120456 -3.75419e-21)
(0.270709 0.03968 0)
(1.0976 0.165213 6.88446e-21)
(1.28518 0.208292 0)
(1.3296 0.227392 -2.62875e-20)
(1.30456 0.240797 0)
(1.25223 0.247592 -4.40556e-20)
(1.19997 0.251666 2.08134e-20)
(1.14832 0.252032 -7.25205e-20)
(1.09692 0.247202 -1.56373e-21)
(1.04664 0.235706 2.70282e-20)
(1.00556 0.218952 1.13275e-19)
(0.979454 0.2017 -2.91092e-22)
(0.967018 0.186399 -4.03562e-20)
(0.959514 0.172355 -7.3502e-20)
(0.915326 0.154188 8.70596e-20)
(0.760636 0.120549 -1.54169e-19)
(0.503971 0.075282 -2.03897e-20)
(0.244872 0.0350887 0)
(0.068529 0.00961339 -9.90934e-25)
(-0.00165692 -0.000201833 0)
(0.264478 0.0533113 9.51941e-20)
(1.12313 0.223865 -4.57431e-20)
(1.30808 0.27297 -3.42076e-20)
(1.34683 0.292189 1.25807e-20)
(1.31551 0.301633 -2.11098e-20)
(1.25868 0.304063 9.26571e-20)
(1.20173 0.303838 4.3616e-20)
(1.14514 0.300154 0)
(1.0887 0.291413 -1.36345e-19)
(1.03332 0.276043 0)
(0.987741 0.255789 -5.96662e-20)
(0.95812 0.235792 -7.34012e-20)
(0.942527 0.218419 -4.407e-20)
(0.931051 0.202443 -5.3509e-20)
(0.882882 0.181255 0)
(0.729363 0.141892 0)
(0.485166 0.090219 -1.33392e-19)
(0.243001 0.0440466 2.63952e-20)
(0.0720106 0.0128386 -1.5454e-20)
(-0.000850557 -0.000158064 -1.80701e-20)
(0.25723 0.0654304 -4.16942e-20)
(1.13439 0.282427 0)
(1.3208 0.338679 7.18771e-20)
(1.35619 0.358375 3.59321e-20)
(1.32038 0.363916 4.85803e-20)
(1.26022 0.361939 0)
(1.19961 0.357383 4.29836e-20)
(1.13898 0.349578 8.06927e-20)
(1.07819 0.336786 7.00948e-20)
(1.01818 0.317242 1.27738e-19)
(0.968331 0.293048 0)
(0.935416 0.270055 -1.58647e-19)
(0.917216 0.250848 -9.54475e-20)
(0.903055 0.233841 -5.63787e-20)
(0.852419 0.210089 3.46542e-19)
(0.705524 0.166008 4.12973e-20)
(0.478292 0.108717 1.94322e-19)
(0.251045 0.0560951 -9.19106e-19)
(0.0825873 0.0183876 5.4497e-19)
(0.00216807 0.000492361 -6.56805e-19)
(0.250399 0.076428 -2.44148e-20)
(1.13661 0.339061 7.72793e-21)
(1.32606 0.403474 -8.19987e-21)
(1.3592 0.424039 -3.78353e-20)
(1.32012 0.425941 -4.18924e-20)
(1.25746 0.419744 1.77545e-21)
(1.19398 0.411113 -4.65776e-20)
(1.13004 0.399345 8.37325e-20)
(1.06547 0.382538 -1.51e-19)
(1.00124 0.35878 0)
(0.947446 0.330854 -7.19983e-20)
(0.911614 0.305463 -1.61461e-21)
(0.891364 0.285105 -1.04489e-19)
(0.874903 0.266948 0)
(0.822746 0.239651 -7.51579e-20)
(0.684717 0.191547 -1.78791e-19)
(0.475568 0.129287 4.78908e-19)
(0.261655 0.0704924 -4.71307e-19)
(0.0948217 0.0256926 6.69382e-19)
(0.00592015 0.00167121 -6.95552e-19)
(0.244777 0.0866569 -4.10836e-22)
(1.13326 0.393115 -3.90794e-21)
(1.32589 0.466362 -2.4687e-20)
(1.35722 0.488049 1.57694e-20)
(1.31576 0.48671 -2.12095e-20)
(1.25123 0.476634 0)
(1.18548 0.464257 -4.37354e-20)
(1.11876 0.448749 -8.78057e-20)
(1.05086 0.428066 -7.86209e-20)
(0.982868 0.40033 0)
(0.925637 0.369273 -7.48517e-20)
(0.887294 0.342169 -9.24715e-20)
(0.865004 0.320676 1.13385e-19)
(0.845693 0.300286 -6.8876e-20)
(0.792343 0.269096 -3.28233e-19)
(0.664625 0.217568 1.95837e-19)
(0.472174 0.151135 5.86612e-20)
(0.270275 0.0860932 0)
(0.105539 0.0339273 -6.47682e-19)
(0.0094565 0.00316006 -2.37517e-20)
(0.240428 0.0964266 -2.88743e-22)
(1.12659 0.444392 1.41423e-21)
(1.32179 0.526861 1.18965e-20)
(1.35148 0.549731 5.54906e-20)
(1.30819 0.545592 -7.92679e-20)
(1.24232 0.532069 9.02454e-20)
(1.17475 0.516282 9.41217e-20)
(1.10563 0.497261 -1.40304e-19)
(1.03481 0.472907 4.82352e-20)
(0.96355 0.441541 -3.1442e-19)
(0.903403 0.407778 -8.45077e-20)
(0.862811 0.378906 0)
(0.838144 0.355443 1.22895e-19)
(0.815559 0.331791 1.472e-19)
(0.761807 0.297032 1.76434e-19)
(0.643918 0.243081 -2.12743e-19)
(0.465954 0.17295 -6.29862e-20)
(0.274409 0.101617 7.40458e-20)
(0.112723 0.0420393 0)
(0.0120937 0.00464902 -5.15057e-20)
(0.237222 0.105888 -1.96907e-20)
(1.11816 0.492987 5.50168e-21)
(1.31512 0.585253 -1.10002e-20)
(1.34298 0.608761 3.42393e-20)
(1.29823 0.602209 -3.62637e-20)
(1.23138 0.585641 -4.05503e-21)
(1.16232 0.566772 -1.02637e-19)
(1.09112 0.544475 -5.07039e-20)
(1.01774 0.516692 -1.36486e-19)
(0.943655 0.482017 2.50466e-22)
(0.880974 0.445561 -2.64573e-19)
(0.838187 0.414248 2.22569e-19)
(0.810787 0.387808 -1.34804e-19)
(0.784961 0.360479 1.62007e-19)
(0.731728 0.322761 0)
(0.622507 0.266711 -1.15135e-19)
(0.456466 0.193188 -3.90897e-22)
(0.273729 0.11563 -3.22052e-19)
(0.115634 0.0490069 -4.74154e-20)
(0.0135972 0.00586313 0)
(0.235011 0.115157 0)
(1.1089 0.5391 9.44155e-21)
(1.3065 0.640717 -1.20102e-20)
(1.3325 0.664984 -3.18175e-20)
(1.28654 0.656332 -4.52291e-20)
(1.21896 0.63709 0)
(1.14867 0.615418 -4.70224e-20)
(1.07564 0.590091 -1.1418e-21)
(1.00001 0.559169 2.9217e-19)
(0.923441 0.52141 -4.3181e-20)
(0.858387 0.481977 -1.90864e-19)
(0.81333 0.447468 1.1577e-19)
(0.783113 0.41745 -2.12112e-21)
(0.754523 0.386718 1.72044e-19)
(0.70222 0.346733 1.06239e-19)
(0.599831 0.288714 -2.4844e-19)
(0.443821 0.211371 2.94501e-19)
(0.268414 0.127393 8.7113e-20)
(0.114472 0.0542246 3.59124e-19)
(0.0140373 0.00667042 -9.60904e-19)
(0.233722 0.12436 -1.24478e-20)
(1.0994 0.582907 1.31385e-20)
(1.29681 0.693287 -5.89667e-21)
(1.32067 0.71836 2.57528e-20)
(1.27368 0.707833 0)
(1.20553 0.686232 -4.21472e-20)
(1.13417 0.662013 1.57238e-19)
(1.05956 0.633921 1.11045e-19)
(0.981939 0.600165 0)
(0.903059 0.559476 -6.20272e-19)
(0.835624 0.516723 5.15226e-19)
(0.788226 0.478495 0)
(0.755387 0.44476 1.5701e-19)
(0.724702 0.411081 -2.08666e-21)
(0.673439 0.369152 -3.38593e-19)
(0.576148 0.308491 1.32719e-19)
(0.427837 0.226691 0)
(0.258747 0.13627 4.69313e-19)
(0.10991 0.0572857 0)
(0.0134189 0.00692124 -4.53835e-19)
(0.233165 0.133558 1.67079e-20)
(1.09013 0.624503 2.20633e-20)
(1.28621 0.74303 -4.56474e-21)
(1.30799 0.768869 0)
(1.26008 0.756673 -3.9105e-20)
(1.19147 0.732973 0)
(1.11919 0.706437 -1.55686e-19)
(1.04318 0.675867 -5.18469e-20)
(0.963763 0.639595 5.15439e-20)
(0.882644 0.596104 -3.06562e-19)
(0.81271 0.549796 5.32067e-20)
(0.762911 0.507616 0)
(0.727753 0.470248 -3.34856e-19)
(0.695552 0.433876 2.08368e-21)
(0.645129 0.389747 0)
(0.551448 0.325688 1.88295e-21)
(0.408793 0.238671 4.2783e-19)
(0.245253 0.141851 -4.05009e-19)
(0.102414 0.0582758 1.19282e-19)
(0.0120583 0.00672788 0)
(0.233014 0.142603 0)
(1.08125 0.664018 2.98741e-20)
(1.27509 0.790098 1.42815e-20)
(1.29484 0.816538 -2.42316e-21)
(1.24607 0.802856 -1.37656e-20)
(1.17707 0.777273 -9.41754e-20)
(1.104 0.748651 5.80532e-20)
(1.02675 0.715902 -6.07991e-20)
(0.945693 0.677425 2.29378e-19)
(0.862315 0.631287 -4.88998e-19)
(0.789714 0.581359 -3.53801e-21)
(0.737449 0.535209 -1.46822e-19)
(0.700232 0.494323 5.42516e-19)
(0.666879 0.455273 -2.435e-21)
(0.616925 0.408432 -2.61764e-19)
(0.525536 0.340211 -4.67957e-19)
(0.387137 0.247341 0)
(0.228488 0.144151 0)
(0.0926338 0.0572047 1.28806e-19)
(0.0102741 0.00615278 -7.54653e-20)
(0.233402 0.151641 2.73189e-20)
(1.07277 0.701314 -7.15986e-20)
(1.26377 0.834552 -1.56002e-20)
(1.28149 0.86146 0)
(1.23193 0.846423 -1.57442e-21)
(1.1626 0.81914 -8.69366e-20)
(1.08884 0.788664 1.40674e-19)
(1.01052 0.754038 2.39913e-19)
(0.927903 0.713669 2.97913e-19)
(0.842211 0.665078 -3.99073e-19)
(0.766756 0.611637 -4.41007e-19)
(0.711907 0.561621 3.9233e-19)
(0.672786 0.517258 0)
(0.638461 0.475317 -1.18712e-19)
(0.588623 0.425181 -2.82969e-19)
(0.498485 0.352011 -3.35651e-19)
(0.36309 0.252501 -3.9833e-19)
(0.209079 0.143153 1.17754e-19)
(0.081007 0.0540546 -6.92748e-20)
(0.00810678 0.00518817 2.53759e-22)
(0.23387 0.160557 0)
(1.06486 0.736877 0)
(1.25239 0.876496 2.60104e-21)
(1.26813 0.903733 0)
(1.21785 0.887458 3.20894e-20)
(1.14823 0.858629 5.95445e-20)
(1.07391 0.826517 0)
(0.994633 0.790313 2.85624e-20)
(0.910545 0.74835 4.96577e-19)
(0.822479 0.697556 -9.16478e-19)
(0.743978 0.640855 0)
(0.686367 0.587138 -2.5199e-19)
(0.645327 0.53922 -2.95694e-21)
(0.610065 0.49397 -2.36967e-21)
(0.560083 0.439788 3.01932e-19)
(0.47044 0.360769 -3.45158e-22)
(0.336705 0.253899 -8.56549e-19)
(0.18756 0.138772 2.53088e-19)
(0.0686357 0.0492618 7.47813e-20)
(0.00584331 0.00398356 0)
(0.234357 0.169292 -1.1902e-19)
(1.05725 0.770716 -5.40796e-20)
(1.24103 0.915991 -6.10787e-20)
(1.2549 0.943459 3.03746e-20)
(1.20398 0.926026 4.09295e-20)
(1.13414 0.895809 0)
(1.05934 0.862281 8.50848e-20)
(0.979239 0.824777 -6.33783e-20)
(0.893743 0.781505 3.85223e-21)
(0.80327 0.72881 6.73552e-20)
(0.721534 0.669203 5.6965e-19)
(0.660907 0.611997 -8.83579e-20)
(0.617763 0.56037 -3.33258e-19)
(0.58142 0.511189 -1.37911e-19)
(0.531078 0.451973 1.64089e-19)
(0.441521 0.3661 -1.58744e-22)
(0.309153 0.251406 2.30621e-19)
(0.165305 0.131485 -5.43947e-19)
(0.0562432 0.0432776 6.4296e-19)
(0.00364134 0.0026576 9.37521e-20)
(0.234701 0.177728 4.66761e-20)
(1.04996 0.802941 -3.15235e-20)
(1.22982 0.953147 6.25831e-21)
(1.24191 0.980762 2.84557e-20)
(1.19044 0.962236 -1.90326e-21)
(1.12043 0.93076 -1.03818e-19)
(1.04527 0.896025 2.4904e-20)
(0.964441 0.857472 -2.6405e-19)
(0.87761 0.813155 -5.46136e-19)
(0.784718 0.758892 -5.45196e-19)
(0.69959 0.696825 0)
(0.635625 0.636399 -3.86911e-19)
(0.590009 0.580903 4.79382e-19)
(0.552196 0.52699 0)
(0.50127 0.461425 -3.50967e-19)
(0.411812 0.36749 2.09734e-19)
(0.281211 0.244792 -2.47579e-19)
(0.143598 0.121719 -2.92489e-19)
(0.0447296 0.0366691 -5.17517e-19)
(0.00167453 0.00134522 -4.03449e-19)
(0.235357 0.186005 -5.42235e-20)
(1.04286 0.83353 3.37619e-20)
(1.21879 0.988031 7.4615e-20)
(1.22923 1.01572 4.70825e-20)
(1.1773 0.996182 7.81599e-21)
(1.10719 0.963582 -5.60756e-20)
(1.03176 0.927824 8.27501e-20)
(0.950314 0.888456 -2.71136e-19)
(0.862221 0.843338 -3.22963e-19)
(0.766945 0.787854 5.69698e-19)
(0.678298 0.72382 1.24821e-18)
(0.610641 0.660517 0)
(0.562016 0.601053 0)
(0.52202 0.541536 -1.5862e-19)
(0.470083 0.467863 0)
(0.381159 0.364059 4.51039e-19)
(0.253947 0.233314 5.32392e-19)
(0.124336 0.109634 0)
(0.0353552 0.0300285 0)
(9.66218e-05 0.000223818 4.33274e-19)
(0.235646 0.19382 6.32838e-20)
(1.03598 0.862483 5.07075e-20)
(1.208 1.02076 5.50369e-20)
(1.2169 1.04847 -5.20895e-20)
(1.16463 1.02797 8.36647e-22)
(1.09447 0.994365 5.76508e-20)
(1.01889 0.957755 -1.13363e-19)
(0.936915 0.917767 -2.92773e-23)
(0.847647 0.872071 -4.99721e-21)
(0.750053 0.815718 -5.28038e-21)
(0.657826 0.750248 6.42208e-19)
(0.586113 0.68449 0)
(0.533821 0.621098 4.83519e-19)
(0.490551 0.555167 3.37826e-19)
(0.436614 0.471295 8.17558e-19)
(0.348776 0.354672 2.42537e-19)
(0.228282 0.214826 -2.86715e-19)
(0.111263 0.0932173 -1.68376e-19)
(0.0329955 0.0225672 0)
(0.000464512 -0.000138162 4.65253e-19)
(0.23623 0.20163 -1.46028e-19)
(1.0293 0.889895 0)
(1.19746 1.0514 6.84309e-20)
(1.20496 1.07908 -4.68306e-20)
(1.15247 1.05771 1.07198e-20)
(1.08232 1.02321 -6.14176e-20)
(1.00668 0.985887 2.19949e-19)
(0.924271 0.945448 -2.22685e-20)
(0.833929 0.89937 0)
(0.734126 0.842474 -6.27339e-19)
(0.638325 0.776121 -1.39382e-18)
(0.562235 0.708433 5.68581e-20)
(0.505583 0.641315 6.64778e-19)
(0.4576 0.568402 0)
(0.399732 0.472362 5.50872e-19)
(0.312394 0.338692 0)
(0.202402 0.18489 0)
(0.10783 0.0603822 -1.82198e-19)
(0.0575007 0.00324241 0)
(0.0276364 0.0113817 1.24635e-19)
(0.236433 0.208829 -1.66013e-19)
(1.0228 0.916119 0)
(1.18716 1.08014 1.16895e-19)
(1.19336 1.1078 0)
(1.14078 1.08565 -1.03467e-20)
(1.07069 1.0504 0)
(0.995081 1.01254 1.08836e-20)
(0.912289 0.971838 3.70893e-20)
(0.820955 0.925603 4.0312e-20)
(0.719021 0.868522 -6.87396e-19)
(0.619655 0.801873 4.18289e-20)
(0.538829 0.732934 4.56537e-19)
(0.476986 0.66239 6.47643e-19)
(0.422422 0.582059 8.72863e-20)
(0.357578 0.472684 4.31072e-19)
(0.267412 0.317516 0)
(0.164904 0.141293 6.04856e-19)
(0.0858691 0.00486869 -3.54337e-19)
(0.0434498 0.044626 4.1066e-19)
(-0.0691272 0.433007 -4.84302e-19)
(0.236616 0.215818 1.39131e-19)
(1.01623 0.940943 2.10386e-19)
(1.17702 1.10731 0)
(1.18198 1.13505 5.16338e-21)
(1.12937 1.11238 3.7735e-20)
(1.05932 1.07664 6.99255e-20)
(0.983787 1.03852 7.60065e-20)
(0.900578 0.997878 0)
(0.808215 0.951861 2.67513e-19)
(0.704092 0.895151 -3.59124e-20)
(0.600919 0.828938 0)
(0.514728 0.759691 0)
(0.446425 0.686018 5.78441e-19)
(0.383118 0.59735 -2.69315e-19)
(0.307114 0.474699 -4.35508e-19)
(0.208932 0.29588 0)
(0.095781 0.135157 3.04522e-19)
(0.00580492 0.438625 -3.52715e-19)
(0.0346542 1.8832 -1.93494e-19)
(0.0642518 2.80784 -2.4715e-19)
(0.236632 0.221966 -1.06392e-19)
(1.0098 0.964547 -2.73648e-19)
(1.16706 1.13289 7.16204e-20)
(1.17079 1.1607 5.35221e-20)
(1.11829 1.13766 0)
(1.04826 1.10163 3.70224e-20)
(0.972989 1.06351 1.03266e-19)
(0.889316 1.02314 -1.79238e-20)
(0.795969 0.977631 3.9815e-20)
(0.689714 0.921761 6.54006e-19)
(0.582717 0.85667 7.01824e-19)
(0.490897 0.788314 5.08617e-19)
(0.414869 0.71208 5.79942e-19)
(0.341454 0.613086 -6.29603e-19)
(0.254256 0.481426 -6.55589e-19)
(0.138123 0.327512 0)
(0.0481723 0.829584 0)
(0.104422 2.5472 1.68278e-19)
(0.10534 3.19837 0)
(0.108341 3.38691 4.03198e-19)
(0.239199 0.22758 0)
(1.00413 0.987115 0)
(1.15704 1.15674 0)
(1.15957 1.18453 1.72467e-20)
(1.10723 1.16128 3.73637e-20)
(1.03731 1.12526 1.31816e-20)
(0.962582 1.08741 6.60388e-20)
(0.878459 1.04751 -1.74716e-20)
(0.784184 1.00278 3.33442e-19)
(0.675923 0.94822 -9.60629e-21)
(0.565206 0.884969 1.38401e-18)
(0.467705 0.81866 -5.84344e-20)
(0.382645 0.741509 7.01051e-20)
(0.299964 0.626768 9.07348e-20)
(0.191864 0.497953 -3.24778e-21)
(0.106669 0.962633 1.81883e-21)
(0.144455 2.71065 -8.78404e-19)
(0.153813 3.29068 -3.31434e-19)
(0.141882 3.42617 1.72195e-19)
(0.128258 3.44864 -1.91682e-19)
(0.156928 0.183998 6.44399e-20)
(0.993089 1.01139 0)
(1.14667 1.1791 -1.5043e-19)
(1.14889 1.20701 -1.50871e-19)
(1.09701 1.18405 1.05781e-19)
(1.02739 1.14821 -8.27167e-21)
(0.952537 1.11028 -6.75179e-20)
(0.868134 1.07111 1.94344e-19)
(0.77305 1.02744 -2.72754e-19)
(0.663027 0.974664 0)
(0.548791 0.914037 6.79301e-19)
(0.445755 0.850612 -4.13764e-19)
(0.350228 0.777327 0)
(0.255414 0.642277 8.41835e-20)
(0.156845 0.789926 2.01602e-19)
(0.15921 2.47841 -2.38277e-19)
(0.219675 3.32331 2.68218e-19)
(0.198371 3.44072 1.44861e-19)
(0.164592 3.46228 1.63883e-19)
(0.142151 3.47254 2.60717e-19)
(0.282315 0.266146 -1.16484e-19)
(0.977749 1.02119 0)
(1.1283 1.20424 1.6672e-19)
(1.13421 1.23928 1.74515e-19)
(1.08026 1.21707 -1.28367e-19)
(1.01018 1.18162 -1.64072e-20)
(0.93454 1.14539 6.23277e-20)
(0.849733 1.10757 1.51836e-20)
(0.753289 1.06589 2.60121e-19)
(0.640356 1.01646 5.63365e-19)
(0.520841 0.961439 3.83137e-20)
(0.408465 0.904298 3.666e-19)
(0.292745 0.832104 6.52124e-20)
(0.217169 0.960667 -8.25533e-20)
(0.233331 2.32812 -1.89086e-19)
(0.295769 3.32706 1.82089e-19)
(0.278866 3.47172 -2.01647e-19)
(0.242961 3.49326 -1.16877e-19)
(0.205226 3.52072 -9.84833e-20)
(0.153363 3.5143 -1.16118e-20)
(0.270187 0.262967 0)
(0.975315 1.04385 5.06855e-20)
(1.12017 1.22765 -3.51904e-20)
(1.12408 1.26277 -2.16847e-20)
(1.06991 1.24025 -9.37827e-20)
(0.999948 1.205 2.16787e-20)
(0.924062 1.16903 -3.17167e-20)
(0.839123 1.13207 1.35998e-20)
(0.742177 1.09173 -2.7077e-19)
(0.628016 1.04483 -1.41129e-20)
(0.506018 0.994181 -1.22487e-18)
(0.389637 0.942376 5.21112e-20)
(0.281613 0.900297 -6.1538e-20)
(0.2579 1.48555 -7.63546e-20)
(0.333374 3.09436 1.7797e-20)
(0.354713 3.47003 7.55816e-22)
(0.31387 3.52685 2.90679e-19)
(0.276136 3.55256 1.41781e-19)
(0.227073 3.57595 -3.42952e-20)
(0.167636 3.57171 -5.38533e-20)
(0.253758 0.261305 1.3078e-19)
(0.971269 1.06914 3.4869e-19)
(1.11155 1.2532 -1.0142e-19)
(1.11336 1.28766 -8.19997e-20)
(1.05901 1.26478 0)
(0.989293 1.22956 6.32732e-20)
(0.913455 1.19393 -3.06246e-20)
(0.828648 1.15779 1.19071e-20)
(0.731512 1.11887 -3.00812e-20)
(0.616642 1.07472 -5.0885e-19)
(0.492957 1.02875 -5.64577e-19)
(0.374348 0.982775 -4.27945e-19)
(0.281727 1.03033 -4.64323e-19)
(0.326232 2.18536 4.79414e-19)
(0.419669 3.3775 4.01347e-19)
(0.398746 3.52887 0)
(0.352721 3.57328 0)
(0.314404 3.6141 -2.63018e-20)
(0.262698 3.67465 0)
(0.179656 3.6504 -2.7281e-20)
(0.242847 0.263096 -1.98607e-19)
(0.965235 1.09549 -2.99445e-19)
(1.10149 1.27993 0)
(1.10129 1.31334 6.13891e-21)
(1.04686 1.28992 -1.10644e-19)
(0.977521 1.25462 1.16612e-19)
(0.902073 1.21939 -1.06172e-20)
(0.817592 1.18396 6.88516e-21)
(0.720497 1.14636 -1.91434e-19)
(0.605315 1.10492 2.55115e-20)