/*--------------------------------*- C++ -*----------------------------------*\
| =========                 |                                                 |
| \\      /  F ield         | OpenFOAM: The Open Source CFD Toolbox           |
|  \\    /   O peration     | Version:  2112                                  |
|   \\  /    A nd           | Website:  www.openfoam.com                      |
|    \\/     M anipulation  |                                                 |
\*---------------------------------------------------------------------------*/
FoamFile
{
    version     2.0;
    format      ascii;
    arch        "LSB;label=32;scalar=64";
    class       volScalarField;
    location    "1";
    object      Ma;
}
// * * * * * * * * * * * * * * * * * * * * * * * * * * * * * * * * * * * * * //

dimensions      [0 0 0 0 0 0 0];

internalField   nonuniform List<scalar> 
7000
(
3.00001
3.00001
3
3
3
3
3
3
3
3
3
3
2.99997
2.99985
2.99954
2.99846
2.99693
2.99127
2.98299
2.96013
2.90893
2.77274
2.44601
1.76653
0.806477
0.338629
0.335819
0.356304
0.362303
0.348039
0.324302
0.299719
0.283951
0.272223
0.260103
0.246866
0.232382
0.216681
0.200288
0.183885
0.166478
0.148999
0.132265
0.115845
0.100455
0.0853808
0.0684366
0.0529868
0.0376446
0.0209763
3.00001
3.00001
3
3
3
3
3
3
3
3
3
3
2.99997
2.99985
2.99955
2.99852
2.99705
2.99165
2.98375
2.96234
2.91194
2.78388
2.45988
1.81176
0.82917
0.343615
0.3267
0.348389
0.356784
0.345296
0.323516
0.299731
0.283731
0.271017
0.257581
0.243067
0.227633
0.211469
0.195104
0.178869
0.161652
0.144484
0.127895
0.111542
0.0962551
0.0811946
0.0646927
0.0508152
0.0386792
0.0300706
3.00001
3.00001
3
3
3
3
3
3
3
3
3
3
2.99997
2.99985
2.99956
2.99857
2.99715
2.99192
2.98427
2.96379
2.91405
2.79029
2.46927
1.83699
0.847334
0.350051
0.319045
0.343217
0.354343
0.344755
0.324005
0.300549
0.284515
0.271483
0.257625
0.242709
0.226977
0.210671
0.194384
0.17821
0.161094
0.144202
0.12785
0.111807
0.0970517
0.0826888
0.0678107
0.0569653
0.048986
0.045476
3.00001
3
3
3
3
3
3
3
3
3
3
3
2.99997
2.99985
2.99958
2.99862
2.99726
2.99226
2.98493
2.96534
2.91722
2.79895
2.48426
1.87469
0.875443
0.364665
0.315096
0.34224
0.356634
0.348916
0.32887
0.305354
0.288805
0.274914
0.260119
0.244467
0.228324
0.211929
0.195809
0.179831
0.162958
0.146463
0.130559
0.115168
0.101329
0.088119
0.0753118
0.0671578
0.0618655
0.0604695
3.00001
3.00001
3
3
3
3
3
3
3
3
3
3
2.99997
2.99985
2.99959
2.99869
2.99739
2.99262
2.98562
2.96701
2.92081
2.80732
2.50267
1.91386
0.910788
0.38397
0.310202
0.341398
0.35995
0.354216
0.334974
0.311529
0.294802
0.280413
0.264943
0.248697
0.232179
0.215665
0.199644
0.18382
0.167228
0.151207
0.135873
0.121286
0.108509
0.0965903
0.0857968
0.0797205
0.0761079
0.0755544
3.00001
3.00001
3
3
3
3
3
3
3
3
3
3
2.99998
2.99986
2.99961
2.99876
2.99754
2.993
2.98644
2.96881
2.92472
2.81732
2.52387
1.96031
0.956081
0.409308
0.304307
0.341788
0.365924
0.362354
0.343691
0.319792
0.302469
0.287379
0.271219
0.25448
0.237774
0.221329
0.205564
0.190024
0.17384
0.158385
0.143709
0.130017
0.118298
0.107626
0.0985361
0.0939213
0.0913068
0.0910599
3.00001
3.00001
3
3
3
3
3
3
3
3
3
3
2.99998
2.99987
2.99964
2.99884
2.99771
2.99344
2.98736
2.97047
2.92978
2.82833
2.55069
2.01406
1.01592
0.441143
0.297785
0.344014
0.374817
0.372992
0.354433
0.329708
0.311407
0.295518
0.278741
0.261682
0.244977
0.228786
0.213418
0.19831
0.182635
0.167838
0.153883
0.141087
0.130383
0.120809
0.113074
0.109438
0.107394
0.107175
3.00001
3.00001
3
3
3
3
3
3
3
3
3
3
2.99998
2.99988
2.99967
2.99893
2.9979
2.994
2.98846
2.97295
2.93564
2.83959
2.58229
2.07303
1.09682
0.480197
0.291804
0.349363
0.387344
0.386381
0.367142
0.341122
0.321381
0.304627
0.28734
0.270167
0.25367
0.2379
0.223067
0.20851
0.193459
0.179367
0.166169
0.154281
0.144479
0.135856
0.12916
0.126197
0.124478
0.124092
3.00001
3.00001
3
3
3
3
3
3
3
3
3
3
2.99998
2.99988
2.99969
2.99902
2.99808
2.99453
2.98954
2.97573
2.94105
2.85499
2.61519
2.15133
1.19826
0.528052
0.289895
0.359762
0.40387
0.401951
0.380874
0.353305
0.332006
0.314382
0.296739
0.27972
0.2637
0.248537
0.234365
0.220488
0.206147
0.19283
0.180421
0.169382
0.160449
0.152606
0.14669
0.144189
0.142756
0.142173
3.00001
3.00001
3.00001
3
3
3
3
3
3
3
3.00001
3
2.99998
2.99989
2.99971
2.9991
2.99824
2.99498
2.99049
2.97761
2.94736
2.86933
2.65736
2.23482
1.32428
0.58711
0.298638
0.375994
0.422443
0.416847
0.393468
0.365132
0.342712
0.324301
0.306699
0.290262
0.275007
0.260621
0.24724
0.234125
0.220589
0.208111
0.196527
0.186349
0.178191
0.171097
0.165862
0.16373
0.162247
0.161347
3.00001
3.00001
3.00001
3
3
3
3
3
3
3
3.00001
3
2.99998
2.9999
2.99973
2.99918
2.9984
2.99544
2.9914
2.97935
2.95398
2.88332
2.70363
2.32265
1.484
0.66405
0.314144
0.389905
0.434359
0.426437
0.403043
0.375824
0.352922
0.334226
0.317205
0.301748
0.287495
0.274054
0.261586
0.249433
0.236792
0.225215
0.214486
0.205153
0.197778
0.191339
0.186669
0.184807
0.183645
0.182531
3.00001
3.00001
3.00001
3.00001
3
3
3
3
3
3
3.00001
3
2.99999
2.9999
2.99975
2.99925
2.99854
2.99585
2.99224
2.98118
2.95935
2.89467
2.74081
2.39987
1.65262
0.729136
0.320992
0.394247
0.434341
0.429957
0.409863
0.385483
0.362706
0.344287
0.328284
0.314097
0.301124
0.288841
0.27742
0.266291
0.254689
0.244092
0.234345
0.225938
0.21938
0.213682
0.209453
0.207984
0.206803
0.205169
3.00001
3.00001
3.00001
3.00001
3.00001
3
3
3
3
3
3
3
2.99999
2.99991
2.99977
2.99931
2.99867
2.9962
2.99296
2.9826
2.96357
2.90374
2.76817
2.45504
1.74786
0.814383
0.355246
0.395504
0.425261
0.431234
0.416357
0.394866
0.372306
0.354581
0.340012
0.327487
0.315984
0.305008
0.294763
0.284926
0.274526
0.264972
0.256256
0.248764
0.243084
0.238194
0.234798
0.233604
0.232764
0.231083
3.00001
3.00001
3.00001
3.00001
3.00001
3.00001
3.00001
3
3.00001
3
3
3
2.99999
2.99991
2.99979
2.99938
2.99879
2.99665
2.99371
2.98407
2.9674
2.9125
2.79266
2.50636
1.84203
0.924963
0.409208
0.390015
0.417964
0.432122
0.421704
0.403222
0.381991
0.365315
0.352649
0.341932
0.33221
0.32276
0.3139
0.305432
0.296365
0.288
0.280512
0.274224
0.269545
0.265675
0.262597
0.262022
0.261569
0.259162
3.00001
3.00001
3.00001
3.00001
3.00001
3.00001
3.00001
3.00001
3.00001
3.00001
3
3
2.99999
2.99992
2.99982
2.99945
2.99894
2.99713
2.99454
2.98585
2.97122
2.92178
2.81525
2.55869
1.93586
1.04514
0.466826
0.379349
0.412469
0.433459
0.426882
0.41125
0.392112
0.377381
0.366998
0.358314
0.350332
0.342554
0.335073
0.328014
0.320477
0.313518
0.307438
0.302443
0.299013
0.296268
0.294466
0.29454
0.294749
0.292829
3.00001
3.00001
3.00001
3.00001
3.00001
3.00001
3.00001
3.00001
3.00001
3.00001
3
3
2.99999
2.99993
2.99984
2.99953
2.99909
2.99762
2.99539
2.98804
2.97492
2.93332
2.83718
2.61614
2.03458
1.17916
0.535042
0.373052
0.41321
0.440066
0.436297
0.422845
0.406043
0.393663
0.385287
0.378202
0.371622
0.365194
0.359091
0.353458
0.347462
0.341997
0.337455
0.334042
0.332213
0.331282
0.330951
0.332747
0.334041
0.331343
3.00001
3.00001
3.00001
3.00001
3.00001
3.00001
3.00001
3.00001
3.00001
3.00001
3.00001
3
2.99999
2.99994
2.99986
2.99961
2.99922
2.99805
2.99614
2.98969
2.97871
2.94319
2.86279
2.67354
2.16928
1.3644
0.630283
0.388844
0.430629
0.460106
0.457178
0.444152
0.428718
0.417224
0.409082
0.402413
0.396556
0.391009
0.385853
0.381575
0.377341
0.37354
0.371017
0.369846
0.370251
0.371903
0.374046
0.377581
0.381485
0.380892
3.00001
3.00001
3.00001
3.00001
3.00001
3.00001
3.00001
3.00001
3.00001
3.00001
3.00001
3
2.99999
2.99995
2.99989
2.99968
2.99935
2.99845
2.99685
2.99122
2.98253
2.95142
2.89383
2.73167
2.3508
1.60986
0.748175
0.422995
0.461551
0.486701
0.483964
0.470556
0.455764
0.443941
0.435599
0.429133
0.423901
0.419327
0.415231
0.412463
0.410322
0.40893
0.408846
0.410607
0.414116
0.419214
0.425096
0.433704
0.4419
0.444691
3.00001
3.00001
3.00001
3.00001
3.00001
3.00001
3.00001
3.00001
3.00001
3.00001
3.00001
3
2.99999
2.99996
2.99991
2.99974
2.9995
2.99878
2.99755
2.99293
2.98601
2.96063
2.91401
2.78078
2.45878
1.80622
0.860633
0.465632
0.473413
0.492873
0.498929
0.490188
0.478479
0.468197
0.461158
0.455789
0.451779
0.448845
0.446395
0.445297
0.445595
0.447266
0.450581
0.456177
0.464146
0.475482
0.48884
0.504879
0.524831
0.541901
3.00001
3.00001
3.00001
3.00001
3.00001
3.00001
3.00001
3.00001
3.00001
3.00001
3
3
2.99999
2.99997
2.99994
2.99984
2.99968
2.99908
2.99817
2.99488
2.98929
2.97142
2.93088
2.82987
2.5497
2.02867
1.03883
0.569188
0.479818
0.495591
0.507537
0.505364
0.49786
0.490405
0.485379
0.482227
0.480275
0.479333
0.479413
0.481075
0.484698
0.490076
0.497405
0.507708
0.521749
0.540726
0.565192
0.599833
0.648266
0.722864
3.00001
3.00001
3.00001
3.00001
3.00001
3.00001
3.00001
3.00001
3.00001
3.00001
3.00001
3
3
2.99999
2.99996
2.99989
2.99977
2.99933
2.99869
2.9962
2.99245
2.97914
2.95362
2.88096
2.69077
2.31096
1.45907
0.778287
0.533961
0.539929
0.549946
0.55096
0.544091
0.53695
0.531165
0.527955
0.526589
0.527382
0.530634
0.535579
0.542468
0.551779
0.564566
0.581846
0.605361
0.638714
0.683903
0.746717
0.855578
0.983794
3.00001
3.00001
3.00001
3.00001
3.00001
3.00001
3.00001
3.00001
3.00001
3.00001
3.00001
3
3
2.99999
2.99998
2.99992
2.99983
2.99949
2.999
2.99706
2.99432
2.98343
2.96695
2.90937
2.79233
2.49506
1.85431
0.98972
0.567462
0.551948
0.574067
0.588875
0.589208
0.584136
0.579362
0.576001
0.575049
0.577973
0.583478
0.591383
0.601796
0.615748
0.633837
0.65836
0.689696
0.731605
0.789768
0.864889
0.987789
1.12654
3.00001
3.00001
3.00001
3.00001
3.00001
3.00001
3.00001
3.00001
3.00001
3.00001
3.00001
3.00001
3
3
2.99999
2.99995
2.99989
2.99965
2.99932
2.99802
2.99611
2.98904
2.9767
2.93798
2.84599
2.63564
2.07628
1.26053
0.693905
0.57853
0.597307
0.617037
0.625523
0.62479
0.622455
0.62124
0.623606
0.629221
0.637084
0.647217
0.659954
0.6768
0.698806
0.726877
0.764244
0.809945
0.87154
0.944671
1.04818
1.15928
3.00001
3.00001
3.00001
3.00001
3.00001
3.00001
3.00001
3.00001
3.00001
3.00001
3.00001
3.00001
3
3
2.99999
2.99996
2.99992
2.99977
2.99954
2.99863
2.99735
2.99222
2.98475
2.95688
2.90794
2.7623
2.44449
1.75741
0.949974
0.639423
0.628708
0.646793
0.660381
0.662902
0.662148
0.662799
0.66724
0.674402
0.683912
0.696737
0.713465
0.733306
0.757895
0.786901
0.824212
0.868143
0.924272
0.990957
1.07594
1.16448
3.00001
3.00001
3.00001
3.00001
3.00001
3.00001
3.00001
3.00001
3.00001
3.00001
3.00001
3.00001
3.00001
3
3
2.99999
2.99995
2.99989
2.99966
2.99933
2.99803
2.99612
2.98918
2.97637
2.93768
2.84298
2.63138
2.06666
1.26445
0.756775
0.668788
0.675711
0.686709
0.695227
0.699003
0.702436
0.708276
0.716733
0.727592
0.741065
0.758264
0.779285
0.805285
0.835906
0.871462
0.914835
0.963449
1.02207
1.09218
1.16418
3.00001
3.00001
3.00001
3.00001
3.00001
3.00001
3.00001
3.00001
3.00001
3.00001
3.00001
3.00001
3.00001
3.00001
3
2.99999
2.99997
2.99993
2.99978
2.99957
2.99871
2.99753
2.99269
2.98577
2.95946
2.91404
2.77672
2.48115
1.82293
1.04692
0.750187
0.718059
0.724967
0.733607
0.738754
0.742156
0.747575
0.75594
0.768074
0.783536
0.801659
0.822334
0.84634
0.874875
0.907691
0.946417
0.991538
1.04223
1.1035
1.16399
3.00001
3.00001
3.00001
3.00001
3.00001
3.00001
3.00001
3.00001
3.00001
3.00001
3.00001
3.00001
3.00001
3.00001
3
3
2.99999
2.99996
2.99991
2.99972
2.99945
2.99837
2.99681
2.99108
2.98075
2.94874
2.87183
2.6943
2.21638
1.47584
0.88883
0.755296
0.753675
0.766248
0.778658
0.7853
0.790949
0.798412
0.808647
0.822056
0.83923
0.86014
0.883774
0.910381
0.941036
0.974722
1.01376
1.05793
1.11029
1.16321
3.00001
3.00001
3.00001
3.00001
3.00001
3.00001
3.00001
3.00001
3.00001
3.00001
3.00001
3.00001
3.00001
3.00001
3.00001
3
3
2.99998
2.99995
2.99983
2.99968
2.99902
2.99813
2.9944
2.98913
2.96911
2.93265
2.82662
2.56993
2.04192
1.22584
0.863828
0.801178
0.801469
0.810698
0.823056
0.833211
0.842153
0.852037
0.863912
0.878446
0.895852
0.917006
0.941794
0.969939
1.00191
1.03678
1.07567
1.12103
1.16616
3.00001
3.00001
3.00001
3.00001
3.00001
3.00001
3.00001
3.00001
3.00001
3.00001
3.00001
3.00001
3.00001
3.00001
3.00001
3
3
2.99999
2.99998
2.99992
2.99984
2.9995
2.99905
2.99711
2.99455
2.98377
2.96793
2.91074
2.79756
2.50661
1.90326
1.16415
0.891588
0.856719
0.85467
0.862305
0.873217
0.883253
0.893295
0.904837
0.918347
0.934084
0.952347
0.973454
0.997414
1.02542
1.05703
1.09221
1.13245
1.1732
3.00001
3.00001
3.00001
3.00001
3.00001
3.00001
3.00001
3.00001
3.00001
3.00001
3.00001
3.00001
3.00001
3.00001
3.00001
3.00001
3
3
2.99999
2.99996
2.99992
2.99976
2.99954
2.99861
2.99737
2.9924
2.98451
2.95836
2.89935
2.75769
2.38147
1.73205
1.08133
0.908438
0.895259
0.901467
0.910951
0.921341
0.930571
0.941128
0.953645
0.968873
0.986106
1.00582
1.02748
1.05116
1.07772
1.1081
1.14339
1.17963
3.00001
3.00001
3.00001
3.00001
3.00001
3.00001
3.00001
3.00001
3.00001
3.00001
3.00001
3.00001
3.00001
3.00001
3.00001
3.00001
3.00001
3
3
2.99999
2.99996
2.99992
2.99976
2.99954
2.99873
2.99728
2.9929
2.98253
2.95516
2.88294
2.7202
2.27152
1.59903
1.06058
0.945579
0.937652
0.945145
0.955599
0.966407
0.975927
0.986139
0.9991
1.0141
1.03246
1.05276
1.07577
1.09993
1.12708
1.15802
1.18911
3.00001
3.00001
3.00001
3.00001
3.00001
3.00001
3.00001
3.00001
3.00001
3.00001
3.00001
3.00001
3.00001
3.00001
3.00001
3.00001
3.00001
3.00001
3
3
2.99999
2.99996
2.99988
2.99977
2.99927
2.99864
2.9958
2.9921
2.97681
2.95084
2.87184
2.68749
2.27266
1.56551
1.11228
1.00246
0.989183
0.991524
1.00122
1.01262
1.02246
1.03289
1.04495
1.05953
1.07702
1.09663
1.11961
1.14404
1.17342
1.2019
3.00001
3.00001
3.00001
3.00001
3.00001
3.00001
3.00001
3.00001
3.00001
3.00001
3.00001
3.00001
3.00001
3.00001
3.00001
3.00001
3.00001
3.00001
3.00001
3
3
2.99999
2.99997
2.99988
2.99977
2.99928
2.99864
2.99578
2.99207
2.97615
2.95138
2.86622
2.70038
2.2459
1.61513
1.17149
1.05334
1.03617
1.03584
1.04418
1.05628
1.06926
1.08165
1.09349
1.10713
1.1227
1.14185
1.16399
1.18917
1.2163
3.00001
3.00001
3.00001
3.00001
3.00001
3.00001
3.00001
3.00001
3.00001
3.00001
3.00001
3.00001
3.00001
3.00001
3.00001
3.00001
3.00001
3.00001
3.00001
3.00001
3
3
2.99999
2.99997
2.99989
2.99978
2.99931
2.99871
2.99601
2.99253
2.97725
2.95454
2.87285
2.71852
2.28462
1.69752
1.23566
1.1016
1.07945
1.07762
1.0848
1.09767
1.11253
1.12632
1.13941
1.15404
1.1694
1.18815
1.20961
1.23297
3.00001
3.00001
3.00001
3.00001
3.00001
3.00001
3.00001
3.00001
3.00001
3.00001
3.00001
3.00001
3.00001
3.00001
3.00001
3.00001
3.00001
3.00001
3.00001
3.00001
3.00001
3
3
2.99999
2.99997
2.99994
2.99983
2.99963
2.99909
2.99775
2.99433
2.98505
2.96123
2.89682
2.75646
2.35623
1.79075
1.28376
1.13679
1.11231
1.11193
1.1215
1.13589
1.15148
1.1653
1.18033
1.19489
1.21171
1.23044
1.24944
3.00001
3.00001
3.00001
3.00001
3.00001
3.00001
3.00001
3.00001
3.00001
3.00001
3.00001
3.00001
3.00001
3.00001
3.00001
3.00001
3.00001
3.00001
3.00001
3.00001
3.00001
3.00001
3.00001
3
2.99999
2.99997
2.99994
2.9998
2.99962
2.99892
2.99784
2.99441
2.98658
2.96612
2.91264
2.78835
2.45964
1.93732
1.3723
1.18165
1.15306
1.15547
1.16382
1.17686
1.18978
1.20272
1.21685
1.23153
1.25005
1.26723
3.00001
3.00001
3.00001
3.00001
3.00001
3.00001
3.00001
3.00001
3.00001
3.00001
3.00001
3.00001
3.00001
3.00001
3.00001
3.00001
3.00001
3.00001
3.00001
3.00001
3.00001
3.00001
3.00001
3.00001
3
3
2.99997
2.99995
2.99982
2.99967
2.99895
2.9981
2.99418
2.98891
2.96782
2.93114
2.82294
2.59011
2.07583
1.51644
1.26401
1.22136
1.21447
1.2159
1.22088
1.23018
1.24308
1.2566
1.27335
1.29102
3.00001
3.00001
3.00001
3.00001
3.00001
3.00001
3.00001
3.00001
3.00001
3.00001
3.00001
3.00001
3.00001
3.00001
3.00001
3.00001
3.00001
3.00001
3.00001
3.00001
3.00001
3.00001
3.00001
3.00001
3.00001
3
3
2.99998
2.99996
2.99987
2.99975
2.99922
2.99859
2.99559
2.9919
2.97541
2.9513
2.86507
2.71206
2.2589
1.77541
1.41103
1.29333
1.26191
1.25627
1.25815
1.26596
1.27873
1.29462
1.31228
3.00001
3.00001
3.00001
3.00001
3.00001
3.00001
3.00001
3.00001
3.00001
3.00001
3.00001
3.00001
3.00001
3.00001
3.00001
3.00001
3.00001
3.00001
3.00001
3.00001
3.00001
3.00001
3.00001
3.00001
3.00001
3.00001
3.00001
3
2.99999
2.99997
2.99994
2.9998
2.99964
2.99899
2.99799
2.99494
2.98748
2.96753
2.91756
2.79307
2.4971
2.03581
1.56249
1.34335
1.30172
1.29426
1.29651
1.30289
1.31616
1.33367
3.00001
3.00001
3.00001
3.00001
3.00001
3.00001
3.00001
3.00001
3.00001
3.00001
3.00001
3.00001
3.00001
3.00001
3.00001
3.00001
3.00001
3.00001
3.00001
3.00001
3.00001
3.00001
3.00001
3.00001
3.00001
3.00001
3.00001
3.00001
3
3
2.99998
2.99996
2.99986
2.99975
2.99921
2.99857
2.99557
2.99174
2.97533
2.95018
2.86506
2.70785
2.29279
1.84014
1.48761
1.36682
1.34042
1.33809
1.34478
1.35883
3.00001
3.00001
3.00001
3.00001
3.00001
3.00001
3.00001
3.00001
3.00001
3.00001
3.00001
3.00001
3.00001
3.00001
3.00001
3.00001
3.00001
3.00001
3.00001
3.00001
3.00001
3.00001
3.00001
3.00001
3.00001
3.00001
3.00001
3.00001
3.00001
3.00001
3
3
2.99999
2.99993
2.99988
2.99955
2.99921
2.99737
2.99527
2.98511
2.97175
2.91769
2.83257
2.56469
2.18596
1.69029
1.44455
1.39668
1.38681
1.39413
3.00001
3.00001
3.00001
3.00001
3.00001
3.00001
3.00001
3.00001
3.00001
3.00001
3.00001
3.00001
3.00001
3.00001
3.00001
3.00001
3.00001
3.00001
3.00001
3.00001
3.00001
3.00001
3.00001
3.00001
3.00001
3.00001
3.00001
3.00001
3.00001
3.00001
3.00001
3.00001
3
3
2.99999
2.99995
2.99991
2.99965
2.9994
2.99768
2.99607
2.98544
2.96157
2.90955
2.76417
2.47233
2.05078
1.64567
1.47354
1.45476
3.00001
3.00001
3.00001
3.00001
3.00001
3.00001
3.00001
3.00001
3.00001
3.00001
3.00001
3.00001
3.00001
3.00001
3.00001
3.00001
3.00001
3.00001
3.00001
3.00001
3.00001
3.00001
3.00001
3.00001
3.00001
3.00001
3.00001
3.00001
3.00001
3.00001
3.00001
3.00001
3.00001
3.00001
3
3
2.99999
2.99994
2.99989
2.99956
2.99926
2.99702
2.99523
2.98228
2.9577
2.89303
2.75294
2.4485
2.06141
1.74397
3.00001
3.00001
3.00001
3.00001
3.00001
3.00001
3.00001
3.00001
3.00001
3.00001
3.00001
3.00001
3.00001
3.00001
3.00001
3.00001
3.00001
3.00001
3.00001
3.00001
3.00001
3.00001
3.00001
3.00001
3.00001
3.00001
3.00001
3.00001
3.00001
3.00001
3.00001
3.00001
3.00001
3.00001
3.00001
3.00001
3
3
2.99998
2.99996
2.99982
2.99967
2.99868
2.99797
2.99171
2.98427
2.94613
2.86747
2.65992
2.33014
3.00001
3.00001
3.00001
3.00001
3.00001
3.00001
3.00001
3.00001
3.00001
3.00001
3.00001
3.00001
3.00001
3.00001
3.00001
3.00001
3.00001
3.00001
3.00001
3.00001
3.00001
3.00001
3.00001
3.00001
3.00001
3.00001
3.00001
3.00001
3.00001
3.00001
3.00001
3.00001
3.00001
3.00001
3.00001
3.00001
3.00001
3.00001
3
3
2.99997
2.99993
2.9997
2.99946
2.99745
2.99704
2.98524
2.9646
2.89424
2.78045
3.00001
3.00001
3.00001
3.00001
3.00001
3.00001
3.00001
3.00001
3.00001
3.00001
3.00001
3.00001
3.00001
3.00001
3.00001
3.00001
3.00001
3.00001
3.00001
3.00001
3.00001
3.00001
3.00001
3.00001
3.00001
3.00001
3.00001
3.00001
3.00001
3.00001
3.00001
3.00001
3.00001
3.00001
3.00001
3.00001
3.00001
3.00001
3.00001
3
3
2.99997
2.99993
2.9996
2.9996
2.99753
2.99392
2.98289
2.95179
2.89125
3.00001
3.00001
3.00001
3.00001
3.00001
3.00001
3.00001
3.00001
3.00001
3.00001
3.00001
3.00001
3.00001
3.00001
3.00001
3.00001
3.00001
3.00001
3.00001
3.00001
3.00001
3.00001
3.00001
3.00001
3.00001
3.00001
3.00001
3.00001
3.00001
3.00001
3.00001
3.00001
3.00001
3.00001
3.00001
3.00001
3.00001
3.00001
3.00001
3
3
2.99999
2.99996
2.99982
2.99984
2.99886
2.99676
2.99244
2.97782
2.9495
3.00001
3.00001
3.00001
3.00001
3.00001
3.00001
3.00001
3.00001
3.00001
3.00001
3.00001
3.00001
3.00001
3.00001
3.00001
3.00001
3.00001
3.00001
3.00001
3.00001
3.00001
3.00001
3.00001
3.00001
3.00001
3.00001
3.00001
3.00001
3.00001
3.00001
3.00001
3.00001
3.00001
3.00001
3.00001
3.00001
3.00001
3.00001
3.00001
3.00001
3.00001
3
2.99999
2.99992
2.99993
2.9995
2.99854
2.99642
2.9894
2.97574
3.00001
3.00001
3.00001
3.00001
3.00001
3.00001
3.00001
3.00001
3.00001
3.00001
3.00001
3.00001
3.00001
3.00001
3.00001
3.00001
3.00001
3.00001
3.00001
3.00001
3.00001
3.00001
3.00001
3.00001
3.00001
3.00001
3.00001
3.00001
3.00001
3.00001
3.00001
3.00001
3.00001
3.00001
3.00001
3.00001
3.00001
3.00001
3.00001
3.00001
3.00001
3
3
2.99996
2.99996
2.99977
2.99934
2.99821
2.99499
2.98838
3.00001
3.00001
3.00001
3.00001
3.00001
3.00001
3.00001
3.00001
3.00001
3.00001
3.00001
3.00001
3.00001
3.00001
3.00001
3.00001
3.00001
3.00001
3.00001
3.00001
3.00001
3.00001
3.00001
3.00001
3.00001
3.00001
3.00001
3.00001
3.00001
3.00001
3.00001
3.00001
3.00001
3.00001
3.00001
3.00001
3.00001
3.00001
3.00001
3.00001
3.00001
3.00001
3
2.99999
2.99999
2.99989
2.99967
2.9992
2.99765
2.99446
3.00001
3.00001
3.00001
3.00001
3.00001
3.00001
3.00001
3.00001
3.00001
3.00001
3.00001
3.00001
3.00001
3.00001
3.00001
3.00001
3.00001
3.00001
3.00001
3.00001
3.00001
3.00001
3.00001
3.00001
3.00001
3.00001
3.00001
3.00001
3.00001
3.00001
3.00001
3.00001
3.00001
3.00001
3.00001
3.00001
3.00001
3.00001
3.00001
3.00001
3.00001
3.00001
3.00001
3
3
2.99995
2.99986
2.99962
2.99892
2.99743
3.00001
3.00001
3.00001
3.00001
3.00001
3.00001
3.00001
3.00001
3.00001
3.00001
3.00001
3.00001
3.00001
3.00001
3.00001
3.00001
3.00001
3.00001
3.00001
3.00001
3.00001
3.00001
3.00001
3.00001
3.00001
3.00001
3.00001
3.00001
3.00001
3.00001
3.00001
3.00001
3.00001
3.00001
3.00001
3.00001
3.00001
3.00001
3.00001
3.00001
3.00001
3.00001
3
3
2.99999
2.99999
2.99995
2.99988
2.99953
2.99905
3.00001
3.00001
3.00001
3.00001
3.00001
3.00001
3.00001
3.00001
3.00001
3.00001
3.00001
3.00001
3.00001
3.00001
3.00001
3.00001
3.00001
3.00001
3.00001
3.00001
3.00001
3.00001
3.00001
3.00001
3.00001
3.00001
3.00001
3.00001
3.00001
3.00001
3.00001
3.00001
3.00001
3.00001
3.00001
3.00001
3.00001
3.00001
3.00001
3.00001
3.00001
3.00001
3.00001
3.00001
3.00001
3
2.99998
2.99993
2.99979
2.99946
3.00001
3.00001
3.00001
3.00001
3.00001
3.00001
3.00001
3.00001
3.00001
3.00001
3.00001
3.00001
3.00001
3.00001
3.00001
3.00001
3.00001
3.00001
3.00001
3.00001
3.00001
3.00001
3.00001
3.00001
3.00001
3.00001
3.00001
3.00001
3.00001
3.00001
3.00001
3.00001
3.00001
3.00001
3.00001
3.00001
3.00001
3.00001
3.00001
3.00001
3.00001
3.00001
3.00001
3.00001
3
3
3
2.99998
2.99991
2.99981
3.00001
3.00001
3.00001
3.00001
3.00001
3.00001
3.00001
3.00001
3.00001
3.00001
3.00001
3.00001
3.00001
3.00001
3.00001
3.00001
3.00001
3.00001
3.00001
3.00001
3.00001
3.00001
3.00001
3.00001
3.00001
3.00001
3.00001
3.00001
3.00001
3.00001
3.00001
3.00001
3.00001
3.00001
3.00001
3.00001
3.00001
3.00001
3.00001
3.00001
3.00001
3.00001
3.00001
3.00001
3.00001
3.00001
3
2.99999
2.99996
2.9999
3.00001
3.00001
3.00001
3.00001
3.00001
3.00001
3.00001
3.00001
3.00001
3.00001
3.00001
3.00001
3.00001
3.00001
3.00001
3.00001
3.00001
3.00001
3.00001
3.00001
3.00001
3.00001
3.00001
3.00001
3.00001
3.00001
3.00001
3.00001
3.00001
3.00001
3.00001
3.00001
3.00001
3.00001
3.00001
3.00001
3.00001
3.00001
3.00001
3.00001
3.00001
3.00001
3.00001
3.00001
3.00001
3.00001
3
3
2.99999
2.99996
3.00001
3.00001
3.00001
3.00001
3.00001
3.00001
3.00001
3.00001
3.00001
3.00001
3.00001
3.00001
3.00001
3.00001
3.00001
3.00001
3.00001
3.00001
3.00001
3.00001
3.00001
3.00001
3.00001
3.00001
3.00001
3.00001
3.00001
3.00001
3.00001
3.00001
3.00001
3.00001
3.00001
3.00001
3.00001
3.00001
3.00001
3.00001
3.00001
3.00001
3.00001
3.00001
3.00001
3.00001
3.00001
3.00001
3.00001
3
3
2.99999
3.00001
3.00001
3.00001
3.00001
3.00001
3.00001
3.00001
3.00001
3.00001
3.00001
3.00001
3.00001
3.00001
3.00001
3.00001
3.00001
3.00001
3.00001
3.00001
3.00001
3.00001
3.00001
3.00001
3.00001
3.00001
3.00001
3.00001
3.00001
3.00001
3.00001
3.00001
3.00001
3.00001
3.00001
3.00001
3.00001
3.00001
3.00001
3.00001
3.00001
3.00001
3.00001
3.00001
3.00001
3.00001
3.00001
3.00001
3.00001
3
3
3.00001
3.00001
3.00001
3.00001
3.00001
3.00001
3.00001
3.00001
3.00001
3.00001
3.00001
3.00001
3.00001
3.00001
3.00001
3.00001
3.00001
3.00001
3.00001
3.00001
3.00001
3.00001
3.00001
3.00001
3.00001
3.00001
3.00001
3.00001
3.00001
3.00001
3.00001
3.00001
3.00001
3.00001
3.00001
3.00001
3.00001
3.00001
3.00001
3.00001
3.00001
3.00001
3.00001
3.00001
3.00001
3.00001
3.00001
3.00001
3.00001
3
3.00001
3.00001
3.00001
3.00001
3.00001
3.00001
3.00001
3.00001
3.00001
3.00001
3.00001
3.00001
3.00001
3.00001
3.00001
3.00001
3.00001
3.00001
3.00001
3.00001
3.00001
3.00001
3.00001
3.00001
3.00001
3.00001
3.00001
3.00001
3.00001
3.00001
3.00001
3.00001
3.00001
3.00001
3.00001
3.00001
3.00001
3.00001
3.00001
3.00001
3.00001
3.00001
3.00001
3.00001
3.00001
3.00001
3.00001
3.00001
3.00001
3.00001
1.43278
1.58815
1.62662
1.58116
1.48411
1.391
1.28092
1.18541
1.1557
1.15998
1.16482
1.16831
1.16863
1.16953
1.17032
1.17034
1.17245
1.1775
1.18351
1.1897
1.19676
1.20505
1.21379
1.22248
1.23107
1.23962
1.24839
1.25749
1.26685
1.27626
1.28562
1.29496
1.30442
1.31417
1.32407
1.33403
1.34395
1.3538
1.36358
1.37333
1.38309
1.39291
1.40281
1.41277
1.42278
1.43279
1.44268
1.45239
1.46183
1.47096
1.47974
1.48818
1.4963
1.5041
1.51157
1.51874
1.52568
1.53237
1.53874
1.54469
1.55021
1.55534
1.56017
1.56472
1.56901
1.57307
1.57687
1.58039
1.58371
1.58697
1.59011
1.59285
1.59497
1.59662
1.59778
1.5984
1.59874
1.5987
1.59811
1.59669
1.59503
1.59345
1.59214
1.59099
1.59048
1.59198
1.59355
1.59677
1.59931
1.60451
1.60906
1.6157
1.62019
1.62545
1.62823
1.63366
1.63823
1.65074
1.66036
1.69957
1.40432
1.49609
1.53092
1.54672
1.56595
1.59949
1.63415
1.6398
1.63057
1.60674
1.57025
1.54753
1.53848
1.54291
1.54752
1.55308
1.55835
1.56254
1.56602
1.56943
1.57304
1.57727
1.58239
1.58845
1.59511
1.6017
1.608
1.61412
1.62028
1.62665
1.63328
1.64022
1.64748
1.6549
1.66259
1.67068
1.67883
1.68685
1.69481
1.70275
1.71063
1.71827
1.7256
1.73292
1.74025
1.74757
1.75487
1.76206
1.7691
1.77612
1.78323
1.79009
1.79657
1.80278
1.80875
1.81447
1.81993
1.82506
1.82996
1.83461
1.83896
1.84319
1.8472
1.85084
1.85426
1.85744
1.86028
1.86274
1.86496
1.86671
1.86785
1.86932
1.87021
1.87065
1.87125
1.87187
1.87227
1.87209
1.87127
1.86999
1.86831
1.86622
1.86359
1.86082
1.85796
1.85564
1.85341
1.8517
1.85074
1.85188
1.85308
1.85759
1.86061
1.86637
1.86976
1.87541
1.87738
1.88181
1.88269
1.88808
1.35762
1.44536
1.51773
1.59285
1.67367
1.7513
1.80444
1.81858
1.81786
1.808
1.78429
1.75581
1.73641
1.72674
1.72529
1.72942
1.73337
1.73804
1.74276
1.74695
1.75107
1.75485
1.75837
1.76248
1.76679
1.77096
1.77509
1.77955
1.78456
1.79019
1.7964
1.80293
1.80988
1.81763
1.82583
1.83396
1.8419
1.84958
1.85707
1.86446
1.87124
1.87692
1.88241
1.88806
1.89398
1.90016
1.9065
1.91287
1.91918
1.92537
1.93137
1.93712
1.94257
1.94764
1.95238
1.95686
1.96112
1.96525
1.96923
1.973
1.97663
1.98007
1.98333
1.98659
1.98988
1.99276
1.99523
1.99752
1.99957
2.00102
2.00188
2.00265
2.00365
2.00367
2.00352
2.00325
2.00274
2.00196
2.00084
1.99924
1.99721
1.99509
1.99291
1.99062
1.98815
1.98584
1.98348
1.98171
1.98032
1.98049
1.98011
1.98205
1.98323
1.98723
1.98959
1.99424
1.9954
1.99891
1.99893
2.00403
1.33473
1.42603
1.50789
1.58463
1.65556
1.72059
1.77754
1.82885
1.86646
1.88681
1.88912
1.88865
1.88076
1.87068
1.85678
1.84959
1.84443
1.84725
1.85062
1.85447
1.85913
1.86407
1.86837
1.8719
1.87551
1.87935
1.88352
1.88821
1.89352
1.89916
1.90522
1.9122
1.92017
1.92831
1.93633
1.94407
1.95136
1.95831
1.96519
1.97158
1.97709
1.98248
1.98809
1.99389
1.99988
2.00601
2.01217
2.01822
2.02412
2.02981
2.03525
2.04036
2.04509
2.04943
2.0534
2.05696
2.06015
2.06311
2.06581
2.06823
2.0705
2.07262
2.07448
2.0761
2.07764
2.07908
2.08037
2.0816
2.08273
2.08356
2.08411
2.08436
2.0844
2.08445
2.08403
2.08344
2.08286
2.08215
2.08119
2.08005
2.07865
2.07757
2.07639
2.07609
2.075
2.07503
2.07402
2.07428
2.07337
2.07408
2.07395
2.07613
2.07715
2.08002
2.08081
2.08307
2.08301
2.08522
2.0851
2.09191
1.30963
1.4018
1.48426
1.5605
1.63119
1.69774
1.76038
1.81877
1.87113
1.91535
1.94103
1.95301
1.95534
1.95546
1.95008
1.94354
1.93471
1.93024
1.92501
1.92656
1.92861
1.93047
1.93337
1.93792
1.94298
1.94816
1.95373
1.95941
1.96522
1.97133
1.97789
1.98488
1.99211
1.99943
2.00672
2.01376
2.02043
2.02701
2.03349
2.03956
2.04555
2.0518
2.0583
2.065
2.07178
2.07861
2.08544
2.09217
2.09868
2.10478
2.11035
2.11529
2.11957
2.12318
2.12622
2.1289
2.1313
2.13343
2.13526
2.13686
2.13822
2.13937
2.14042
2.14141
2.14217
2.14263
2.14294
2.14309
2.14304
2.14278
2.14252
2.14215
2.14138
2.14042
2.13963
2.13884
2.13784
2.13701
2.13625
2.13544
2.13474
2.13499
2.13533
2.13657
2.13701
2.13832
2.13873
2.14003
2.14041
2.14198
2.14289
2.14515
2.14632
2.14824
2.14832
2.14934
2.14912
2.15092
2.15124
2.16047
1.2912
1.37558
1.45539
1.53161
1.60288
1.6695
1.7311
1.78886
1.84017
1.88798
1.93102
1.96728
1.99092
2.00619
2.0124
2.01365
2.01325
2.00964
2.00203
1.99774
1.99136
1.99191
1.99309
1.99503
1.99844
2.00313
2.00907
2.01534
2.02163
2.02801
2.0345
2.04108
2.04769
2.05429
2.0608
2.06723
2.07372
2.08034
2.08704
2.0938
2.10073
2.10795
2.11551
2.12335
2.13133
2.13924
2.1468
2.15379
2.16029
2.16653
2.17227
2.17703
2.18073
2.18395
2.18692
2.18981
2.1926
2.19533
2.19805
2.20047
2.20245
2.20408
2.20521
2.20575
2.20588
2.2057
2.20529
2.20468
2.20405
2.20316
2.20215
2.20121
2.20017
2.1989
2.19773
2.1969
2.19659
2.19658
2.19627
2.19633
2.19679
2.19795
2.19833
2.19957
2.19983
2.20076
2.20078
2.2018
2.20211
2.20374
2.20476
2.20697
2.20785
2.20933
2.20933
2.21057
2.21087
2.21373
2.21526
2.22796
1.27593
1.35387
1.4292
1.50243
1.57252
1.63877
1.70084
1.759
1.81315
1.8636
1.90977
1.95255
1.99081
2.02101
2.04068
2.05342
2.05713
2.05865
2.05763
2.05564
2.0496
2.0468
2.04235
2.043
2.0449
2.04742
2.05068
2.05533
2.06139
2.06824
2.07535
2.08237
2.08905
2.09543
2.10165
2.10785
2.11409
2.12038
2.12683
2.13355
2.14067
2.14824
2.15622
2.16441
2.17257
2.18044
2.1877
2.19424
2.20036
2.20616
2.21134
2.21582
2.22006
2.22426
2.22855
2.23287
2.23713
2.24121
2.24478
2.24768
2.2499
2.2514
2.25225
2.2527
2.2528
2.2525
2.25206
2.25156
2.25094
2.25009
2.24923
2.24855
2.24764
2.24653
2.24572
2.24528
2.24516
2.24547
2.24585
2.24622
2.24614
2.24639
2.24604
2.24604
2.24554
2.24555
2.24526
2.24598
2.24684
2.24924
2.2508
2.25319
2.25406
2.25569
2.25617
2.25807
2.25945
2.26504
2.26882
2.28767
1.26455
1.33542
1.4056
1.47534
1.5428
1.60763
1.66895
1.7271
1.78175
1.83273
1.88056
1.92458
1.96518
2.0028
2.03588
2.06017
2.07742
2.088
2.09214
2.09325
2.09345
2.09351
2.09114
2.0894
2.08749
2.08842
2.09085
2.0943
2.09818
2.10361