/*--------------------------------*- C++ -*----------------------------------*\
| =========                 |                                                 |
| \\      /  F ield         | OpenFOAM: The Open Source CFD Toolbox           |
|  \\    /   O peration     | Version:  2112                                  |
|   \\  /    A nd           | Website:  www.openfoam.com                      |
|    \\/     M anipulation  |                                                 |
\*---------------------------------------------------------------------------*/
FoamFile
{
    version     2.0;
    format      ascii;
    arch        "LSB;label=32;scalar=64";
    class       volScalarField;
    location    "1";
    object      p;
}
// * * * * * * * * * * * * * * * * * * * * * * * * * * * * * * * * * * * * * //

dimensions      [1 -1 -2 0 0 0 0];

internalField   nonuniform List<scalar> 
7000
(
0.999998
1
1
1.00001
1.00001
1.00001
1.00001
1.00001
1.00001
1.00001
1.00001
1.00001
1.00002
1.00012
1.00041
1.00103
1.00269
1.0058
1.01479
1.02873
1.0914
1.17046
1.59128
2.37081
5.18719
11.3975
11.4714
11.2473
11.0778
11.0998
11.1894
11.344
11.4608
11.5485
11.6301
11.7124
11.7919
11.8654
11.9327
11.9949
12.0481
12.0973
12.1413
12.1802
12.216
12.2457
12.2707
12.2948
12.3107
12.324
0.999999
1
1.00001
1.00001
1.00001
1.00001
1.00001
1.00001
1.00001
1.00001
1.00001
1.00001
1.00002
1.00011
1.0004
1.00098
1.00258
1.00555
1.01415
1.02718
1.08857
1.16041
1.5714
2.31226
5.04044
11.2048
11.4473
11.2333
11.0663
11.0885
11.178
11.333
11.4513
11.5404
11.6232
11.7064
11.7864
11.8604
11.9281
11.9904
12.0441
12.0938
12.1381
12.1774
12.2135
12.2433
12.2687
12.2926
12.3083
12.3211
0.999999
1
1.00001
1.00001
1.00001
1.00001
1.00001
1.00001
1.00001
1.00001
1.00001
1.00001
1.00003
1.00011
1.00039
1.00096
1.0025
1.00537
1.01369
1.02614
1.08655
1.15455
1.55859
2.27888
4.95258
11.0645
11.4702
11.2477
11.0674
11.0875
11.1747
11.3308
11.45
11.5396
11.6225
11.7055
11.7849
11.858
11.9251
11.986
12.0392
12.0888
12.1327
12.172
12.2079
12.237
12.2619
12.2845
12.2983
12.3091
1
1
1.00001
1.00001
1.00001
1.00001
1.00001
1.00001
1.00001
1.00001
1.00001
1.00001
1.00003
1.00011
1.00038
1.00092
1.0024
1.00515
1.01313
1.02501
1.08345
1.14743
1.53886
2.23049
4.81787
10.8414
11.4689
11.2389
11.0457
11.0661
11.1549
11.315
11.4369
11.5281
11.6124
11.6963
11.776
11.849
11.9158
11.9758
12.0287
12.0783
12.122
12.1613
12.197
12.2256
12.25
12.2715
12.2841
12.2934
1
1
1.00001
1.00001
1.00001
1.00001
1.00001
1.00001
1.00001
1.00001
1.00001
1.00001
1.00003
1.00011
1.00036
1.00088
1.00229
1.00491
1.01254
1.02379
1.08
1.14028
1.51652
2.1769
4.66734
10.5717
11.4873
11.2425
11.0271
11.0473
11.1389
11.3037
11.4282
11.5201
11.6044
11.6879
11.7666
11.8384
11.9041
11.9629
12.0149
12.0639
12.1071
12.1461
12.1815
12.2094
12.2333
12.2537
12.2652
12.2736
1
1
1.00001
1.00001
1.00001
1.00001
1.00001
1.00001
1.00001
1.00001
1.00001
1.00001
1.00003
1.00011
1.00035
1.00083
1.00217
1.00464
1.01188
1.02243
1.07615
1.13154
1.49411
2.10348
4.50094
10.2285
11.5283
11.2534
11.0045
11.0228
11.1142
11.2857
11.4142
11.5074
11.5919
11.6751
11.7531
11.8237
11.8882
11.9455
11.9965
12.0447
12.0873
12.1258
12.1606
12.1879
12.2112
12.2306
12.2412
12.2491
1
1
1
1.00001
1.00001
1.00001
1.00001
1.00001
1.00001
1.00001
1.00001
1
1.00003
1.0001
1.00033
1.00078
1.00203
1.00435
1.01118
1.02123
1.07125
1.12344
1.46519
2.02419
4.29899
9.79942
11.5986
11.2758
10.9804
10.9963
11.0867
11.2644
11.3981
11.4927
11.5768
11.6589
11.7355
11.8046
11.8675
11.9232
11.9729
12.02
12.0617
12.0996
12.1338
12.1604
12.1831
12.2017
12.2115
12.2192
1
1
1
1.00001
1.00001
1.00001
1.00001
1.00001
1.00001
1.00001
1.00001
1
1.00002
1.00009
1.0003
1.00072
1.00186
1.00398
1.01027
1.01952
1.06584
1.11416
1.43044
1.93931
4.05161
9.25787
11.7087
11.3174
10.9568
10.9694
11.058
11.238
11.3783
11.4743
11.5575
11.6382
11.7129
11.78
11.8411
11.8951
11.9433
11.9892
12.0298
12.0668
12.1002
12.1261
12.1481
12.1661
12.1756
12.1833
1
1
1
1.00001
1.00001
1.00001
1.00001
1.00001
1.00001
1.00001
1.00001
1
1.00002
1.00009
1.00028
1.00066
1.0017
1.00361
1.0093
1.01741
1.06028
1.10046
1.39661
1.82858
3.77742
8.56963
11.8657
11.3854
10.9403
10.9461
11.03
11.2082
11.3532
11.4507
11.5327
11.6115
11.684
11.749
11.8081
11.8603
11.9069
11.9514
11.9906
12.0265
12.059
12.0841
12.1056
12.1232
12.132
12.1394
1
1
1
1
1.00001
1.00001
1.00001
1.00001
1.00001
1.00001
1
1
1.00002
1.00008
1.00026
1.0006
1.00155
1.0033
1.00846
1.01606
1.05366
1.09134
1.35068
1.73008
3.45042
7.74979
12.0764
11.4983
10.9471
10.9315
11.0087
11.1776
11.3223
11.4195
11.5006
11.5771
11.6473
11.71
11.7672
11.8177
11.8627
11.9056
11.9433
11.9779
12.0091
12.0331
12.0539
12.0712
12.0805
12.0883
1
1
1
1
1
1.00001
1.00001
1.00001
1.00001
1
1
1
1.00002
1.00008
1.00024
1.00055
1.00141
1.00299
1.00764
1.01484
1.0467
1.08317
1.3009
1.63428
3.09015
6.78705
12.2722
11.6331
10.9831
10.9283
10.9943
11.1431
11.2829
11.3808
11.46
11.5336
11.6011
11.6617
11.7169
11.7657
11.809
11.8503
11.8865
11.9194
11.9492
11.9721
11.9921
12.0091
12.0176
12.0248
1
1
1
1
1
1
1.00001
1
1
1
1
1
1.00002
1.00007
1.00022
1.00051
1.00128
1.00271
1.00689
1.01354
1.04117
1.07445
1.26127
1.53538
2.76477
5.78812
12.2168
11.6533
11.033
10.9289
10.9773
11.097
11.2337
11.3326
11.4095
11.4796
11.5442
11.6024
11.6558
11.7031
11.7446
11.7841
11.8186
11.8494
11.8773
11.8989
11.9178
11.9345
11.9435
11.9511
1
1
1
1
1
1
1
1
1
1
1.00001
1
1.00002
1.00007
1.0002
1.00046
1.00117
1.00247
1.00627
1.01253
1.03682
1.06767
1.23459
1.46192
2.60333
5.16066
11.75
11.5687
11.1133
10.9248
10.9498
11.0363
11.173
11.2743
11.3486
11.4145
11.4757
11.5312
11.5823
11.6282
11.6669
11.7047
11.7374
11.7659
11.7914
11.811
11.8279
11.8436
11.8519
11.8582
1
1
1
1
1
1
1
1
1
1
1.00001
1.00001
1.00002
1.00007
1.00018
1.00042
1.00105
1.00221
1.00566
1.01148
1.03287
1.06149
1.21028
1.40177
2.45237
4.61764
10.9628
11.4333
11.1694
10.9058
10.9115
10.9718
11.1004
11.2048
11.2769
11.338
11.3952
11.4474
11.4953
11.5386
11.5749
11.61
11.6398
11.6651
11.6874
11.7047
11.7195
11.7341
11.7421
11.7497
1
1
1
1
1
1
1
1
1
1
1
1.00001
1.00002
1.00006
1.00016
1.00037
1.00093
1.00193
1.00502
1.01017
1.02918
1.05457
1.18761
1.34686
2.29648
4.13604
10.0155
11.3907
11.1566
10.8539
10.8509
10.9032
11.0228
11.1259
11.1944
11.2508
11.303
11.3509
11.3943
11.4336
11.4664
11.4974
11.523
11.5438
11.5616
11.5748
11.5859
11.5982
11.6047
11.6093
1
1
1
1
1
1
1
1
1
1
1
1.00001
1.00002
1.00005
1.00014
1.00032
1.00079
1.00164
1.00432
1.0086
1.02545
1.04587
1.16527
1.29161
2.13812
3.67509
8.91312
11.384
11.1234
10.7767
10.7726
10.8252
10.9419
11.0387
11.102
11.1527
11.1993
11.2409
11.2778
11.3111
11.3381
11.3628
11.3822
11.3963
11.4068
11.4139
11.4186
11.426
11.4298
11.436
1
1
1
1
1
1
1
1
1
1
1
1.00001
1.00002
1.00005
1.00012
1.00027
1.00067
1.00138
1.00368
1.00734
1.02151
1.03898
1.13917
1.24231
1.9461
3.19224
7.63369
11.4224
11.1252
10.7162
10.6956
10.745
10.8545
10.9449
11.0011
11.0446
11.0832
11.1172
11.1453
11.1695
11.188
11.2029
11.2122
11.2153
11.2146
11.2113
11.2048
11.2032
11.2003
11.1984
1
1
1
1
1
1
1
1
1
1
1
1.00001
1.00002
1.00004
1.0001
1.00022
1.00055
1.00113
1.00308
1.00621
1.01748
1.03447
1.10675
1.20353
1.71096
2.66648
6.0117
11.3745
11.1156
10.6926
10.6273
10.6654
10.7555
10.8394
10.8897
10.9244
10.9531
10.9773
10.9932
11.0054
11.0114
11.0108
11.0058
10.9931
10.9735
10.9511
10.9245
10.9035
10.8861
10.874
1
1
1
1
1
1
1
1
1
1
1
1.00001
1.00002
1.00003
1.00008
1.00018
1.00044
1.00091
1.00244
1.00501
1.0141
1.02784
1.08692
1.16158
1.57336
2.30683
4.98815
10.755
10.9095
10.6971
10.5502
10.5693
10.6319
10.7148
10.7623
10.789
10.8073
10.8191
10.8215
10.8191
10.81
10.7902
10.7599
10.7203
10.6708
10.6136
10.5467
10.4783
10.4174
10.3557
1
1
1
1
1
1
1
1
1
1
1
1.00001
1.00001
1.00002
1.00006
1.00012
1.00033
1.00067
1.00183
1.00365
1.01091
1.01933
1.0707
1.11501
1.46636
1.97559
4.20391
9.30373
10.7978
10.6827
10.4761
10.4647
10.4973
10.5678
10.6149
10.6345
10.6402
10.6385
10.6298
10.6082
10.5717
10.5238
10.4625
10.3855
10.2894
10.1715
10.0275
9.8615
9.68267
9.43075
1
1
1
1
1
1
1
1
1
1
1
1
1.00001
1.00002
1.00004
1.00009
1.00024
1.00049
1.00132
1.0027
1.00764
1.01458
1.04784
1.08106
1.31645
1.63142
3.14835
6.69124
10.8459
10.7701
10.5266
10.3912
10.3936
10.4121
10.4416
10.4465
10.4411
10.4233
10.3855
10.3317
10.2655
10.1797
10.0724
9.93501
9.75668
9.52245
9.19524
8.70969
7.96537
6.42051
1
1
1
1
1
1
1
1
1
1
1
1
1.00001
1.00001
1.00003
1.00007
1.00018
1.00038
1.00101
1.00208
1.00572
1.01153
1.03351
1.06339
1.21145
1.41017
2.44061
4.49249
10.2018
10.7067
10.5164
10.2624
10.1903
10.1953
10.207
10.2036
10.187
10.1459
10.0758
9.9928
9.89004
9.76137
9.59849
9.39118
9.12174
8.76641
8.28898
7.62426
6.75338
5.33526
1
1
1
1
1
1
1
1
1
1
1
1
1
1.00001
1.00002
1.00005
1.00012
1.00025
1.00069
1.00141
1.00393
1.00768
1.02392
1.04144
1.15744
1.26875
2.08096
3.47929
8.23378
10.47
10.3741
10.1167
9.95353
9.92432
9.92496
9.91754
9.8892
9.8257
9.73261
9.62242
9.4878
9.32057
9.11246
8.85425
8.53398
8.13079
7.62824
6.99116
6.23506
5.24414
1
1
1
1
1
1
1
1
1
1
1
1
1
1.00001
1.00001
1.00003
1.00008
1.00018
1.00047
1.00098
1.00268
1.00543
1.01538
1.03022
1.09263
1.1784
1.59635
2.35805
4.91662
9.87707
10.21
10.0437
9.79188
9.6983
9.67594
9.64759
9.59121
9.50614
9.39736
9.26868
9.10953
8.91632
8.68323
8.40295
8.07117
7.67304
7.20521
6.65605
6.04001
5.27404
1
1
1
1
1
1
1
1
1
1
1
1
1
1
1.00001
1.00002
1.00005
1.00012
1.00025
1.00068
1.00139
1.00394
1.00753
1.02437
1.041
1.16043
1.27082
2.0953
3.48784
8.07715
9.88942
9.84858
9.69183
9.51695
9.43727
9.38616
9.31747
9.22149
9.09896
8.95192
8.77973
8.57482
8.33544
8.05758
7.73699
7.3702
6.95316
6.48308
5.97009
5.34885
1
1
1
1
1
1
1
1
1
1
1
1
1
1
1.00001
1.00001
1.00003
1.00008
1.00016
1.00044
1.00091
1.00251
1.00507
1.01443
1.02822
1.08671
1.16666
1.55305
2.24595
4.54672
9.04477
9.72403
9.6319
9.42505
9.26331
9.16812
9.08034
8.97303
8.84383
8.68739
8.50642
8.29875
8.0621
7.79478
7.49497
7.1615
6.7937
6.38774
5.95281
5.44021
1
1
1
1
1
1
1
1
1
1
1
1
1
1
1
1.00001
1.00002
1.00004
1.0001
1.00021
1.00057
1.00114
1.00324
1.00616
1.01996
1.03321
1.13224
1.21636
1.89283
2.96616
6.67094
9.32484
9.47132
9.35498
9.12559
8.9752
8.86476
8.7494
8.61439
8.45524
8.27427
8.07057
7.84385
7.59269
7.31633
7.01361
6.68508
6.32841
5.94891
5.50599
1
1
1
1
1
1
1
1
1
1
1
1
1
1
1
1
1.00001
1.00002
1.00006
1.00012
1.00034
1.00069
1.00192
1.00386
1.01117
1.02118
1.06946
1.12188
1.44646
1.95965
3.8337
7.83111
9.14402
9.13824
9.03948
8.83843
8.66981
8.53537
8.39925
8.24433
8.06875
7.87345
7.65931
7.42602
7.17279
6.89914
6.60429
6.28646
5.94991
5.56069
1
1
1
1
1
1
1
1
1
1
1
1
1
1
1
1
1.00001
1.00001
1.00003
1.00006
1.00017
1.00036
1.00099
1.002
1.00563
1.01107
1.03322
1.06144
1.20714
1.40286
2.32547
4.07517
8.19371
8.95158
8.91021
8.77571
8.54036
8.35614
8.20445
8.05207
7.88521
7.70126
7.50077
7.28416
7.05136
6.80229
6.53631
6.25132
5.95045
5.6032
1
1
1
1
1
1
1
1
1
1
1
1
1
1
1
1
1
1.00001
1.00002
1.00003
1.00009
1.00018
1.00048
1.00096
1.00269
1.00514
1.01603
1.02676
1.10475
1.16677
1.67754
2.44074
5.10695
8.24348
8.70193
8.6452
8.48541
8.24973
8.05818
7.89655
7.73491
7.56172
7.37399
7.17211
6.95645
6.72682
6.48359
6.22404
5.95309
5.63948
1
1
1
1
1
1
1
1
1
1
1
1
1
1
1
1
1
1
1.00001
1.00002
1.00003
1.00009
1.00017
1.00047
1.00088
1.00281
1.00442
1.0183
1.02623
1.12204
1.1876
1.81616
2.70295
5.7513
8.05956
8.40872
8.35989
8.21372
7.98651
7.79242
7.62074
7.45319
7.27753
7.0898
6.88961
6.67781
6.45357
6.21828
5.96485
5.67787
1
1
1
1
1
1
1
1
1
1
1
1
1
1
1
1
1
1
1
1.00001
1.00002
1.00004
1.00009
1.00025
1.00051
1.00143
1.00283
1.00828
1.01553
1.05113
1.08868
1.32327
1.67013
2.98204
5.74761
7.7473
8.13791
8.10801
7.98633
7.78099
7.58929
7.40473
7.22383
7.03919
6.84937
6.65099
6.44578
6.22336
5.9889
5.72178
1
1
1
1
1
1
1
1
1
1
1
1
1
1
1
1
1
1
1
1
1.00001
1.00002
1.00004
1.00009
1.00025
1.0005
1.00144
1.00285
1.00838
1.01607
1.0503
1.09652
1.31198
1.66821
2.88868
5.43818
7.44756
7.89451
7.88396
7.79076
7.59891
7.40292
7.20914
7.02576
6.84192
6.65076
6.44967
6.23817
6.01896
5.77095
1
1
1
1
1
1
1
1
1
1
1
1
1
1
1
1
1
1
1
1
1
1.00001
1.00002
1.00004
1.00008
1.00024
1.00047
1.00136
1.00268
1.00796
1.01516
1.04761
1.09045
1.29255
1.61453
2.72291
5.02944
7.11865
7.64938
7.66425
7.58968
7.41751
7.21089
7.01606
6.83147
6.6488
6.45921
6.26232
6.05726
5.82219
1
1
1
1
1
1
1
1
1
1
1
1
1
1
1
1
1
1
1
1
1
1
1.00001
1.00001
1.00003
1.00007
1.00012
1.00039
1.00055
1.00236
1.00307
1.01584
1.02048
1.10816
1.15536
1.67379
2.3355
4.50885
6.74582
7.37194
7.43685
7.37341
7.2141
7.01364
6.82557
6.6496
6.46887
6.28201
6.08929
5.87054
1
1
1
1
1
1
1
1
1
1
1
1
1
1
1
1
1
1
1
1
1
1
1
1.00001
1.00001
1.00003
1.00007
1.00014
1.00039
1.00071
1.00224
1.00331
1.01414
1.01798
1.09271
1.12575
1.57138
2.04308
3.79485
6.31525
7.06513
7.17315
7.13196
7.00779
6.82948
6.66141
6.49081
6.31115
6.12829
5.92025
1
1
1
1
1
1
1
1
1
1
1
1
1
1
1
1
1
1
1
1
1
1
1
1
1
1.00001
1.00002
1.00006
1.00013
1.00036
1.00069
1.00201
1.00376
1.01174
1.02059
1.07162
1.1218
1.42601
1.84463
3.20658
5.67733
6.59805
6.88069
6.88244
6.83026
6.71104
6.54589
6.37324
6.19383
5.98936
1
1
1
1
1
1
1
1
1
1
1
1
1
1
1
1
1
1
1
1
1
1
1
1
1
1
1.00001
1.00002
1.00005
1.0001
1.00027
1.00052
1.00152
1.00287
1.00874
1.01587
1.05119
1.09415
1.29961
1.60178
2.58557
4.45344
5.98389
6.56473
6.70607
6.67911
6.59827
6.45156
6.28199
6.07628
1
1
1
1
1
1
1
1
1
1
1
1
1
1
1
1
1
1
1
1
1
1
1
1
1
1
1
1.00001
1.00001
1.00003
1.00007
1.00014
1.00039
1.00064
1.00217
1.0027
1.0136
1.01486
1.09114
1.11046
1.52126
1.85996
3.196
5.37624
6.20252
6.47964
6.48479
6.43959
6.33064
6.14509
1
1
1
1
1
1
1
1
1
1
1
1
1
1
1
1
1
1
1
1
1
1
1
1
1
1
1
1
1
1.00001
1.00002
1.00005
1.0001
1.00028
1.00052
1.00157
1.0028
1.00901
1.01543
1.05272
1.09151
1.29758
1.56742
2.46315
4.09213
5.58913
6.13092
6.26814
6.2421
6.14447
1
1
1
1
1
1
1
1
1
1
1
1
1
1
1
1
1
1
1
1
1
1
1
1
1
1
1
1
1
1
1
1.00001
1.00003
1.00004
1.00016
1.00029
1.00092
1.00166
1.00536
1.00917
1.03107
1.05213
1.17636
1.30255
1.88517
2.69127
4.77582
5.5992
5.92768
5.9232
1
1
1
1
1
1
1
1
1
1
1
1
1
1
1
1
1
1
1
1
1
1
1
1
1
1
1
1
1
1
1
1
1
1.00001
1.00001
1.00006
1.00007
1.00034
1.0004
1.00215
1.00228
1.01589
1.01687
1.10331
1.12458
1.53365
1.84535
3.0741
4.76063
5.29633
1
1
1
1
1
1
1
1
1
1
1
1
1
1
1
1
1
1
1
1
1
1
1
1
1
1
1
1
1
1
1
1
1
1
1
1.00001
1.00001
1.00006
1.00008
1.0004
1.00061
1.00263
1.00362
1.0182
1.01959
1.11721
1.14247
1.51783
1.98485
3.05472
1
1
1
1
1
1
1
1
1
1
1
1
1
1
1
1
1
1
1
1
1
1
1
1
1
1
1
1
1
1
1
1
1
1
1
1
1
1.00001
1.00003
1.00004
1.00019
1.00022
1.00114
1.00162
1.00724
1.00877
1.05772
1.05889
1.33746
1.55905
1
1
1
1
1
1
1
1
1
1
1
1
1
1
1
1
1
1
1
1
1
1
1
1
1
1
1
1
1
1
1
1
1
1
1
1
1
1
1.00001
1.00001
1.00004
1.00004
1.00029
1.0004
1.00175
1.00192
1.01441
1.01322
1.1041
1.16446
1
1
1
1
1
1
1
1
1
1
1
1
1
1
1
1
1
1
1
1
1
1
1
1
1
1
1
1
1
1
1
1
1
1
1
1
1
1
1
1
1.00001
1.00004
1.00005
1.00026
1.00036
1.00212
1.00236
1.01838
1.02261
1.10349
1
1
1
1
1
1
1
1
1
1
1
1
1
1
1
1
1
1
1
1
1
1
1
1
1
1
1
1
1
1
1
1
1
1
1
1
1
1
1
1
1
1.00002
1.00003
1.00012
1.00015
1.00107
1.00122
1.00806
1.01086
1.04709
1
1
1
1
1
1
1
1
1
1
1
1
1
1
1
1
1
1
1
1
1
1
1
1
1
1
1
1
1
1
1
1
1
1
1
1
1
1
1
1
1
1.00001
1.00001
1.00005
1.00004
1.0005
1.00045
1.00392
1.00513
1.02255
1
1
1
1
1
1
1
1
1
1
1
1
1
1
1
1
1
1
1
1
1
1
1
1
1
1
1
1
1
1
1
1
1
1
1
1
1
1
1
1
1
1
1.00001
1.00002
1.00004
1.00022
1.00025
1.00188
1.00243
1.01088
1
1
1
1
1
1
1
1
1
1
1
1
1
1
1
1
1
1
1
1
1
1
1
1
1
1
1
1
1
1
1
1
1
1
1
1
1
1
1
1
1
1
1
1.00001
1.00002
1.00011
1.00012
1.00086
1.00112
1.00511
1
1
1
1
1
1
1
1
1
1
1
1
1
1
1
1
1
1
1
1
1
1
1
1
1
1
1
1
1
1
1
1
1
1
1
1
1
1
1
1
1
1
1
1.00001
1.00001
1.00005
1.00005
1.00041
1.00052
1.0024
1
1
1
1
1
1
1
1
1
1
1
1
1
1
1
1
1
1
1
1
1
1
1
1
1
1
1
1
1
1
1
1
1
1
1
1
1
1
1
1
1
1
1
1.00001
1.00001
1.00003
1.00005
1.00005
1.00044
1.00071
1
1
1
1
1
1
1
1
1
1
1
1
1
1
1
1
1
1
1
1
1
1
1
1
1
1
1
1
1
1
1
1
1
1
1
1
1
1
1
1
1
1
1
1
1
1.00001
1.00001
1.00008
1.0001
1.00051
1
1
1
1
1
1
1
1
1
1
1
1
1
1
1
1
1
1
1
1
1
1
1
1
1
1
1
1
1
1
1
1
1
1
1
1
1
1
1
1
1
1
1
1
1
1.00001
1.00001
1.00001
1.00009
1.00014
1
1
1
1
1
1
1
1
1
1
1
1
1
1
1
1
1
1
1
1
1
1
1
1
1
1
1
1
1
1
1
1
1
1
1
1
1
1
1
1
1
1
1
1
1
1
1
1.00002
1.00002
1.0001
1
1
1
1
1
1
1
1
1
1
1
1
1
1
1
1
1
1
1
1
1
1
1
1
1
1
1
1
1
1
1
1
1
1
1
1
1
1
1
1
1
1
1
1
1
1
1
1.00001
1.00001
1.00004
1
1
1
1
1
1
1
1
1
1
1
1
1
1
1
1
1
1
1
1
1
1
1
1
1
1
1
1
1
1
1
1
1
1
1
1
1
1
1
1
1
1
1
1
1
1
1
1
1
1.00002
1
1
1
1
1
1
1
1
1
1
1
1
1
1
1
1
1
1
1
1
1
1
1
1
1
1
1
1
1
1
1
1
1
1
1
1
1
1
1
1
1
1
1
1
1
1
1
1
1
1.00001
1
1
1
1
1
1
1
1
1
1
1
1
1
1
1
1
1
1
1
1
1
1
1
1
1
1
1
1
1
1
1
1
1
1
1
1
1
1
1
1
1
1
1
1
1
1
1
1
1
1
1
1
1
1
1
1
1
1
1
1
1
1
1
1
1
1
1
1
1
1
1
1
1
1
1
1
1
1
1
1
1
1
1
1
1
1
1
1
1
1
1
1
1
1
1
1
1
1
1
1
2.14249
1.11566
0.752904
0.636883
0.648649
0.695385
0.802426
1.01821
1.13691
1.152
1.14975
1.14396
1.1443
1.14638
1.15192
1.16336
1.17351
1.17607
1.17573
1.17452
1.17175
1.16614
1.15984
1.15415
1.14866
1.14292
1.13668
1.12993
1.12277
1.11538
1.10793
1.10054
1.09327
1.08591
1.07853
1.07106
1.06351
1.0559
1.04818
1.04028
1.03219
1.02395
1.01556
1.007
0.998292
0.989421
0.980426
0.971428
0.962513
0.953711
0.945093
0.936742
0.92871
0.921038
0.913752
0.906864
0.900363
0.894235
0.888475
0.883078
0.878057
0.873412
0.869116
0.865153
0.861513
0.858207
0.855225
0.852545
0.850189
0.848116
0.846369
0.844931
0.843867
0.843128
0.84266
0.842565
0.842575
0.842633
0.842815
0.843202
0.844023
0.845213
0.846154
0.847385
0.848588
0.85059
0.851653
0.853274
0.85501
0.856837
0.858828
0.860912
0.863039
0.865062
0.867597
0.870131
0.872178
0.876299
0.879075
0.885877
2.82635
1.75985
1.31212
1.12596
1.05466
1.01661
0.974334
0.978377
0.992895
1.02476
1.08868
1.14971
1.18116
1.18085
1.17919
1.17532
1.16988
1.16741
1.16725
1.16711
1.1667
1.16563
1.16322
1.15828
1.15129
1.14396
1.13659
1.12927
1.12212
1.11499
1.10779
1.10069
1.09343
1.08599
1.07863
1.07106
1.06337
1.0557
1.04795
1.04003
1.03186
1.02352
1.01515
1.00657
0.99784
0.989
0.980017
0.97097
0.9621
0.953436
0.944828
0.9365
0.928501
0.920862
0.913602
0.906736
0.900257
0.894146
0.888404
0.883006
0.877953
0.873286
0.868968
0.864969
0.861315
0.858019
0.855063
0.852377
0.850053
0.84801
0.846351
0.844952
0.843891
0.843192
0.842672
0.842557
0.842567
0.842624
0.842788
0.843163
0.843955
0.845009
0.846097
0.847334
0.848792
0.850339
0.851407
0.853414
0.854721
0.856968
0.858881
0.860868
0.862959
0.865179
0.867517
0.87
0.872593
0.875853
0.878466
0.883605
3.70643
2.73565
2.09237
1.65363
1.35344
1.15215
1.01081
0.967045
0.97126
0.985952
1.01855
1.0778
1.12507
1.15788
1.17349
1.17346
1.17298
1.17172
1.16909
1.16691
1.16548
1.16261
1.1591
1.15436
1.14844
1.14176
1.13495
1.12816
1.12131
1.11453
1.10759
1.10037
1.09325
1.08593
1.07828
1.0706
1.06283
1.05499
1.04728
1.03926
1.03075
1.02248
1.0141
1.00552
0.996819
0.988002
0.979108
0.970251
0.961494
0.952853
0.944385
0.936178
0.928271
0.920701
0.913488
0.906642
0.900181
0.89407
0.888337
0.882957
0.877855
0.873168
0.868956
0.865043
0.861288
0.857881
0.85486
0.852157
0.849798
0.847808
0.846025
0.844703
0.84355
0.842864
0.842379
0.842269
0.842278
0.842334
0.842491
0.842853
0.843612
0.844703
0.845842
0.847172
0.84853
0.850108
0.851251
0.853297
0.854752
0.85685
0.858686
0.860835
0.862972
0.865293
0.867601
0.870037
0.87255
0.8757
0.877988
0.882466
4.14226
3.29214
2.60875
2.0967
1.7323
1.47866
1.30698
1.18537
1.10362
1.05566
1.05577
1.05958
1.07045
1.09304
1.12272
1.14877
1.16955
1.17493
1.17456
1.17318
1.17006
1.16386
1.15785
1.15252
1.14679
1.14079
1.13466
1.12846
1.12192
1.11502
1.10809
1.10117
1.09378
1.08622
1.07851
1.07055
1.0626
1.05484
1.04675
1.03822
1.02992
1.02159
1.01309
1.00451
0.995856
0.987113
0.978319
0.969593
0.960969
0.952461
0.944121
0.936024
0.928219
0.920736
0.913602
0.906828
0.900401
0.894318
0.888592
0.883204
0.878112
0.873284
0.868831
0.864858
0.861225
0.857898
0.854894
0.852224
0.849852
0.847822
0.84615
0.844712
0.843701
0.842897
0.842407
0.842355
0.842362
0.842412
0.842564
0.842889
0.843507
0.844742
0.845765
0.847209
0.848454
0.850043
0.851492
0.853196
0.854859
0.856822
0.858814
0.860887
0.863065
0.865401
0.867722
0.870373
0.872649
0.87601
0.878074
0.882222
4.42665
3.69179
3.04921
2.52242
2.11397
1.80474
1.57004
1.39199
1.25828
1.15564
1.09537
1.06665
1.0673
1.07107
1.08043
1.09949
1.11999
1.13831
1.1534
1.15955
1.15946
1.15874
1.15669
1.15234
1.14545
1.13893
1.13223
1.12554
1.11887
1.11232
1.10578
1.09903
1.09203
1.08478
1.07708
1.06908
1.06119
1.05318
1.04468
1.03618
1.02778
1.01931
1.01081
1.00229
0.993776
0.985238
0.976643
0.968148
0.959805
0.951541
0.943391
0.935482
0.927849
0.920488
0.913431
0.906708
0.900309
0.894223
0.888454
0.883014
0.877961
0.873348
0.86906
0.864962
0.861153
0.857691
0.854589
0.851859
0.849429
0.847359
0.845671
0.84425
0.843169
0.842388
0.841916
0.841799
0.841809
0.841879
0.84207
0.842391
0.843024
0.844274
0.845344
0.846667
0.848086
0.84962
0.851237
0.852948
0.854778
0.856713
0.85875
0.860897
0.863151
0.865519
0.867906
0.870826
0.87276
0.876277
0.878275
0.88242
4.64933
4.01071
3.42301
2.90447
2.47415
2.13007
1.85864
1.64759
1.48249
1.35557
1.25318
1.17331
1.12431
1.09433
1.08594
1.08712
1.09096
1.09941
1.1141
1.12854
1.14185
1.14935
1.14941
1.14886
1.14708
1.14316
1.13542
1.12772
1.12034
1.11307
1.10598
1.09904
1.09203
1.0847
1.07699
1.06909
1.06097
1.05258
1.04403
1.03539
1.02676
1.01815
1.00957
1.00106
0.992624
0.984215
0.975826
0.9675
0.95939
0.951446
0.943463
0.935593
0.928194
0.920998
0.914041
0.907366
0.900992
0.894932
0.889186
0.883733
0.878568
0.873681
0.869092
0.864971
0.861286
0.857898
0.854842
0.852129
0.849695
0.847616
0.845919
0.844484
0.843383
0.842583
0.842057
0.841977
0.84199
0.84205
0.842216
0.842586
0.843343
0.844349
0.845525
0.846907
0.848409
0.85003
0.851759
0.853594
0.855515
0.857515
0.859654
0.861886
0.864142
0.866689
0.869059
0.87194
0.873813
0.877469
0.879455
0.883715
4.81837
4.2574
3.72601
3.23241
2.80071
2.43821
2.14029
1.89853
1.70213
1.54299
1.4126
1.3093
1.2225
1.15875
1.11875
1.09488
1.08667
1.08725
1.0894
1.09448
1.10476
1.11566
1.12532
1.13163
1.13275
1.13236
1.13097
1.12773
1.12112
1.11324
1.10533
1.09744
1.08961
1.08176
1.07383
1.06573
1.05752
1.04922
1.04079
1.03226
1.0237
1.01515
1.00663
0.998191
0.989902
0.981666
0.973455
0.96547
0.957724
0.949941
0.942168
0.934759
0.92755
0.920518
0.913696
0.907123
0.900815
0.894772
0.889013
0.883559
0.878439
0.873679
0.869244
0.865084
0.861213
0.85768
0.854519
0.85174
0.849251
0.847119
0.845404
0.843937
0.842805
0.842002
0.841477
0.841443
0.841466
0.841546
0.841764
0.842241
0.843145
0.844399
0.845746
0.847452
0.849184
0.851249
0.853203
0.85557
0.857811
0.860214
0.862644
0.865142
0.86754
0.8703
0.872349
0.875344
0.877116
0.880671
0.882619
0.887065
4.95007
4.45065
3.97052
3.50848
3.08754
2.72009
2.40703
2.14477
1.92634
1.7451
1.59495
1.47062
1.36796
1.28272
1.21055
1.15804
1.12171
1.09993
1.08692
1.08702
1.08797
1.09056
1.09595
1.10555
1.11374
1.11968
1.12103
1.12067
1.1193
1.11609
1.10951
1.10078
1.09167
1.08251
1.07345
1.0645
1.0558
1.04733
1.039
1.03062
1.02219
1.01375
1.00534
0.997074
0.98894
0.980814
0.972849
0.965169
0.957536
0.949938
0.942545
0.935312
0.928265
0.921386
0.914665
0.908156
0.901898
0.895882
0.890115
0.884608
0.879385
0.874482
0.869896
0.865672
0.861841
0.858333
0.855164
0.85236
0.849846
0.847698
0.845961
0.844462
0.843354
0.842596
0.842231
0.842258
0.842369
0.842646
0.84322
0.844293
0.84589
0.848018
0.850269
0.853
0.855518
0.858852
0.861789
0.865368
0.868423
0.871563
0.874531
0.877722
0.880125
0.883379
0.885163
0.888416
0.889854
0.892799
0.894573
0.898957
5.05583
4.60286
4.16661
3.73741
3.3343
2.97112
2.65232
2.37772
2.14346
1.94465
1.77607
1.63341
1.51238
1.40921
1.32305
1.2493
1.18664
1.1434
1.11315
1.0945
1.08371
1.08212
1.08255
1.08397
1.08715
1.09364
1.09954
1.10422
1.1042
1.10376
1.1023
1.099
1.09214
1.08273
1.07287
1.06295
1.05336
1.04427
1.03549
1.02669
1.01817
1.00984
1.00169
0.993755
0.985953
0.978169
0.970523
0.963092
0.955613
0.948217
0.941035
0.934007
0.927177
0.920495
0.913934
0.907575
0.901489
0.895601
0.8899
0.884432
0.879236
0.874348
0.869773
0.865527
0.861638
0.858083
0.854861
0.852031
0.849526
0.847404
0.845729
0.844376
0.843506
0.843293
0.843452
0.843872
0.844767
0.846364
0.848706
0.851751
0.855659
0.860223
0.865524
0.871522
0.877623
0.884592
0.891099
0.898281
0.904214
0.910612
0.915299
0.92056
0.923434
0.927274
0.92852
0.930909
0.931089
0.931582
0.932399
0.935883
5.13935
4.72403
4.32534
3.92738
3.54535
3.1922
2.87452
2.59407
2.34968
2.13795
1.95537
1.79809
1.66304
1.54656
1.44707
1.3613
1.29002
1.22688
1.17421
1.13602
1.10892
1.09108
1.08047
1.07583
1.07593
1.07642
1.07776
1.08061
1.08507
1.08794
1.08783
1.08721
1.08547
1.08164
1.07393
1.06458
1.05459
1.04446
1.03465
1.02528
1.01639
1.00792
0.999925
0.992249
0.984708
0.977396
0.970229
0.962902
0.95568
0.948715
0.941688
0.93468
0.928043
0.921636
0.915106
0.908797
0.902836
0.897036
0.891334
0.88584
0.880668
0.875762
0.87115
0.866844
0.862921
0.859367
0.856185
0.853478
0.851205
0.84945
0.848262
0.848049
0.84833
0.84921
0.851185
0.854257
0.859256
0.865999
0.874598
0.885201
0.897863
0.91225
0.927919
0.944672
0.961707
0.978893
0.995059
1.01067
1.02334
1.03529
1.04302
1.05122
1.05398
1.05626
1.05572
1.05395
1.05006
1.0453
1.04015
1.04365
5.21303
4.82624
4.45804
4.08787
3.72693
3.38658
3.07413
2.79258
2.54249
2.32203
2.12895
1.96016
1.81323
1.68507
1.5738
1.47691
1.3932
1.32031
1.25833
1.20397
1.15891
1.1258
1.10156
1.08479
1.07407
1.06823
1.06589
1.06465
1.06482
1.06542
1.0667
1.06751
1.06731
1.06652
1.06449
1.06021
1.05258
1.04341
1.03367
1.02395
1.01462
1.0058
0.99742
0.989509
0.982094
0.974778
0.967487
0.960582
0.953654
0.946594
0.939793
0.933264
0.926639
0.920215
0.913951
0.907784
0.90188
0.896276
0.890745
0.885262
0.880109
0.875335
0.870832
0.866642
0.862873
0.859561
0.856759
0.854661
0.853231
0.853619
0.854603
0.856687
0.861217
0.868469
0.879688
0.894896
0.914514
0.938376
0.966702
0.998844
1.03395
1.07301
1.11758
1.16471
1.21037
1.25116
1.28542
1.31365
1.33409
1.34887
1.3573
1.36249
1.36181
1.3601
1.35584
1.34769
1.33024
1.31578
1.30065
1.31098
5.28591
4.91892
4.57403
4.22742
3.88583
3.55882
3.25346
2.97392
2.72142
2.49571
2.29513
2.11774
1.96133
1.82372
1.70293
1.59692
1.50423
1.42304
1.35217
1.2902
1.23656
1.18884
1.149
1.1182
1.09456
1.07725
1.06534
1.0577
1.05321
1.04978
1.04776
1.04779
1.0479
1.04783
1.04749
1.04647
1.04424
1.03959
1.03233
1.02404
1.01525
1.00633
0.997608
0.989513
0.981666
0.974016
0.967026
0.96008
0.953154
0.946662
0.940429
0.933872
0.927479
0.921229
0.915045
0.909024
0.90332
0.897773
0.892264
0.886871
0.881895
0.877245
0.873008
0.869265
0.866253
0.863996
0.863951
0.864796
0.867469
0.873475
0.883405
0.899631
0.922981
0.954416
0.994168
1.04192
1.10137
1.17897
1.26178
1.33783
1.40362
1.4542
1.48812
1.50748
1.5184
1.52361
1.52512
1.52532
1.52394
1.52099
1.51674
1.51401
1.5089
1.50571
1.49951
1.49513
1.48638
1.48306
1.48217
1.4851
5.36049
5.00494
4.67734
4.35002
4.02565
3.71164
3.41455
3.13881
2.88639
2.6579
2.45242
2.26888
2.10542
1.9604
1.83195
1.71839
1.61799
1.52924
1.45073
1.38108
1.31926
1.26434
1.21552
1.17176
1.13515
1.10586
1.08278
1.06521
1.0523
1.04352
1.0375
1.03294
1.02982
1.02846
1.02829
1.02809
1.02752
1.02625
1.02359
1.01872
1.01248
1.00528
0.99746
0.989393
0.981307
0.973563
0.965931
0.958657
0.951919
0.945336
0.938543
0.932057
0.925861
0.919779
0.913736
0.907934
0.902437
0.896963
0.891556
0.886572
0.882041
0.878111
0.875063
0.873656
0.874619
0.877592
0.883945
0.895287
0.91558
0.947037
0.990369
1.04585
1.12142
1.22759
1.34001
1.43746
1.51174
1.55192
1.57101
1.58077
1.58538
1.58634
1.58503
1.58225
1.57799
1.57341
1.56675
1.56231
1.55503
1.55025
1.54325
1.53909
1.53276
1.52922
1.52316
1.51911
1.51255
1.50884
1.50572
1.50708
5.43156
5.09084
4.77564
4.46168
4.15112
3.84863
3.55982
3.28894
3.03848
2.80939
2.60148
2.41394
2.24561
2.09495
1.96048
1.84063
1.73381
1.63847
1.55329
1.47686
1.40811
1.34615
1.29013
1.23973
1.19424
1.15321
1.11849
1.09025
1.06754
1.04996
1.03668
1.02719
1.02073
1.0155
1.01187
1.01029
1.00979
1.00952
1.00898
1.00783
1.00547
1.00201
0.996447
0.990214
0.983127
0.975439
0.967685
0.960244
0.952812
0.94551
0.938583
0.932076
0.925907
0.919967
0.914323
0.909035
0.903869
0.898891
0.894362
0.890646
0.887836
0.888765
0.891338
0.896907
0.908833
0.930694
0.96824
1.02148
1.09188
1.20154
1.34034
1.46867
1.56325
1.60791
1.62823
1.63894
1.64294
1.64119
1.63694
1.63017
1.62157
1.61309
1.60369
1.59607
1.58709
1.58059
1.57209
1.56641
1.55834
1.55319
1.54608
1.54146
1.5351
1.53132
1.52545
1.52145
1.51542
1.51131
1.50763
1.50859
5.50156
5.17217
4.86712
4.56552
4.26545
3.97265
3.69179
3.42663
3.17961
2.95187
2.7435
2.55394
2.38239
2.22752
2.08823
1.96294
1.85039
1.74903
1.65757
1.57476
1.49954
1.43093
1.36837
1.3112
1.25905
1.21196
1.16932
1.13101
1.09819
1.07157
1.05002
1.03297
1.0201
1.01052
1.00372
0.998728
0.99508
0.993159
0.992851
0.992658
0.992213
0.99122
0.989224
0.985921
0.981042
0.974849
0.968152
0.961201
0.953571
0.945964
0.938614
0.931693
0.925236
0.919148
0.913691
0.908783
0.904438
0.900988
0.90083
0.902295
0.907157
0.918552
0.938125
0.976531
1.03542
1.11454
1.25026
1.41102
1.55728
1.6406
1.67463
1.69272
1.70113
1.69859
1.69259
1.68271
1.67081
1.6591
1.64737
1.63692
1.62606
1.61651
1.60629
1.59801
1.58805
1.5811
1.5721
1.56575
1.55745
1.55181
1.54485
1.53982
1.53358
1.5297
1.52391
1.5202
1.51426
1.51052
1.50665
1.50742
5.56774
5.24808
4.9518
4.65809
4.36808
4.08484
3.81226
3.55383
3.31157
3.08663
2.87923
2.68907
2.51558
2.35769
2.2145
2.0846
1.96683
1.85991
1.76252
1.67368
1.59229
1.51763
1.44899
1.38595
1.32808
1.27514
1.2269
1.18343
1.14419
1.10926
1.07824
1.0531
1.03284
1.01665
1.0039
0.99473
0.988068
0.983086
0.980248
0.978503
0.977867
0.977623
0.977278
0.976521
0.974961
0.971851
0.967298
0.961664
0.954782
0.947601
0.940402
0.933436
0.927026
0.921327
0.916977
0.913939
0.91513
0.918795
0.926855
0.943314
0.977151
1.03616
1.11838
1.26125
1.44442
1.61339
1.69944
1.73485
1.75501
1.76097
1.75612
1.745
1.73168
1.71687
1.70241
1.68837
1.67471
1.66176
1.64872
1.63679
1.62469
1.61354
1.60212
1.59159
1.58088
1.57156
1.56169
1.55359
1.54489
1.53812
1.53095
1.52555
1.51898
1.51515
1.50941
1.50642
1.50082
1.49803
1.49388