/*--------------------------------*- C++ -*----------------------------------*\
| =========                 |                                                 |
| \\      /  F ield         | OpenFOAM: The Open Source CFD Toolbox           |
|  \\    /   O peration     | Version:  2112                                  |
|   \\  /    A nd           | Website:  www.openfoam.com                      |
|    \\/     M anipulation  |                                                 |
\*---------------------------------------------------------------------------*/
FoamFile
{
    version     2.0;
    format      ascii;
    arch        "LSB;label=32;scalar=64";
    class       surfaceScalarField;
    location    "1";
    object      phi;
}
// * * * * * * * * * * * * * * * * * * * * * * * * * * * * * * * * * * * * * //

dimensions      [1 0 -1 0 0 0 0];

oriented        oriented;

internalField   nonuniform List<scalar> 
13790
(
0.00290515
4.00026e-09
0.00290515
1.98797e-09
0.00290515
5.87495e-10
0.00290515
2.938e-11
0.00290515
6.24148e-11
0.00290515
4.21268e-10
0.00290515
7.28157e-10
0.00290514
9.90585e-10
0.00290514
1.19645e-09
0.00290514
1.3519e-09
0.00290514
1.60372e-09
0.00290514
1.73575e-09
0.00290514
9.58714e-11
0.00290514
-1.47595e-09
0.00290512
-5.37967e-10
0.0029051
4.90934e-09
0.00290498
3.43147e-08
0.00290481
7.54257e-08
0.00290419
2.49941e-07
0.00290315
4.52978e-07
0.00290034
7.13264e-07
0.00289511
1.78538e-06
0.00288479
8.14627e-07
0.00288965
-1.91625e-06
0.00286147
-1.72306e-05
0.00264253
0.000130839
0.00251238
0.000131212
0.002375
0.000138123
0.00223414
0.000134311
0.00211698
0.000118837
0.00201886
9.92473e-05
0.00193772
8.08264e-05
0.00186276
6.95139e-05
0.00178545
6.69342e-05
0.00170601
7.14217e-05
0.00162274
8.07811e-05
0.00153078
9.22697e-05
0.00143038
0.000102855
0.00132437
0.000110558
0.00121001
0.000116112
0.00109094
0.000116493
0.000975489
0.000114558
0.000862435
0.000113042
0.000753132
0.000110973
0.000644646
0.000111216
0.000531162
0.000113347
0.0004193
0.000113497
0.000300515
0.000121703
0.00015917
0.000137402
0.000151947
0.00301309
4.50492e-09
0.00301309
3.24021e-09
0.00301309
2.1671e-09
0.00301309
1.57538e-09
0.00301309
1.34182e-09
0.00301309
1.47963e-09
0.00301309
1.68237e-09
0.00301309
1.86682e-09
0.00301308
2.23002e-09
0.00301308
2.53091e-09
0.00301308
2.74151e-09
0.00301308
2.79298e-09
0.00301308
4.86496e-10
0.00301308
-1.26972e-09
0.00301306
6.32444e-10
0.00301304
8.45647e-09
0.00301295
3.91609e-08
0.00301284
9.44429e-08
0.00301245
2.66995e-07
0.00301177
5.08999e-07
0.00300933
9.66062e-07
0.00300592
1.77374e-06
0.0029935
3.27096e-06
0.00299304
3.14597e-06
0.00291911
9.99106e-06
0.00268524
0.000274116
0.00254077
0.000277491
0.0024136
0.000266194
0.00228733
0.000255138
0.00218305
0.000225851
0.00208921
0.000193085
0.00200687
0.000162965
0.00192561
0.000146378
0.00183793
0.000144983
0.00174628
0.000155378
0.00165097
0.000173396
0.00154921
0.000194007
0.00144194
0.000212539
0.00133102
0.000226184
0.00121236
0.000235072
0.00109025
0.000235844
0.000970806
0.000233402
0.000853365
0.000230731
0.000738428
0.000227968
0.000623118
0.000228958
0.000504954
0.000231253
0.00038678
0.000233772
0.000264587
0.000246706
0.000130655
0.000264967
0.000276232
0.00312505
4.76325e-09
0.00312504
4.17311e-09
0.00312504
3.53156e-09
0.00312504
3.05182e-09
0.00312504
2.56279e-09
0.00312504
2.55691e-09
0.00312504
2.73669e-09
0.00312504
2.92754e-09
0.00312504
3.08369e-09
0.00312504
3.22363e-09
0.00312504
3.36376e-09
0.00312504
3.36896e-09
0.00312503
1.37276e-09
0.00312503
-3.67196e-10
0.00312501
3.36083e-09
0.00312499
1.49389e-08
0.0031249
5.29384e-08
0.00312477
1.24263e-07
0.00312436
3.15336e-07
0.00312368
5.60286e-07
0.00312095
1.40824e-06
0.00311713
2.38753e-06
0.00310369
6.4603e-06
0.00310077
1.02706e-05
0.00302077
4.12417e-05
0.00274761
0.000450603
0.00260363
0.000426681
0.00248046
0.000391416
0.00236335
0.000368544
0.0022634
0.000329149
0.0021705
0.000284812
0.00208609
0.000246476
0.00200052
0.000227215
0.00190707
0.000229052
0.0018089
0.000246662
0.00170638
0.000273817
0.00159722
0.000303264
0.00148311
0.000329012
0.00136575
0.000348007
0.00124053
0.000359178
0.00111324
0.000360202
0.000988436
0.000357831
0.000865298
0.000354329
0.000744444
0.000351269
0.000622986
0.000352677
0.000499638
0.0003544
0.000377879
0.000358133
0.000253772
0.000373437
0.000120847
0.000388934
0.000391689
0.00324116
4.63768e-09
0.00324116
4.31718e-09
0.00324116
4.15285e-09
0.00324116
4.06676e-09
0.00324115
3.86259e-09
0.00324115
3.85204e-09
0.00324115
3.87702e-09
0.00324115
3.90438e-09
0.00324115
3.94007e-09
0.00324115
3.99424e-09
0.00324115
4.06992e-09
0.00324115
4.00694e-09
0.00324115
2.43991e-09
0.00324114
1.46704e-09
0.00324112
6.7424e-09
0.0032411
2.12313e-08
0.00324101
6.51649e-08
0.00324088
1.54101e-07
0.00324046
3.74894e-07
0.00323975
6.91817e-07
0.00323715
1.82129e-06
0.00323314
3.29154e-06
0.00322013
9.30666e-06
0.00320837
2.14298e-05
0.00312283
8.11834e-05
0.00283012
0.000638967
0.00268711
0.000579067
0.0025699
0.000511902
0.00246224
0.000473966
0.00237026
0.0004248
0.00227838
0.000374808
0.00219031
0.000333869
0.00209685
0.000316711
0.00199274
0.000324074
0.00188327
0.000349178
0.00177021
0.000384476
0.00165209
0.000421201
0.00153063
0.000452704
0.00140686
0.000475958
0.00127518
0.00048902
0.00114224
0.000490046
0.00101205
0.00048767
0.000883607
0.000483413
0.000757472
0.000480179
0.000630624
0.000481604
0.000502762
0.000482281
0.000377278
0.000486714
0.000250697
0.000502347
0.000117153
0.000511648
0.000504456
0.00336158
4.47093e-09
0.00336158
4.37886e-09
0.00336158
4.55295e-09
0.00336158
4.7608e-09
0.00336158
4.84365e-09
0.00336158
4.82079e-09
0.00336158
4.77706e-09
0.00336158
4.73081e-09
0.00336158
4.6881e-09
0.00336158
4.65727e-09
0.00336158
4.64517e-09
0.00336158
4.47915e-09
0.00336157
3.31837e-09
0.00336157
3.45853e-09
0.00336155
1.04608e-08
0.00336153
2.87947e-08
0.00336143
8.05828e-08
0.00336132
1.86685e-07
0.00336083
4.43421e-07
0.00336018
8.21093e-07
0.00335739
2.30065e-06
0.00335243
4.4321e-06
0.00334063
1.18993e-05
0.00331547
3.65821e-05
0.00323656
0.000121155
0.00292034
0.000836052
0.00278004
0.000735017
0.00267192
0.000624754
0.00257536
0.000570421
0.00249197
0.000512527
0.0024029
0.000461439
0.00231284
0.000423262
0.00221321
0.000413082
0.00209924
0.000429111
0.00197808
0.00046316
0.00185311
0.000506657
0.00172399
0.000549797
0.00159286
0.000585897
0.0014603
0.00061213
0.00132053
0.000626039
0.00118069
0.000626478
0.00104408
0.000623884
0.000909486
0.000618721
0.000777696
0.000614998
0.000645076
0.000616228
0.000512466
0.000615204
0.000383049
0.000619656
0.000253355
0.000634067
0.000117307
0.000635737
0.000618405
0.00348648
4.26759e-09
0.00348648
4.20838e-09
0.00348648
4.5421e-09
0.00348648
4.9039e-09
0.00348648
5.30792e-09
0.00348648
5.3977e-09
0.00348648
5.44328e-09
0.00348648
5.45144e-09
0.00348648
5.4315e-09
0.00348648
5.39664e-09
0.00348648
5.35997e-09
0.00348648
5.1467e-09
0.00348648
4.49443e-09
0.00348647
5.79052e-09
0.00348645
1.52289e-08
0.00348643
3.87403e-08
0.00348633
1.02127e-07
0.00348623
2.29557e-07
0.00348574
5.3889e-07
0.00348505
9.37244e-07
0.00348184
3.06356e-06
0.00347868
5.01228e-06
0.00346404
1.73482e-05
0.0034435
4.54429e-05
0.00335172
0.000172725
0.00301793
0.00103526
0.00288825
0.000889857
0.00279411
0.000728119
0.0027121
0.000656735
0.00263542
0.000592791
0.00254668
0.000544295
0.00245101
0.000518176
0.00234229
0.000519726
0.00221618
0.000546557
0.00208195
0.00058966
0.00194478
0.000640361
0.00180489
0.000688721
0.00166442
0.000728161
0.00152315
0.000756408
0.00137527
0.000770266
0.00122808
0.000769865
0.00108457
0.000766746
0.000943474
0.000760558
0.000805171
0.000756524
0.000666451
0.000756793
0.000528353
0.000753945
0.000394373
0.000757554
0.000260199
0.000770055
0.000119619
0.000763623
0.000735265
0.00361602
4.0485e-09
0.00361602
4.00592e-09
0.00361602
4.43298e-09
0.00361602
4.89157e-09
0.00361602
5.50493e-09
0.00361602
5.72598e-09
0.00361602
5.88243e-09
0.00361602
5.97506e-09
0.00361602
6.01494e-09
0.00361602
6.01819e-09
0.00361602
5.99996e-09
0.00361602
5.79131e-09
0.00361602
5.44759e-09
0.00361601
7.25339e-09
0.00361599
1.83245e-08
0.00361597
4.53793e-08
0.00361586
1.22585e-07
0.00361574
2.7812e-07
0.0036152
6.68466e-07
0.00361427
1.31635e-06
0.00361152
3.42615e-06
0.00360781
6.67969e-06
0.00359305
2.10043e-05
0.00356755
5.64313e-05
0.00348006
0.000220473
0.00313293
0.00122634
0.00301921
0.00104081
0.00294496
0.000819758
0.00287557
0.000733279
0.00280206
0.000669223
0.00270837
0.000629589
0.00260441
0.000622309
0.00248426
0.000639658
0.00234375
0.000678606
0.00219508
0.000729721
0.00204507
0.000785997
0.00189434
0.000837918
0.00174455
0.000879422
0.00159489
0.000908546
0.00143877
0.000921877
0.00128421
0.000920104
0.00113342
0.000916543
0.000985101
0.000909333
0.000840151
0.000904673
0.000694471
0.000904218
0.000550165
0.000899233
0.000410273
0.000901903
0.000270862
0.00091123
0.000124604
0.000896849
0.000857954
0.00375038
3.81397e-09
0.00375038
3.77267e-09
0.00375038
4.19856e-09
0.00375038
4.69031e-09
0.00375038
5.36455e-09
0.00375038
5.73392e-09
0.00375038
6.01471e-09
0.00375038
6.21966e-09
0.00375038
6.359e-09
0.00375038
6.45014e-09
0.00375038
6.51119e-09
0.00375038
6.38999e-09
0.00375037
5.96981e-09
0.00375037
7.31681e-09
0.00375035
1.67286e-08
0.00375034
3.99731e-08
0.00375024
1.08492e-07
0.00375017
2.4944e-07
0.00374957
6.326e-07
0.00374891
1.29646e-06
0.00374605
3.53828e-06
0.00373914
7.95393e-06
0.00372623
2.25997e-05
0.00369034
7.08436e-05
0.00362363
0.000255137
0.00328038
0.00137325
0.00319193
0.00118513
0.00313949
0.000905143
0.0030749
0.000806801
0.00299252
0.000752643
0.00288646
0.000726378
0.0027705
0.000740296
0.00263575
0.000776912
0.00247877
0.000827133
0.00231499
0.00088373
0.00215227
0.000943361
0.00199108
0.000997016
0.00183252
0.00103909
0.00167495
0.0010682
0.00151107
0.00108046
0.00134883
0.00107733
0.00119059
0.00107307
0.00103501
0.00106499
0.000882439
0.00106033
0.000729659
0.00105873
0.000578241
0.00105199
0.000431445
0.00105329
0.000283917
0.00106048
0.00013038
0.0010371
0.000986777
0.00388972
3.56499e-09
0.00388972
3.53065e-09
0.00388972
3.92856e-09
0.00388972
4.43424e-09
0.00388972
5.11251e-09
0.00388972
5.5739e-09
0.00388972
5.94894e-09
0.00388972
6.23766e-09
0.00388972
6.45006e-09
0.00388972
6.6046e-09
0.00388972
6.72183e-09
0.00388972
6.66201e-09
0.00388972
6.19358e-09
0.00388972
7.20023e-09
0.00388971
1.52124e-08
0.00388969
3.52894e-08
0.00388962
9.37046e-08
0.00388958
2.12134e-07
0.00388919
5.41456e-07
0.00388888
9.20001e-07
0.0038857
3.75295e-06
0.00388442
6.02024e-06
0.00386643
2.7561e-05
0.00385576
6.53209e-05
0.00376351
0.000290011
0.003491
0.00141937
0.00344314
0.00131792
0.00339314
0.00100353
0.0033133
0.000896613
0.00319965
0.000863284
0.00307698
0.000846077
0.00294472
0.000878778
0.00279152
0.000934294
0.00261674
0.000991924
0.00243809
0.00105066
0.0022639
0.00111142
0.00209359
0.00116517
0.0019273
0.00120634
0.00176291
0.00123445
0.00159195
0.00124536
0.00142249
0.00124081
0.00125669
0.00123632
0.00109321
0.00122789
0.000933127
0.00122318
0.000771484
0.00122213
0.000611383
0.00121332
0.000456637
0.00121283
0.000302345
0.00121682
0.000139367
0.00118716
0.00112501
0.00403424
3.3036e-09
0.00403424
3.28193e-09
0.00403424
3.62297e-09
0.00403424
4.13693e-09
0.00403425
4.74291e-09
0.00403425
5.29731e-09
0.00403425
5.70425e-09
0.00403425
6.01596e-09
0.00403425
6.24839e-09
0.00403425
6.41839e-09
0.00403425
6.54353e-09
0.00403425
6.49094e-09
0.00403425
5.99115e-09
0.00403425
6.78792e-09
0.00403423
1.40588e-08
0.00403422
3.24382e-08
0.00403415
8.72345e-08
0.00403411
1.98404e-07
0.00403373
5.05949e-07
0.00403323
8.17578e-07
0.00403037
3.68882e-06
0.00402886
5.46915e-06
0.00401497
2.7427e-05
0.00400059
6.33666e-05
0.00393179
0.000281598
0.00382992
0.00130639
0.00381749
0.00143599
0.00369979
0.00117177
0.00356341
0.00104307
0.00341591
0.00100623
0.00327358
0.000996098
0.00311746
0.00104549
0.00294295
0.00110968
0.00275195
0.00116928
0.00256168
0.00122821
0.00237884
0.00128858
0.00220146
0.00134087
0.00202905
0.00137969
0.00185879
0.00140622
0.00168172
0.00141578
0.00150555
0.00141032
0.00133246
0.00140623
0.00116114
0.00139814
0.000992268
0.00139442
0.000822539
0.00139335
0.000653065
0.00138409
0.000488103
0.00138322
0.000321403
0.00138605
0.000148302
0.00134662
0.00127248
0.00418414
3.03346e-09
0.00418414
3.01875e-09
0.00418414
3.30926e-09
0.00418414
3.81237e-09
0.00418414
4.33473e-09
0.00418414
4.97003e-09
0.00418414
5.31736e-09
0.00418414
5.56108e-09
0.00418414
5.71996e-09
0.00418414
5.79831e-09
0.00418414
5.75401e-09
0.00418414
5.44365e-09
0.00418414
4.70806e-09
0.00418414
5.32709e-09
0.00418413
1.1454e-08
0.00418412
2.71141e-08
0.00418407
7.3822e-08
0.00418405
1.69675e-07
0.00418372
4.30684e-07
0.00418324
7.75472e-07
0.00418142
2.75509e-06
0.00417911
4.98268e-06
0.00417194
1.93714e-05
0.00415684
5.45155e-05
0.00419567
0.000203353
0.00434861
0.00090794
0.00422082
0.00161326
0.00395968
0.00145511
0.00377364
0.0012423
0.00361187
0.00117922
0.00345243
0.00117069
0.0032759
0.00122979
0.00308475
0.00129595
0.00288258
0.00135554
0.00268463
0.00141325
0.00249623
0.00147188
0.00231425
0.00152139
0.00213789
0.00155703
0.00196441
0.0015816
0.00178272
0.00159098
0.00160043
0.00158527
0.00141988
0.00158268
0.00124001
0.00157615
0.00106208
0.00157433
0.000882161
0.0015753
0.000701684
0.00156595
0.000525161
0.00156423
0.000348661
0.00156446
0.000162012
0.00152052
0.0014339
0.0043396
2.75469e-09
0.0043396
2.73819e-09
0.0043396
2.99233e-09
0.0043396
3.45508e-09
0.0043396
3.91363e-09
0.0043396
4.5103e-09
0.0043396
4.81856e-09
0.0043396
4.96681e-09
0.0043396
5.04216e-09
0.0043396
5.00905e-09
0.0043396
4.47973e-09
0.00433961
3.43363e-09
0.00433961
2.48611e-09
0.00433961
3.30436e-09
0.0043396
9.16678e-09
0.00433959
2.39863e-08
0.00433955
6.44633e-08
0.00433953
1.46968e-07
0.0043393
3.61096e-07
0.00433905
6.0096e-07
0.00433788
2.17046e-06
0.00433616
3.62658e-06
0.0043341
1.331e-05
0.00433069
3.72165e-05
0.00439675
0.000108912
0.00460542
0.000522214
0.00437048
0.00179245
0.00406588
0.0017555
0.00393745
0.00140351
0.0037769
0.0013641
0.00360496
0.0013561
0.00341744
0.00141945
0.00321732
0.00148703
0.0030083
0.0015464
0.00280611
0.00160166
0.00261614
0.00165728
0.0024335
0.00170358
0.00225607
0.00173603
0.00208065
0.00175913
0.001896
0.0017692
0.00170822
0.00176551
0.00152127
0.00176527
0.00133339
0.00176209
0.00114567
0.00176334
0.000954908
0.00176788
0.00076024
0.00176089
0.000570845
0.0017592
0.000377943
0.00176112
0.000175388
0.00171065
0.00160855
0.00450084
2.46682e-09
0.00450084
2.43744e-09
0.00450084
2.67729e-09
0.00450084
3.06112e-09
0.00450084
3.50492e-09
0.00450084
3.98169e-09
0.00450084
4.39038e-09
0.00450084
4.68672e-09
0.00450084
4.89705e-09
0.00450084
5.02691e-09
0.00450084
4.48331e-09
0.00450084
3.15306e-09
0.00450084
2.08965e-09
0.00450083
3.06358e-09
0.00450083
9.65367e-09
0.00450082
2.64522e-08
0.00450077
7.06049e-08
0.00450072
1.61626e-07
0.00450049
3.68087e-07
0.00450013
6.54936e-07
0.00449891
2.01088e-06
0.00449756
3.44032e-06
0.00449268
1.17314e-05
0.00448516
2.96149e-05
0.00448075
9.14248e-05
0.0045061
0.000373245
0.00436275
0.00181933
0.00427846
0.00182322
0.00410811
0.00162555
0.00392304
0.00156959
0.00373472
0.00155435
0.00354578
0.00160693
0.00333988
0.00168181
0.00312948
0.0017378
0.00292939
0.00178854
0.00274264
0.00184016
0.00256285
0.00188329
0.00238712
0.00191366
0.0022125
0.00193687
0.00202757
0.00195104
0.00183399
0.0019508
0.00163977
0.00195497
0.00144246
0.00195679
0.00124434
0.00196243
0.00104243
0.00197188
0.000835716
0.00196963
0.000627941
0.00197207
0.000418437
0.0019734
0.000196897
0.00192107
0.00180407
0.00466807
2.16328e-09
0.00466807
2.12797e-09
0.00466807
2.34443e-09
0.00466807
2.6613e-09
0.00466807
3.07005e-09
0.00466807
3.4549e-09
0.00466807
3.89069e-09
0.00466807
4.20387e-09
0.00466807
4.43173e-09
0.00466807
4.57918e-09
0.00466807
4.74202e-09
0.00466807
3.96787e-09
0.00466806
3.50714e-09
0.00466806
5.04437e-09
0.00466805
1.27668e-08
0.00466804
3.18083e-08
0.004668
8.1428e-08
0.00466793
1.82981e-07
0.0046677
4.08598e-07
0.00466724
8.31522e-07
0.00466611
2.03476e-06
0.00466443
4.02449e-06
0.00465881
1.13999e-05
0.00465262
2.80558e-05
0.00462913
9.0567e-05
0.00461502
0.000310447
0.00443966
0.00186238
0.00438039
0.00189948
0.00421976
0.00180692
0.0040402
0.00175742
0.00383964
0.00176041
0.00364755
0.00180082
0.00345395
0.00186362
0.00325264
0.00191828
0.00305998
0.0019662
0.00288208
0.00201359
0.00270997
0.00205612
0.00253886
0.00208761
0.00236594
0.00211414
0.00218117
0.00213402
0.00198241
0.00214043
0.00178159
0.00215094
0.00157616
0.00216055
0.00136653
0.00217425
0.00115057
0.00219135
0.000923224
0.00219751
0.000698415
0.00219942
0.000466299
0.0022069
0.000218843
0.00215484
0.00202018
0.00484151
1.84364e-09
0.00484151
1.80992e-09
0.00484151
1.99028e-09
0.00484151
2.26189e-09
0.00484151
2.60253e-09
0.00484151
2.94436e-09
0.00484151
3.30281e-09
0.00484151
3.63894e-09
0.00484151
3.80936e-09
0.00484151
3.89535e-09
0.00484151
4.3653e-09
0.00484151
4.01894e-09
0.00484151
4.06556e-09
0.00484151
5.99228e-09
0.0048415
1.41168e-08
0.00484149
3.35091e-08
0.00484146
8.4372e-08
0.00484139
1.89815e-07
0.00484117
4.29132e-07
0.00484088
9.21547e-07
0.00483985
2.08596e-06
0.00483783
4.62164e-06
0.00483222
1.17737e-05
0.00482411
2.843e-05
0.00479751
9.45979e-05
0.00475337
0.000297081
0.00455252
0.00191673
0.00442775
0.00203799
0.00429008
0.00195907
0.00412401
0.00192686
0.0039449
0.00194283
0.00376621
0.00197899
0.00358196
0.00203137
0.00339441
0.00208272
0.00321645
0.00213071
0.00305006
0.00217829
0.00288703
0.00222298
0.00272002
0.00225972
0.00254733
0.00229168
0.00236193
0.00231988
0.00215936
0.00233603
0.00195197
0.002355
0.00173733
0.00237415
0.00151591
0.00239674
0.00128479
0.00242425
0.00104091
0.00243988
0.000789293
0.00245476
0.000530979
0.00246897
0.000255138
0.00242003
0.00227154
0.00502139
1.50935e-09
0.00502139
1.47727e-09
0.00502139
1.62637e-09
0.00502139
1.84587e-09
0.0050214
2.13244e-09
0.0050214
2.40824e-09
0.0050214
2.72535e-09
0.0050214
2.98598e-09
0.0050214
3.2605e-09
0.0050214
3.36249e-09
0.0050214
3.64585e-09
0.0050214
3.35035e-09
0.0050214
3.56033e-09
0.0050214
5.58506e-09
0.00502139
1.31131e-08
0.00502139
3.06964e-08
0.00502138
7.58602e-08
0.00502135
1.68076e-07
0.00502123
3.8553e-07
0.00502116
7.68179e-07
0.00502016
2.09669e-06
0.00501991
3.89496e-06
0.00501356
1.28935e-05
0.00500866
2.6649e-05
0.0049715
0.000112404
0.00490579
0.00031341
0.00472387
0.00194708
0.00456018
0.00222272
0.00440739
0.00212732
0.00425308
0.00208291
0.00409708
0.00209769
0.00394141
0.0021306
0.00377204
0.00218545
0.00359986
0.00224072
0.00343404
0.00229137
0.00327403
0.0023414
0.00311334
0.00239083
0.00294624
0.00243374
0.00277078
0.00247312
0.00258181
0.00251086
0.00237355
0.00253752
0.00215857
0.00256522
0.00193491
0.0025954
0.00170247
0.0026304
0.00145738
0.00267183
0.00119248
0.00270742
0.000916434
0.00273643
0.000619953
0.00276997
0.00029686
0.00273316
0.00256434
0.00520796
1.15658e-09
0.00520796
1.13803e-09
0.00520796
1.24739e-09
0.00520796
1.43736e-09
0.00520797
1.64901e-09
0.00520797
1.90205e-09
0.00520797
2.12591e-09
0.00520797
2.3975e-09
0.00520797
2.57971e-09
0.00520797
2.8019e-09
0.00520797
2.61171e-09
0.00520797
2.3591e-09
0.00520797
2.82026e-09
0.00520797
5.25841e-09
0.00520797
1.30393e-08
0.00520796
3.06763e-08
0.00520795
7.413e-08
0.00520793
1.61596e-07
0.00520784
3.66152e-07
0.00520766
7.28653e-07
0.00520685
2.07735e-06
0.00520686
3.14126e-06
0.0052007
1.45357e-05
0.00519859
2.30256e-05
0.00517177
0.000121248
0.00514504
0.000307184
0.00517952
0.00171917
0.00494053
0.00248486
0.00471614
0.00237477
0.0045576
0.00225439
0.00440513
0.00225563
0.00425195
0.00228504
0.00408427
0.00234998
0.00390647
0.00240969
0.00373114
0.00246024
0.00356264
0.00251156
0.00339346
0.00256476
0.00321686
0.00261316
0.00303405
0.00265702
0.00284083
0.00270356
0.0026283
0.00274259
0.00240886
0.00278121
0.00218183
0.00282452
0.00194223
0.00287639
0.00168439
0.0029372
0.00139938
0.00299785
0.00108652
0.00305044
0.000750877
0.00310538
0.000373067
0.00310038
0.00293201
0.00540147
7.90064e-10
0.00540147
7.8814e-10
0.00540147
8.71722e-10
0.00540147
1.02123e-09
0.00540147
1.18415e-09
0.00540147
1.38633e-09
0.00540147
1.57086e-09
0.00540147
1.79063e-09
0.00540147
1.95646e-09
0.00540147
2.05534e-09
0.00540147
1.84195e-09
0.00540147
1.76875e-09
0.00540147
2.6392e-09
0.00540147
5.57083e-09
0.00540147
1.38846e-08
0.00540146
3.19981e-08
0.00540144
7.554e-08
0.00540143
1.49957e-07
0.00540129
3.7953e-07
0.00540113
7.56476e-07
0.00540068
1.86331e-06
0.00539899
3.91275e-06
0.00539872
1.03243e-05
0.00539315
2.33157e-05
0.00541491
7.64481e-05
0.00546173
0.000205894
0.00599603
0.000980724
0.00559387
0.0028994
0.00517926
0.00280634
0.00499654
0.00244168
0.00480929
0.00243784
0.00462888
0.00245805
0.00444268
0.00252488
0.00425171
0.00258595
0.00406367
0.0026367
0.00388488
0.00268583
0.00370826
0.00273923
0.00352495
0.00279078
0.00333729
0.00283744
0.00314463
0.00289011
0.0029398
0.00294008
0.00272551
0.00299098
0.00249775
0.00305123
0.00225233
0.00312412
0.00198412
0.00320736
0.00168225
0.0033011
0.00134313
0.00339138
0.000950762
0.00350137
0.000489189
0.0035554
0.00341481
0.00560216
4.19143e-10
0.00560216
4.51662e-10
0.00560216
5.38418e-10
0.00560216
6.50016e-10
0.00560216
7.89769e-10
0.00560216
9.30354e-10
0.00560216
1.09975e-09
0.00560216
1.24375e-09
0.00560216
1.40534e-09
0.00560216
1.41413e-09
0.00560216
1.43722e-09
0.00560216
1.76839e-09
0.00560216
3.12019e-09
0.00560216
6.59782e-09
0.00560215
1.52386e-08
0.00560215
3.34639e-08
0.00560213
7.15734e-08
0.0056021
1.49511e-07
0.005602
3.45742e-07
0.00560184
7.55719e-07
0.00560122
1.70939e-06
0.00559996
4.11936e-06
0.00559824
8.80775e-06
0.0055919
2.23485e-05
0.00559042
5.96535e-05
0.00562659
0.000179191
0.00582467
0.000688444
0.00566404
0.00295316
0.00556736
0.00289027
0.00528689
0.00272954
0.00508509
0.00263271
0.0049039
0.00262798
0.00473982
0.00267657
0.004565
0.00274561
0.00438333
0.00279932
0.00420607
0.00284738
0.00403341
0.00290057
0.0038564
0.00295616
0.0036755
0.00300572
0.00349511
0.00306154
0.00330118
0.0031266
0.00309215
0.00319501
0.00287519
0.00326773
0.00264332
0.00335812
0.00238906
0.00346672
0.00209348
0.00360166
0.00173726
0.00374866
0.001309
0.00392862
0.000739378
0.00411733
0.00414663
0.00581031
7.92534e-11
0.00581031
1.37244e-10
0.00581031
2.21119e-10
0.00581031
3.18034e-10
0.00581031
4.3383e-10
0.00581031
5.54482e-10
0.00581031
6.9147e-10
0.00581031
8.22148e-10
0.00581031
9.6777e-10
0.00581031
1.13812e-09
0.00581031
1.39143e-09
0.00581031
1.93477e-09
0.00581031
3.17236e-09
0.00581031
5.77555e-09
0.00581031
1.15247e-08
0.00581032
2.31242e-08
0.00581032
5.28321e-08
0.00581034
1.07757e-07
0.00581033
2.63652e-07
0.00581044
5.31347e-07
0.00581011
1.48295e-06
0.00581097
2.66759e-06
0.00580733
9.13489e-06
0.00580839
1.70341e-05
0.00579167
6.32975e-05
0.00578484
0.000164476
0.00573644
0.000674117
0.00571362
0.00277483
0.0055408
0.00306959
0.00540136
0.00288472
0.00529748
0.00274217
0.00514685
0.00277464
0.00501823
0.00279911
0.00487623
0.00287359
0.00471887
0.00293645
0.00455842
0.00299171
0.00440361
0.00304593
0.00425051
0.00310282
0.00408708
0.00316606
0.00391677
0.00323305
0.00374387
0.00330378
0.00356165
0.00337999
0.00336864
0.00346671
0.00316191
0.00357186
0.00293534
0.00370168
0.00267196
0.00386813
0.00235411
0.00406887
0.00194169
0.00434473
0.0013273
0.00472762
0.00546573
0.00840003
7.6925e-12
0.00840003
2.61761e-11
0.00840003
5.85408e-11
0.00840003
1.01546e-10
0.00840003
1.58336e-10
0.00840003
2.24379e-10
0.00840003
3.03761e-10
0.00840003
3.88981e-10
0.00840003
4.87676e-10
0.00840003
6.18359e-10
0.00840003
8.31476e-10
0.00840003
1.20455e-09
0.00840003
1.99511e-09
0.00840004
3.53317e-09
0.00840004
7.12911e-09
0.00840004
1.42386e-08
0.00840004
3.22121e-08
0.00840006
6.79335e-08
0.00840003
1.6313e-07
0.00840007
3.45224e-07
0.00839987
8.95131e-07
0.00840006
1.76201e-06
0.00839821
5.5719e-06
0.00840008
1.03897e-05
0.00839566
3.92578e-05
0.00842056
9.79206e-05
0.00857634
0.000382276
0.00951206
0.00134775
0.00895853
0.00369234
0.00856593
0.00332677
0.00822708
0.0031095
0.0079774
0.00303124
0.00772951
0.00305404
0.00750144
0.00309357
0.00727443
0.00314839
0.00705845
0.0031942
0.00685475
0.00324121
0.00665462
0.00329605
0.00645978
0.00335633
0.0062683
0.0034207
0.00607862
0.00348971
0.0058898
0.00356467
0.005709
0.00364871
0.00554045
0.00374802
0.00540014
0.00385732
0.00530628
0.00398759
0.00526913
0.00412218
0.00541615
0.00420923
0.00586519
0.00428055
0.00377806
0.00754361
0.00840003
1.02824e-12
0.00840003
4.1138e-12
0.00840003
1.09893e-11
0.00840003
2.20071e-11
0.00840003
3.99758e-11
0.00840003
6.42466e-11
0.00840003
9.71526e-11
0.00840003
1.37862e-10
0.00840003
1.93464e-10
0.00840003
2.77079e-10
0.00840003
4.28256e-10
0.00840003
7.00962e-10
0.00840003
1.3191e-09
0.00840003
2.5342e-09
0.00840003
5.56822e-09
0.00840003
1.16442e-08
0.00840002
2.73802e-08
0.00840002
5.87676e-08
0.00839997
1.41817e-07
0.00839993
3.05446e-07
0.00839972
7.45847e-07
0.00839944
1.62986e-06
0.00839925
3.92953e-06
0.00839785
8.99221e-06
0.00840515
2.36471e-05
0.00842276
6.17212e-05
0.00856502
0.000211756
0.00914805
0.000659799
0.0093369
0.00341685
0.00912659
0.00353346
0.0087335
0.00350102
0.00849963
0.00325536
0.00828199
0.00325475
0.00806552
0.00329319
0.00785138
0.00333485
0.00764406
0.00337056
0.00745638
0.00340951
0.00728118
0.00345408
0.0071315
0.00349761
0.00699932
0.00354978
0.00687934
0.00360249
0.00677458
0.0036601
0.00669709
0.00371954
0.00665526
0.00378347
0.00665852
0.00384678
0.00675463
0.00388829
0.00695986
0.00391996
0.00732149
0.0038532
0.00786776
0.00374394
0.0033099
0.00834157
0.00840003
1.02521e-13
0.00840003
6.17085e-13
0.00840003
1.95621e-12
0.00840003
4.53557e-12
0.00840003
9.28863e-12
0.00840003
1.66303e-11
0.00840003
2.78661e-11
0.00840003
4.49737e-11
0.00840003
7.30287e-11
0.00840003
1.20942e-10
0.00840003
2.18233e-10
0.00840003
4.04752e-10
0.00840003
8.38863e-10
0.00840003
1.71423e-09
0.00840003
3.88674e-09
0.00840003
8.29677e-09
0.00840003
1.96351e-08
0.00840003
4.23028e-08
0.00840002
1.02689e-07
0.00840004
2.19529e-07
0.00839994
5.53855e-07
0.00840006
1.13198e-06
0.00839892
3.27478e-06
0.00840046
5.87896e-06
0.00839251
2.21042e-05
0.00840097
4.17489e-05
0.00838859
0.000192004
0.00847853
0.00049536
0.00924946
0.0023681
0.00906827
0.0036833
0.00896118
0.00359619
0.00874291
0.00347936
0.00856671
0.00342841
0.00841482
0.00343648
0.00826966
0.00346695
0.00812643
0.00349841
0.00798308
0.00353577
0.00785114
0.00356485
0.00774419
0.00359127
0.00765019
0.00362421
0.00757282
0.00365912
0.00752519
0.00368939
0.00751267
0.00371685
0.0075556
0.00373039
0.00765834
0.00374517
0.00782954
0.00372051
0.0080693
0.00368222
0.00834835
0.0035711
0.00867828
0.00341179
0.00304988
0.00893563
0.00840003
1.86801e-14
0.00840003
1.10015e-13
0.00840003
3.59311e-13
0.00840003
8.79471e-13
0.00840003
2.00367e-12
0.00840003
3.92139e-12
0.00840003
7.91605e-12
0.00840003
1.42576e-11
0.00840003
3.02695e-11
0.00840003
5.42546e-11
0.00840003
1.28559e-10
0.00840003
2.34425e-10
0.00840003
6.10787e-10
0.00840003
1.12922e-09
0.00840003
3.1195e-09
0.00840003
5.75916e-09
0.00840003
1.64639e-08
0.00840003
2.99709e-08
0.00840001
8.81355e-08
0.00840003
1.56096e-07
0.00839995
4.77387e-07
0.00840008
7.99144e-07
0.00839984
2.69559e-06
0.00840077
3.92417e-06
0.00840228
1.64217e-05
0.0084162
2.25061e-05
0.00848003
0.000111229
0.00871916
0.000237921
0.0100351
0.000964155
0.00969092
0.00390292
0.00947013
0.00379928
0.00911117
0.00383965
0.00891844
0.00361779
0.00876533
0.0035777
0.0086171
0.00358795
0.00848777
0.00360532
0.0083825
0.00362303
0.00829445
0.00363559
0.00823201
0.00364525
0.00820749
0.00365716
0.00819785
0.00367126
0.00820394
0.00367703
0.00822735
0.00367867
0.00828409
0.00366184
0.00838729
0.00363245
0.00852932
0.00357836
0.00872608
0.00349143
0.00893451
0.00336992
0.00915094
0.0032014
0.00290795
0.009296
0.00840003
5.32197e-15
0.00840003
3.29519e-14
0.00840003
1.06884e-13
0.00840003
2.80102e-13
0.00840003
6.4899e-13
0.00840003
1.45339e-12
0.00840003
3.10036e-12
0.00840003
6.75269e-12
0.00840003
1.42498e-11
0.00840003
3.17071e-11
0.00840003
6.78462e-11
0.00840003
1.55629e-10
0.00840003
3.38397e-10
0.00840003
7.92584e-10
0.00840003
1.74167e-09
0.00840003
4.12333e-09
0.00840004
9.10241e-09
0.00840003
2.16907e-08
0.00840006
4.78386e-08
0.00840004
1.15101e-07
0.0084002
2.52338e-07
0.00840005
6.30774e-07
0.00840102
1.31952e-06
0.00839939
3.77014e-06
0.00840692
7.19067e-06
0.00839593
2.46392e-05
0.00844771
4.87717e-05
0.00844024
0.000215236
0.00875632
0.000573847
0.00989186
0.00252968
0.00957914
0.00407318
0.00945093
0.00394365
0.0092165
0.00384578
0.00907518
0.00373122
0.00897426
0.00369095
0.00888714
0.00368615
0.00881221
0.00368826
0.00874986
0.00368618
0.00870146
0.00368212
0.00867698
0.00367614
0.00868632
0.003668
0.00872478
0.00364926
0.00879308
0.00362294
0.008876
0.0035851
0.00899013
0.00352699
0.00911823
0.00345706
0.00925642
0.00335632
0.0094014
0.00322825
0.00953486
0.00306928
0.00283152
0.00961203
0.00840003
2.33991e-15
0.00840003
1.62749e-14
0.00840003
4.82265e-14
0.00840003
1.40241e-13
0.00840003
3.08123e-13
0.00840003
7.93626e-13
0.00840003
1.61406e-12
0.00840003
4.11859e-12
0.00840003
8.16139e-12
0.00840003
2.12135e-11
0.00840003
4.15986e-11
0.00840003
1.1073e-10
0.00840003
2.15521e-10
0.00840003
5.86186e-10
0.00840003
1.13153e-09
0.00840003
3.13346e-09
0.00840003
5.98904e-09
0.00840003
1.685e-08
0.00840003
3.179e-08
0.00840002
9.10272e-08
0.00840006
1.68303e-07
0.00840002
4.95862e-07
0.00840024
8.80514e-07
0.00840036
2.7954e-06
0.008402
4.45485e-06
0.00840536
1.68693e-05
0.00842361
2.56303e-05
0.00850855
0.000112216
0.00880617
0.000257802
0.0102769
0.000965616
0.0103632
0.00387294
0.0100546
0.00424193
0.00977095
0.00411819
0.00955956
0.00392946
0.00940084
0.00383687
0.00929555
0.00378706
0.00922251
0.0037593
0.00917879
0.00373527
0.00917484
0.00371256
0.00918509
0.00368686
0.00920251
0.00365893
0.00922586
0.00362411
0.00926841
0.00357663
0.00933084
0.00351746
0.00941536
0.00344444
0.00952756
0.00335368
0.00964893
0.00324871
0.00976883