/*--------------------------------*- C++ -*----------------------------------*\
| =========                 |                                                 |
| \\      /  F ield         | OpenFOAM: The Open Source CFD Toolbox           |
|  \\    /   O peration     | Version:  2112                                  |
|   \\  /    A nd           | Website:  www.openfoam.com                      |
|    \\/     M anipulation  |                                                 |
\*---------------------------------------------------------------------------*/
FoamFile
{
    version     2.0;
    format      ascii;
    arch        "LSB;label=32;scalar=64";
    class       volScalarField;
    location    "1";
    object      T;
}
// * * * * * * * * * * * * * * * * * * * * * * * * * * * * * * * * * * * * * //

dimensions      [0 0 0 1 0 0 0];

internalField   nonuniform List<scalar> 
7000
(
1
1
1
1
1
1
1
1
1
1
1
1
1.00001
1.00007
1.00021
1.00075
1.00141
1.00426
1.00809
1.01757
1.04237
1.10274
1.27927
1.80687
2.47205
2.77851
2.77422
2.77371
2.77219
2.77907
2.7776
2.77967
2.78417
2.79893
2.81869
2.82855
2.83343
2.83666
2.8352
2.83093
2.84761
2.86047
2.8703
2.8789
2.87409
2.88387
2.90444
2.89163
2.93618
3.26009
1
1
1
1
1
1
1
1
1
1
1
1
1.00001
1.00007
1.0002
1.00072
1.00135
1.00407
1.00774
1.01639
1.04126
1.0965
1.27331
1.751
2.46823
2.78191
2.78055
2.77925
2.77861
2.78209
2.78163
2.78504
2.78806
2.80116
2.81962
2.82927
2.83493
2.8385
2.83663
2.83459
2.85314
2.8641
2.8741
2.88069
2.87524
2.88983
2.90636
2.89429
2.96254
3.29567
1
1
1
1
1
1
1
1
1
1
1
1
1.00001
1.00007
1.00019
1.0007
1.00131
1.00394
1.0075
1.01564
1.04039
1.0931
1.26876
1.72299
2.45913
2.78368
2.78291
2.77996
2.7785
2.77885
2.78067
2.78615
2.79001
2.80306
2.82002
2.82819
2.83326
2.83668
2.8345
2.83516
2.85514
2.86477
2.87502
2.88049
2.87523
2.893
2.9067
2.89591
2.9873
3.32029
1
1
1
1
1
1
1
1
1
1
1
1
1.00001
1.00007
1.00019
1.00067
1.00125
1.00378
1.00719
1.01492
1.03896
1.08867
1.26104
1.68323
2.44468
2.78161
2.78482
2.78065
2.77789
2.77578
2.7803
2.78714
2.79014
2.80227
2.81888
2.82741
2.83323
2.83671
2.8341
2.83598
2.85614
2.86488
2.87526
2.87926
2.87454
2.89432
2.90524
2.89675
3.00763
3.33677
1
1
1
1
1
1
1
1
1
1
1
1
1.00001
1.00007
1.00018
1.00064
1.0012
1.0036
1.00686
1.01415
1.03729
1.08471
1.2512
1.64672
2.41831
2.77893
2.78653
2.78077
2.77553
2.77153
2.77838
2.78708
2.78937
2.80046
2.8166
2.82532
2.83161
2.83508
2.83237
2.83587
2.8564
2.86438
2.87477
2.87807
2.8738
2.89485
2.90352
2.8974
3.02253
3.34583
1
1
1
1
1
1
1
1
1
1
1
1
1.00001
1.00006
1.00017
1.00061
1.00113
1.00341
1.00646
1.01335
1.03555
1.07977
1.2409
1.60518
2.3809
2.77525
2.78864
2.78096
2.77163
2.76656
2.77591
2.78695
2.78828
2.79813
2.81396
2.82331
2.83002
2.83349
2.83055
2.8354
2.85576
2.8633
2.87378
2.87603
2.87276
2.89442
2.90162
2.89761
3.03247
3.35239
1
1
1
1
1
1
1
1
1
1
1
1
1.00001
1.00006
1.00016
1.00057
1.00105
1.00321
1.00601
1.01274
1.03305
1.0747
1.22671
1.56082
2.33063
2.76862
2.79142
2.78083
2.76582
2.76119
2.77404
2.78615
2.78608
2.79487
2.81098
2.82113
2.8284
2.83173
2.82869
2.83405
2.85452
2.86143
2.87184
2.87399
2.87111
2.89329
2.89944
2.89819
3.03862
3.35225
1
1
1
1
1
1
1
1
1
1
1
1
1.00001
1.00006
1.00015
1.00052
1.00096
1.00293
1.00549
1.01162
1.03021
1.06999
1.20966
1.51838
2.25277
2.76287
2.79506
2.77815
2.75831
2.75594
2.77326
2.78406
2.78272
2.79086
2.80777
2.81871
2.82639
2.82964
2.82632
2.8319
2.85198
2.859
2.86964
2.87106
2.86912
2.89073
2.89579
2.89555
3.0429
3.35628
1
1
1
1
1
1
1
1
1
1
1
1
1.00001
1.00006
1.00014
1.00048
1.00088
1.00267
1.00497
1.0103
1.02788
1.06241
1.19423
1.4582
2.16535
2.75905
2.79474
2.77087
2.75124
2.75361
2.77309
2.77917
2.77697
2.78587
2.80475
2.81663
2.82418
2.82723
2.8238
2.829
2.8488
2.85575
2.86642
2.86817
2.86531
2.88785
2.89427
2.8962
3.03913
3.3469
1
1
1
1
1
1
1
1
1
1
1
1
1.00001
1.00005
1.00013
1.00044
1.00081
1.00246
1.00449
1.00965
1.02468
1.05642
1.17063
1.40185
2.08116
2.73016
2.78515
2.76561
2.74902
2.75658
2.76897
2.77032
2.77004
2.78244
2.80255
2.81408
2.8208
2.82384
2.82036
2.82578
2.84539
2.85229
2.86281
2.86419
2.86192
2.88312
2.88864
2.89039
3.04019
3.35097
1
1
1
1
1
1
1
1
1
1
1
1
1.00001
1.00005
1.00012
1.0004
1.00073
1.00223
1.00403
1.00911
1.02123
1.05092
1.14462
1.34844
1.95816
2.64503
2.78204
2.77198
2.75408
2.75717
2.76068
2.76063
2.76439
2.77989
2.80013
2.81043
2.81651
2.81998
2.81694
2.82057
2.84002
2.84701
2.85783
2.86004
2.85767
2.87835
2.88417
2.88827
3.02923
3.3332
1
1
1
1
1
1
1
1
1
1
1
1
1.00001
1.00005
1.00011
1.00037
1.00067
1.00203
1.00361
1.00836
1.01856
1.04623
1.12526
1.3016
1.78949
2.61961
2.79404
2.78176
2.75537
2.74722
2.75129
2.75356
2.76005
2.77715
2.79728
2.80711
2.81178
2.8149
2.8123
2.81558
2.83494
2.84248
2.85222
2.85389
2.85096
2.86952
2.8802
2.88289
3.02278
3.33748
1
1
1
1
1
1
1
1
1
1
1
1
1.00001
1.00005
1.00011
1.00034
1.00061
1.00186
1.00325
1.00781
1.01648
1.04235
1.11177
1.26631
1.73111
2.60562
2.79041
2.77281
2.75398
2.73743
2.74471
2.74795
2.75723
2.77488
2.79439
2.80203
2.80559
2.80898
2.80739
2.80865
2.82694
2.83554
2.84565
2.84959
2.84704
2.86289
2.86787
2.8726
3.00315
3.30956
1
1
1
1
1
1
1
1
1
1
1
1
1.00001
1.00004
1.0001
1.00031
1.00056
1.00163
1.00288
1.00721
1.01464
1.03856
1.09965
1.23571
1.6708
2.54676
2.7645
2.75707
2.74514
2.73336
2.74187
2.74526
2.7532
2.77106
2.78946
2.79797
2.79898
2.80161
2.8
2.80065
2.81763
2.82787
2.83749
2.84012
2.8373
2.84875
2.86341
2.86587
2.98697
3.3098
1
1
1
1
1
1
1
1
1
1
1
1
1.00001
1.00004
1.00009
1.00027
1.00049
1.00138
1.00248
1.00641
1.01289
1.03438
1.08886
1.2059
1.61009
2.45804
2.73247
2.75262
2.74247
2.73076
2.73576
2.73905
2.74907
2.76917
2.78578
2.79259
2.79235
2.79287
2.79286
2.79374
2.80839
2.81887
2.82738
2.83059
2.82809
2.8396
2.85061
2.85653
2.96816
3.27547
1
1
1
1
1
1
1
1
1
1
1
1
1.00001
1.00004
1.00008
1.00023
1.00043
1.00113
1.00208
1.00535
1.01134
1.02876
1.07881
1.17345
1.54944
2.3529
2.68661
2.74745
2.73487
2.72451
2.72915
2.73568
2.74689
2.76374
2.7755
2.78006
2.77924
2.7799
2.77983
2.78067
2.79411
2.80603
2.81583
2.82084
2.81924
2.82529
2.83654
2.83484
2.93546
3.2653
1
1
1
1
1
1
1
1
1
1
1
1
1.00001
1.00003
1.00007
1.00019
1.00037
1.00091
1.00172
1.00464
1.00959
1.02452
1.06594
1.14611
1.45848
2.17307
2.63384
2.74165
2.72902
2.71248
2.71466
2.72204
2.73002
2.74241
2.75531
2.76142
2.76144
2.76361
2.76751
2.76917
2.77993
2.79489
2.80343
2.80586
2.80322
2.80359
2.81319
2.81955
2.9001
3.21151
1
1
1
1
1
1
1
1
1
1
1
1
1.00001
1.00003
1.00006
1.00016
1.00031
1.00071
1.00139
1.00402
1.00768
1.02183
1.04898
1.12225
1.33511
1.95733
2.53838
2.71003
2.6972
2.69022
2.69388
2.70561
2.71381
2.72535
2.73804
2.74513
2.74544
2.74751
2.75448
2.75656
2.76298
2.77239
2.78076
2.78228
2.78009
2.78116
2.79275
2.78961
2.85959
3.17495
1
1
1
1
1
1
1
1
1
1
1
1
1.00001
1.00002
1.00004
1.00013
1.00023
1.00056
1.00106
1.00324
1.00615
1.0176
1.03968
1.09833
1.2736
1.76324
2.4471
2.70478
2.69797
2.69218
2.69031
2.69899
2.70558
2.71232
2.72249
2.73254
2.73609
2.73808
2.74582
2.7497
2.75352
2.76055
2.76815
2.76826
2.76451
2.75347
2.75231
2.75312
2.78542
3.0742
1
1
1
1
1
1
1
1
1
1
1
1
1.00001
1.00002
1.00003
1.00007
1.00014
1.00042
1.0008
1.00229
1.00484
1.01216
1.03282
1.0734
1.23055
1.54809
2.3197
2.66536
2.70609
2.7007
2.69208
2.69463
2.6992
2.70405
2.71316
2.72233
2.72627
2.72692
2.72923
2.73177
2.73193
2.73349
2.73682
2.73582
2.73092
2.72166
2.71685
2.69519
2.70793
2.92991
1
1
1
1
1
1
1
1
1
1
1
1
1
1.00001
1.00002
1.00006
1.0001
1.00031
1.00057
1.00174
1.00334
1.00916
1.02154
1.05136
1.15388
1.35289
1.9735
2.55667
2.67679
2.66671
2.66714
2.66858
2.67614
2.68086
2.68876
2.6954
2.69755
2.69707
2.69385
2.69238
2.69234
2.69407
2.69363
2.69076
2.68181
2.65575
2.62798
2.59189
2.48881
2.52185
1
1
1
1
1
1
1
1
1
1
1
1
1
1.00001
1.00001
1.00004
1.00008
1.00024
1.00043
1.00136
1.00246
1.00759
1.01475
1.04049
1.0989
1.24601
1.6545
2.4716
2.65542
2.65716
2.64852
2.64586
2.64803
2.65395
2.6618
2.6714
2.67886
2.67822
2.6752
2.66742
2.66048
2.65216
2.64531
2.63069
2.61835
2.59705
2.55406
2.50804
2.39063
2.30281
1
1
1
1
1
1
1
1
1
1
1
1
1
1.00001
1.00001
1.00003
1.00005
1.00016
1.00029
1.00091
1.00171
1.00488
1.01063
1.02652
1.07491
1.1638
1.52399
2.27368
2.59133
2.66096
2.6492
2.63991
2.6374
2.63957
2.6424
2.64777
2.6482
2.64725
2.64341
2.63686
2.63296
2.62636
2.61576
2.60179
2.57163
2.54502
2.49027
2.44277
2.35679
2.26244
1
1
1
1
1
1
1
1
1
1
1
1
1
1
1.00001
1.00002
1.00004
1.00011
1.0002
1.00064
1.00115
1.00358
1.00669
1.01952
1.04204
1.10927
1.27809
1.83386
2.34968
2.60805
2.62108
2.6158
2.61076
2.61227
2.61843
2.62746
2.62895
2.62802
2.62404
2.61302
2.59552
2.58214
2.56652
2.55545
2.5299
2.50766
2.46367
2.41133
2.34479
2.26819
1
1
1
1
1
1
1
1
1
1
1
1
1
1
1
1.00001
1.00003
1.00005
1.00016
1.00029
1.0009
1.00172
1.00476
1.01087
1.02652
1.0767
1.16558
1.53299
2.24988
2.54001
2.60156
2.59828
2.59768
2.59354
2.58975
2.58933
2.58864
2.58719
2.58452
2.57987
2.56836
2.5535
2.53111
2.50752
2.48453
2.44926
2.42028
2.37364
2.32462
2.2665
1
1
1
1
1
1
1
1
1
1
1
1
1
1
1
1.00001
1.00002
1.00003
1.0001
1.00019
1.0006
1.00107
1.00338
1.00624
1.01841
1.03917
1.1027
1.25728
1.77299
2.2916
2.53336
2.55135
2.55265
2.55507
2.56076
2.56471
2.56404
2.56043
2.5493
2.53356
2.51773
2.50465
2.49133
2.47271
2.45246
2.42373
2.38756
2.34866
2.29883
2.25218
1
1
1
1
1
1
1
1
1
1
1
1
1
1
1
1
1.00001
1.00002
1.00004
1.00013
1.00024
1.00075
1.00141
1.00394
1.00885
1.0218
1.06234
1.13632
1.4344
2.05267
2.46673
2.54472
2.54229
2.53319
2.52019
2.51685
2.51765
2.51762
2.51505
2.5081
2.49334
2.4723
2.45239
2.43345
2.41093
2.39105
2.3638
2.33095
2.29037
2.2473
1
1
1
1
1
1
1
1
1
1
1
1
1
1
1
1
1
1.00001
1.00003
1.00008
1.00014
1.00046
1.00081
1.00259
1.00481
1.01376
1.03122
1.07725
1.2138
1.56011
2.15884
2.47255
2.51495
2.51459
2.50472
2.49023
2.47972
2.47264
2.4683
2.46486
2.45895
2.4496
2.433
2.41123
2.38698
2.35906
2.33324
2.30437
2.27062
2.23744
1
1
1
1
1
1
1
1
1
1
1
1
1
1
1
1
1
1.00001
1.00001
1.00004
1.00007
1.00024
1.00042
1.00135
1.00238
1.00747
1.01438
1.04021
1.09597
1.24439
1.60514
2.27453
2.44281
2.46439
2.47518
2.47186
2.46279
2.44987
2.4386
2.42849
2.41943
2.41024
2.39945
2.3858
2.36979
2.34653
2.31963
2.28982
2.25801
2.22427
1
1
1
1
1
1
1
1
1
1
1
1
1
1
1
1
1
1
1.00001
1.00002
1.00004
1.00012
1.0002
1.00065
1.00115
1.00343
1.00705
1.01788
1.04853
1.10792
1.32639
1.81959
2.32812
2.44757
2.44163
2.43459
2.43422
2.43165
2.42591
2.4141
2.4008
2.38462
2.36949
2.35297
2.33756
2.32289
2.30593
2.28242
2.25494
2.22428
1
1
1
1
1
1
1
1
1
1
1
1
1
1
1
1
1
1
1
1.00001
1.00002
1.00004
1.00011
1.00021
1.00056
1.00125
1.00296
1.00833
1.01874
1.05757
1.12391
1.40265
1.93529
2.35164
2.41953
2.41376
2.40161
2.39713
2.39476
2.39151
2.38484
2.37182
2.35895
2.3404
2.32228
2.30097
2.28327
2.26259
2.24116
2.2192
1
1
1
1
1
1
1
1
1
1
1
1
1
1
1
1
1
1
1
1
1.00001
1.00002
1.00006
1.0001
1.00035
1.00059
1.00197
1.00349
1.01051
1.0227
1.05719
1.15132
1.39358
1.86832
2.3083
2.37977
2.37415
2.36925
2.35676
2.34653
2.34358
2.34124
2.33697
2.32775
2.31278
2.29605
2.27383
2.25508
2.22914
2.20743
1
1
1
1
1
1
1
1
1
1
1
1
1
1
1
1
1
1
1
1
1
1.00001
1.00002
1.00006
1.0001
1.00034
1.00059
1.00198
1.00349
1.011
1.02192
1.0617
1.1414
1.42763
1.81734
2.25263
2.34081
2.3395
2.33618
2.32329
2.31013
2.29709
2.28964
2.28736
2.28261
2.27619
2.26242
2.24337
2.22299
2.19679
1
1
1
1
1
1
1
1
1
1
1
1
1
1
1
1
1
1
1
1
1
1
1.00001
1.00002
1.00006
1.0001
1.00033
1.00056
1.00187
1.00329
1.01052
1.02045
1.05885
1.13247
1.40439
1.74675
2.19509
2.30365
2.30919
2.3075
2.29701
2.28358
2.26756
2.25595
2.24861
2.23927
2.23271
2.21878
2.20433
2.18435
1
1
1
1
1
1
1
1
1
1
1
1
1
1
1
1
1
1
1
1
1
1
1
1.00001
1.00002
1.00003
1.00007
1.00018
1.00037
1.00108
1.00229
1.00726
1.01604
1.05101
1.10769
1.345
1.75905
2.15888
2.27654
2.28306
2.28173
2.27133
2.25888
2.2438
2.23293
2.21832
2.20957
2.19696
2.18546
2.1744
1
1
1
1
1
1
1
1
1
1
1
1
1
1
1
1
1
1
1
1
1
1
1
1
1.00001
1.00002
1.00003
1.0001
1.00017
1.00049
1.00099
1.00232
1.00644
1.01395
1.0429
1.09399
1.28653
1.65302
2.06353
2.22778
2.24624
2.24394
2.23905
2.22863
2.21969
2.20847
2.1963
2.18611
2.16946
2.15935
1
1
1
1
1
1
1
1
1
1
1
1
1
1
1
1
1
1
1
1
1
1
1
1
1
1
1.00002
1.00003
1.00009
1.00015
1.00049
1.00084
1.0027
1.00496
1.01456
1.03201
1.08117
1.20161
1.55798
1.90591
2.15815
2.19282
2.19723
2.19593
2.19176
2.18463
2.17101
2.15923
2.14405
2.12853
1
1
1
1
1
1
1
1
1
1
1
1
1
1
1
1
1
1
1
1
1
1
1
1
1
1
1
1.00001
1.00002
1.00007
1.00011
1.00037
1.00062
1.00207
1.00358
1.01143
1.02201
1.06332
1.13504
1.43608
1.69647
2.04332
2.14579
2.16623
2.16605
2.1639
2.15632
2.14295
2.12802
2.11133
1
1
1
1
1
1
1
1
1
1
1
1
1
1
1
1
1
1
1
1
1
1
1
1
1
1
1
1
1.00001
1.00002
1.00003
1.0001
1.00016
1.00045
1.00094
1.00204
1.00612
1.01333
1.04079
1.09458
1.26288
1.59402
1.87911
2.09446
2.12703
2.12981
2.12753
2.12195
2.1108
2.09448
1
1
1
1
1
1
1
1
1
1
1
1
1
1
1
1
1
1
1
1
1
1
1
1
1
1
1
1
1
1
1.00001
1.00002
1.00007
1.00011
1.00038
1.00064
1.00206
1.0037
1.01137
1.02279
1.06296
1.13883
1.40834
1.65314
1.97154
2.07957
2.09563
2.09549
2.08905
2.07659
1
1
1
1
1
1
1
1
1
1
1
1
1
1
1
1
1
1
1
1
1
1
1
1
1
1
1
1
1
1
1
1
1.00001
1.00004
1.00006
1.00022
1.00036
1.00125
1.00212
1.00697
1.01282
1.03857
1.07843
1.22521
1.43459
1.82499
2.02066
2.05382
2.05817
2.05157
1
1
1
1
1
1
1
1
1
1
1
1
1
1
1
1
1
1
1
1
1
1
1
1
1
1
1
1
1
1
1
1
1
1
1.00001
1.00003
1.00004
1.00018
1.0002
1.0012
1.0012
1.00732
1.01636
1.04424
1.11204
1.27648
1.57766
1.83109
1.99165
2.00103
1
1
1
1
1
1
1
1
1
1
1
1
1
1
1
1
1
1
1
1
1
1
1
1
1
1
1
1
1
1
1
1
1
1
1
1
1.00001
1.00003
1.00004
1.00023
1.00026
1.00155
1.00153
1.00909
1.01777
1.053
1.1185
1.27781
1.51809
1.76136
1
1
1
1
1
1
1
1
1
1
1
1
1
1
1
1
1
1
1
1
1
1
1
1
1
1
1
1
1
1
1
1
1
1
1
1
1
1
1.00001
1.00002
1.0001
1.00012
1.00068
1.00065
1.00437
1.0052
1.02727
1.05853
1.17285
1.36731
1
1
1
1
1
1
1
1
1
1
1
1
1
1
1
1
1
1
1
1
1
1
1
1
1
1
1
1
1
1
1
1
1
1
1
1
1
1
1
1
1.00002
1.00003
1.00015
1.0002
1.00142
1.00068
1.00775
1.01437
1.05199
1.09963
1
1
1
1
1
1
1
1
1
1
1
1
1
1
1
1
1
1
1
1
1
1
1
1
1
1
1
1
1
1
1
1
1
1
1
1
1
1
1
1
1
1.00002
1.00003
1.00022
1.00008
1.00133
1.00241
1.00836
1.02259
1.04847
1
1
1
1
1
1
1
1
1
1
1
1
1
1
1
1
1
1
1
1
1
1
1
1
1
1
1
1
1
1
1
1
1
1
1
1
1
1
1
1
1
1.00001
1.00002
1.0001
1.00001
1.0006
1.00142
1.00362
1.01032
1.02238
1
1
1
1
1
1
1
1
1
1
1
1
1
1
1
1
1
1
1
1
1
1
1
1
1
1
1
1
1
1
1
1
1
1
1
1
1
1
1
1
1
1
1.00001
1.00005
1.00001
1.00027
1.00063
1.00172
1.00492
1.01072
1
1
1
1
1
1
1
1
1
1
1
1
1
1
1
1
1
1
1
1
1
1
1
1
1
1
1
1
1
1
1
1
1
1
1
1
1
1
1
1
1
1
1
1.00003
1.00001
1.00012
1.00027
1.00087
1.00231
1.00513
1
1
1
1
1
1
1
1
1
1
1
1
1
1
1
1
1
1
1
1
1
1
1
1
1
1
1
1
1
1
1
1
1
1
1
1
1
1
1
1
1
1
1
1.00001
1
1.00006
1.00015
1.00039
1.00109
1.00245
1
1
1
1
1
1
1
1
1
1
1
1
1
1
1
1
1
1
1
1
1
1
1
1
1
1
1
1
1
1
1
1
1
1
1
1
1
1
1
1
1
1
1
1.00001
1
1.00003
1.00006
1.00019
1.0005
1.00114
1
1
1
1
1
1
1
1
1
1
1
1
1
1
1
1
1
1
1
1
1
1
1
1
1
1
1
1
1
1
1
1
1
1
1
1
1
1
1
1
1
1
1
1
1.00001
1.00001
1.00003
1.00005
1.00023
1.00041
1
1
1
1
1
1
1
1
1
1
1
1
1
1
1
1
1
1
1
1
1
1
1
1
1
1
1
1
1
1
1
1
1
1
1
1
1
1
1
1
1
1
1
1
1
1.00001
1.00001
1.00004
1.0001
1.00024
1
1
1
1
1
1
1
1
1
1
1
1
1
1
1
1
1
1
1
1
1
1
1
1
1
1
1
1
1
1
1
1
1
1
1
1
1
1
1
1
1
1
1
1
1
1
1.00001
1.00001
1.00005
1.00008
1
1
1
1
1
1
1
1
1
1
1
1
1
1
1
1
1
1
1
1
1
1
1
1
1
1
1
1
1
1
1
1
1
1
1
1
1
1
1
1
1
1
1
1
1
1
1
1.00001
1.00002
1.00005
1
1
1
1
1
1
1
1
1
1
1
1
1
1
1
1
1
1
1
1
1
1
1
1
1
1
1
1
1
1
1
1
1
1
1
1
1
1
1
1
1
1
1
1
1
1
1
1
1.00001
1.00002
1
1
1
1
1
1
1
1
1
1
1
1
1
1
1
1
1
1
1
1
1
1
1
1
1
1
1
1
1
1
1
1
1
1
1
1
1
1
1
1
1
1
1
1
1
1
1
1
1
1.00001
1
1
1
1
1
1
1
1
1
1
1
1
1
1
1
1
1
1
1
1
1
1
1
1
1
1
1
1
1
1
1
1
1
1
1
1
1
1
1
1
1
1
1
1
1
1
1
1
1
1
1
1
1
1
1
1
1
1
1
1
1
1
1
1
1
1
1
1
1
1
1
1
1
1
1
1
1
1
1
1
1
1
1
1
1
1
1
1
1
1
1
1
1
1
1
1
1
1
1
1
1
1
1
1
1
1
1
1
1
1
1
1
1
1
1
1
1
1
1
1
1
1
1
1
1
1
1
1
1
1
1
1
1
1
1
1
1
1
1
1
1
1
1
1
1
1
1
1
1
1
2.22424
2.14138
2.15374
2.21769
2.34766
2.44295
2.5377
2.62119
2.65391
2.65228
2.65524
2.66046
2.67095
2.68193
2.69075
2.69914
2.70661
2.71155
2.71534
2.71957
2.72368
2.72624
2.72771
2.72883
2.73026
2.73221
2.73401
2.73502
2.73536
2.73543
2.73539
2.73505
2.73392
2.73135
2.72804
2.72449
2.72116
2.71831
2.71584
2.71347
2.7108
2.70754
2.70357
2.69884
2.69324
2.68684
2.67986
2.67253
2.66512
2.65775
2.65048
2.64325
2.63601
2.6288
2.62161
2.61438
2.6069
2.59918
2.59148
2.58417
2.57729
2.57077
2.56433
2.55787
2.55141
2.54489
2.53841
2.53212
2.52579
2.51905
2.51207
2.50574
2.50073
2.49669
2.49363
2.49206
2.49127
2.49122
2.49208
2.49438
2.49658
2.49817
2.49829
2.49756
2.49491
2.48633
2.47755
2.46361
2.4524
2.43377
2.41834
2.39796
2.38517
2.37165
2.36647
2.3553
2.34743
2.31857
2.29794
2.2007
2.11066
2.07261
2.07397
2.07824
2.07224
2.05448
2.01961
2.01259
2.02125
2.04121
2.08063
2.10098
2.11963
2.1183
2.11876
2.11875
2.11914
2.12027
2.12255
2.12538
2.1282
2.13047
2.13261
2.13468
2.13616
2.13791
2.14044
2.14348
2.14646
2.14892
2.15065
2.15169
2.15198
2.15185
2.15125
2.1498
2.1484
2.14759
2.14731
2.14731
2.14753
2.14835
2.14989
2.15137
2.15262
2.15351
2.15395
2.15401
2.15383
2.15308
2.15143
2.14959
2.14789
2.14609
2.14412
2.142
2.13973
2.13746
2.13493
2.13217
2.12934
2.12603
2.12253
2.11915
2.1156
2.112
2.10861
2.10551
2.10239
2.09978
2.09803
2.09505
2.09292
2.09137
2.08909
2.08652
2.08431
2.08312
2.08282
2.08282
2.08313
2.08396
2.08562
2.08737
2.08925
2.08999
2.09006
2.08888
2.08617
2.07879
2.07165
2.05722
2.0463
2.02982
2.01907
2.00405
1.99739
1.98625
1.98234
1.96951
2.11246
2.06022
2.01963
1.97074
1.91047
1.85352
1.81479
1.80716
1.80844
1.8176
1.83827
1.8645
1.88271
1.8924
1.8963
1.89363
1.89193
1.88973
1.88829
1.8882
1.88878
1.89088
1.89451
1.89792
1.90164
1.90601
1.9106
1.91456
1.91739
1.91904
1.91955
1.91942
1.91864
1.91645
1.91352
1.91095
1.90906
1.90808
1.90799
1.90848
1.91032
1.91449
1.91927
1.92378
1.92771
1.9309
1.93343
1.93553
1.93737
1.93898
1.94048
1.94195
1.94349
1.94528
1.94714
1.94896
1.95064
1.95195
1.95294
1.95368
1.954
1.95401
1.95382
1.95305
1.95153
1.95008
1.94879
1.94721
1.94551
1.94444
1.94397
1.94318
1.94145
1.94111
1.94071
1.94023
1.94002
1.94004
1.94021
1.94062
1.94128
1.94169
1.94193
1.94217
1.94257
1.94255
1.94234
1.94085
1.93874
1.93361
1.92972
1.9214
1.91477
1.90298
1.89461
1.88225
1.87673
1.86737
1.86446
1.85236
2.12335
2.05924
2.00259
1.94995
1.90184
1.85504
1.81367
1.77499
1.74935
1.73308
1.73361
1.7344
1.74224
1.74826
1.76097
1.76456
1.77129
1.76961
1.76914
1.76878
1.76857
1.76892
1.77035
1.7733
1.77629
1.77893
1.78103
1.78237
1.78279
1.78267
1.78195
1.77989
1.77629
1.7726
1.76939
1.76695
1.76566
1.76548
1.76583
1.76718
1.77029
1.77389
1.7773
1.78042
1.78322
1.78566
1.78785
1.78999
1.79215
1.79439
1.79672
1.79928
1.80214
1.80532
1.80877
1.81257
1.81658
1.82056
1.82451
1.82844
1.8321
1.83538
1.83851
1.84152
1.84416
1.84643
1.84837
1.84985
1.85092
1.85194
1.85295
1.85392
1.85477
1.85511
1.85574
1.85635
1.85669
1.85695
1.85712
1.85703
1.85676
1.85547
1.85412
1.85099
1.8491
1.84502
1.84269
1.83798
1.83534
1.82986
1.82604
1.81826
1.81267
1.80409
1.79926
1.79226
1.78937
1.78296
1.78067
1.76679
2.14897
2.07327
2.00974
1.95358
1.90307
1.855
1.80933
1.76605
1.72861
1.69547
1.67849
1.66902
1.66723
1.66687
1.67179
1.67597
1.68475
1.68795
1.69626
1.69704
1.69883
1.70145
1.70324
1.70345
1.70329
1.7028
1.70164
1.70029
1.69874
1.69677
1.69428
1.69139
1.68847
1.68581
1.68352
1.68193
1.68136
1.68141
1.68184
1.6831
1.68469
1.68603
1.68704
1.68777
1.68834
1.68877
1.68901
1.68922
1.68964
1.69051
1.69196
1.69415
1.69715
1.70099
1.70549
1.71032
1.71531
1.72042
1.72563
1.73081
1.736
1.74113
1.74603
1.75052
1.75485
1.75911
1.76309
1.76682
1.77034
1.7737
1.77657
1.77914
1.78186
1.78441
1.78623
1.7877
1.78923
1.79013
1.79045
1.79028
1.78938
1.78654
1.78328
1.77827
1.77442
1.76897
1.76495
1.75939
1.75537
1.74947
1.74475
1.738
1.73317
1.72737
1.72472
1.72101
1.71938
1.7148
1.71277
1.69683
2.15296
2.08926
2.02668
1.96635
1.91152
1.86131
1.8161
1.77294
1.7366
1.70162
1.67149
1.64486
1.62873
1.61678
1.61195
1.61212
1.61332
1.61716
1.62626
1.63068
1.64057
1.64243
1.64506
1.64667
1.6466
1.64587
1.64399
1.64148
1.63897
1.63642
1.63385
1.63143
1.62931
1.62758
1.6263
1.62546
1.62487
1.62437
1.62395
1.62362
1.62315
1.62233
1.62103
1.61934
1.61743
1.61556
1.61412
1.61335
1.6132
1.61337
1.61409
1.61599
1.61929
1.62317
1.62727
1.63131
1.63527
1.63906
1.6426
1.64625
1.65019
1.65424
1.65863
1.6635
1.66866
1.67389
1.67908
1.68414
1.68877
1.69333
1.69765
1.70142
1.70488
1.70825
1.71105
1.71299
1.71388
1.71399
1.71413
1.71319
1.71118
1.70776
1.7053
1.7013
1.69868
1.69491
1.69248
1.68849
1.68561
1.68078
1.67698
1.67155
1.66823
1.66427
1.6627
1.6596
1.65795
1.65274
1.6497
1.63037
2.15643
2.09704
2.03872
1.98113
1.92586
1.87435
1.82716
1.78371
1.74404
1.70761
1.67474
1.64427
1.6174
1.59583
1.58298
1.57419
1.57408
1.57516
1.5791
1.5826
1.59096
1.59445
1.60153
1.60251
1.60286
1.60266
1.60191
1.60032
1.59776
1.59452
1.59119
1.58833
1.58627
1.58495
1.58411
1.58353
1.58313
1.58285
1.58251
1.58189
1.5808
1.57911
1.57687
1.57433
1.57183
1.56969
1.56828
1.56778
1.56782
1.56817
1.56919
1.571
1.57304
1.57501
1.5767
1.57817
1.57952
1.58093
1.58282
1.5854
1.58868
1.59269
1.59735
1.60224
1.60725
1.61246
1.61752
1.62228
1.62683
1.63131
1.63544
1.63892
1.64233
1.64565
1.64815
1.64984
1.65087
1.651
1.65066
1.64988
1.64935
1.64806
1.64743
1.64612
1.6454
1.64386
1.64269
1.64004
1.63723
1.63226
1.62858
1.62386
1.62145
1.6183
1.61691
1.61372
1.61137
1.60328
1.59784
1.57188
2.1604
2.1059
2.05154
1.99649
1.94342
1.89234
1.84507
1.80066
1.75974
1.72241
1.68746
1.65608
1.62749
1.60175
1.57976
1.56549
1.5561
1.55195
1.55257
1.55452
1.55698
1.55839
1.56153
1.56297
1.56544
1.5651
1.56391
1.56195
1.56018
1.55756
1.55414
1.55127
1.5496
1.54901
1.54899
1.54905
1.54906
1.54894
1.54843
1.54712
1.54495
1.54213
1.53894
1.53583
1.53308
1.53096
1.52983
1.52961
1.52968
1.52999
1.53067
1.53147
1.53229
1.53299
1.53345
1.53381
1.53427
1.53507
1.53645
1.5385
1.54124
1.54461
1.54849
1.55262
1.55686
1.56123
1.56553
1.56957
1.57335
1.57723
1.581
1.58417
1.58739
1.59075
1.59386
1.59618
1.59763
1.59889
1.6002
1.60084
1.60196
1.60287
1.60381
1.60439
1.60481
1.60467
1.60411
1.60191
1.59991
1.59607
1.59432
1.59099
1.58947
1.58614
1.58381
1.57743
1.57248
1.55885
1.5508
1.52029
2.15817
2.1103
2.06137
2.01025
1.96015
1.91115
1.86499
1.82133
1.78072
1.74303
1.70875
1.67636
1.64778
1.62234
1.59895
1.57925
1.56336
1.55163
1.54421
1.54051
1.53712
1.53628
1.5355
1.53343
1.53084
1.5306
1.5306
1.5288
1.5271
1.52638
1.52591
1.52612
1.52744
1.52852
1.52912
1.52928
1.52916
1.52851
1.52662
1.52315
1.51895
1.51437
1.50989
1.50598
1.50291
1.50084
1.49986
1.49971
1.49982
1.50023
1.50084
1.50136
1.50183
1.50224
1.50254
1.50278
1.50304
1.50352
1.50443
1.50591
1.5079
1.51045
1.51336
1.51646
1.51963
1.52317
1.52674
1.53032
1.53378
1.53774
1.54169
1.54512
1.54871
1.55246
1.55607
1.55883
1.56111
1.56338
1.56608
1.56863
1.57186
1.57417
1.5772
1.57924
1.58123
1.58235
1.58326
1.58312
1.5829
1.58158
1.58068
1.57826
1.57633
1.57117
1.56695
1.5562
1.54841
1.52911
1.51901
1.48188
2.16142
2.11669
2.07053
2.02331
1.97617
1.93037
1.88658
1.8451
1.80564
1.76901
1.73481
1.70347
1.6744
1.64873
1.62518
1.60299
1.58453
1.56559
1.54983
1.53815
1.52737
1.51857
1.51161
1.50663
1.50197
1.49872
1.49817
1.49856
1.49953
1.50181
1.50465
1.50927
1.51426
1.51585
1.51564
1.51484
1.51305
1.50964
1.50471
1.49872
1.49234
1.48632
1.48145
1.47809
1.47618
1.47549
1.47547
1.47565
1.47626
1.47706
1.47743
1.47743
1.47723
1.47654
1.4754
1.47471
1.47459
1.47471
1.47513
1.47619
1.47793
1.4802
1.48283
1.48565
1.48852
1.49171
1.49506
1.49859
1.50205
1.50609
1.51021
1.51406
1.51791
1.52179
1.52624
1.53046
1.53519
1.54036
1.54652
1.55307
1.56087
1.56837
1.5762
1.58302
1.58998
1.59548
1.60106
1.60504
1.60819
1.60911
1.60895
1.60638
1.60257
1.59235
1.58485
1.56733
1.55583
1.53017
1.51883
1.4712
2.16441
2.12457
2.08137
2.03677
1.99263
1.94983
1.90833
1.86913
1.83132
1.79585
1.76227
1.73129
1.70196
1.67491
1.6494
1.6257
1.60296
1.58255
1.56236
1.54183
1.52434
1.50861
1.49728
1.488
1.48095
1.47833
1.47836
1.47916
1.48152
1.48611
1.49103
1.49571
1.4994
1.50086
1.50064
1.49947
1.49642
1.49064
1.48391
1.47682
1.46996
1.46421
1.46029
1.45845
1.4581
1.4582
1.45866
1.45963
1.46022
1.46026
1.46002
1.45917
1.45727
1.4552
1.45332
1.45187
1.45117
1.45109
1.45125
1.45182
1.45324
1.45537
1.4578
1.46039
1.463
1.46585
1.46906
1.4725
1.47618
1.48111
1.4861
1.49104
1.49706
1.50437
1.51369
1.52426
1.53713
1.55084
1.56682
1.58391
1.60301
1.62228
1.6436
1.66285
1.68063
1.69336
1.70366
1.70908
1.71182
1.70928
1.706
1.69737
1.68985
1.67199
1.66032
1.63471
1.61956
1.58488
1.57597
1.51116
2.16182
2.12978
2.09264
2.0511
2.00911
1.96795
1.92863
1.89055
1.8548
1.82038
1.78768
1.75634
1.72649
1.69783
1.67056
1.64474
1.61973
1.59597
1.57295
1.55086
1.52989
1.51102
1.4955
1.48302
1.47524
1.46955
1.46848
1.46899
1.47044
1.47315
1.47628
1.47943
1.48161
1.48243
1.48237
1.48134
1.47756
1.47172
1.46569
1.4595
1.45365
1.44905
1.44645
1.44582
1.44593
1.44644
1.44752
1.44808
1.44805
1.44758
1.44604
1.44288
1.43947
1.43642
1.43413
1.43285
1.43252
1.43258
1.4329
1.43374
1.43527
1.43714
1.43918
1.44148
1.44393
1.44679
1.45106
1.45567
1.46127
1.46883
1.47837
1.49038
1.50613
1.52522
1.54819
1.57481
1.60738
1.64603
1.68261
1.71091
1.73272
1.74467
1.75051
1.74928
1.74688
1.74198
1.7369
1.72964
1.72406
1.71141
1.7042
1.68857
1.67846
1.65639
1.6444
1.61823
1.60693
1.57858
1.57218
1.5182
2.15249
2.12578
2.09405
2.05751
2.01842
1.97971
1.94225
1.90617
1.87131
1.83741
1.80493
1.77299
1.74259
1.71313
1.68488
1.65761
1.63168
1.60648
1.58267
1.56062
1.54009
1.52155
1.50544
1.4916
1.48039
1.47246
1.46718
1.46402
1.46238
1.46253
1.46305
1.46329
1.46334
1.4631
1.46212
1.45955
1.45565
1.4518
1.44827
1.44427
1.44043
1.43793
1.43702
1.43701
1.43742
1.43816
1.43839
1.43826
1.43749
1.4352
1.43138
1.42759
1.42437
1.42176
1.41987
1.41893
1.4188
1.41893
1.41944
1.42061
1.42208
1.42375
1.42581
1.42882
1.43271
1.43771
1.44465
1.45432
1.46828
1.48856
1.51389
1.54417
1.5857
1.63735
1.68581
1.71922
1.73998
1.7457
1.7457
1.74319
1.74011
1.73544
1.73111
1.72424
1.71958
1.71011
1.70454
1.69217
1.68469
1.66825
1.65906
1.63911
1.62817
1.60455
1.59243
1.56731
1.55624
1.53229
1.52208
1.48814
2.13956
2.11361
2.08979
2.05787
2.02216
1.98536
1.94908
1.91421
1.88057
1.84794
1.81591
1.78473
1.75415
1.72478
1.69665
1.66951
1.64382
1.61962
1.59661
1.57537
1.55594
1.53793
1.52145
1.50684
1.49345
1.48137
1.47194
1.46468
1.45911
1.45526
1.4529
1.45067
1.44804
1.44548
1.4428
1.43966
1.43629
1.43367
1.43205
1.43087
1.42955
1.42911
1.42948
1.43069
1.43131
1.4313
1.43093
1.42975
1.42697
1.42315
1.4191
1.41533
1.41224
1.41007
1.40897
1.40876
1.40886
1.40922
1.41009
1.41137
1.41306
1.41641
1.42036
1.4261
1.43479
1.4485
1.47112
1.49948
1.53721
1.59224
1.65288
1.69925
1.72415
1.73034
1.73103
1.73004
1.72795
1.7235
1.71942
1.71224
1.70754
1.69872
1.69402
1.68381
1.67823
1.66579
1.65846
1.64267
1.63368
1.61425
1.60397
1.58272
1.57181
1.54938
1.53823
1.51555
1.50503
1.48408
1.47494
1.44872
2.13501
2.10817
2.08202
2.0554
2.02309
1.98814
1.95348
1.92
1.88794
1.85686
1.82646
1.79642
1.7667
1.73786
1.7099
1.68359
1.65829
1.63473
1.61254
1.59166
1.57205
1.55424
1.53697
1.52124
1.50665
1.49324
1.48089
1.47
1.46072
1.45296
1.44666
1.44098
1.43551
1.43073
1.42688
1.42287
1.41887
1.41669
1.41619
1.41622
1.41665
1.41831
1.42108
1.42305
1.42366
1.42351
1.42276
1.42075
1.41668
1.41192
1.40743
1.4038
1.40111
1.39928
1.3986
1.39867
1.39911
1.4001
1.40272
1.40562
1.41013
1.41791
1.42904
1.45147
1.48188
1.52206
1.58696
1.65061
1.69837
1.71359
1.71642
1.71616
1.71494
1.71118
1.70713
1.70029
1.69546
1.68692
1.68264
1.67329
1.66842
1.65822
1.65237
1.64002
1.63286
1.61746
1.60893
1.59103
1.58108
1.5604
1.55026
1.53023
1.52047
1.50062
1.49069
1.47044
1.46083
1.4413
1.43327
1.41086
2.12602
2.10115
2.07737
2.05111
2.02174
1.98986
1.95735
1.92565
1.89488
1.86461
1.83485
1.80573
1.77706
1.74948
1.72272
1.69743
1.6734
1.65038
1.62893
1.60828
1.58882
1.5702
1.55261
1.53595
1.52011
1.50578
1.49199
1.47951
1.46768
1.45677
1.44622
1.43733
1.42923
1.42168
1.41546
1.41029
1.40547
1.40241
1.40201
1.40243
1.40368
1.40656
1.41028
1.41306
1.41386
1.41373
1.41274
1.40989
1.40522
1.40048
1.3962
1.39291
1.39077
1.38963
1.38975
1.39076
1.39319
1.39717
1.40293
1.41187
1.43017
1.46109
1.50069
1.56795
1.63739
1.68895
1.70178
1.70271
1.70252
1.7001
1.69593
1.6889
1.68331
1.67448
1.66934
1.65996
1.65522
1.64572
1.64052
1.63011
1.62373
1.61164
1.60394
1.58941
1.58095
1.56392
1.55492
1.53666
1.52669
1.50767
1.49878
1.4814
1.47292
1.4556
1.44684
1.42878
1.42004
1.40194
1.39422
1.3745
2.10185
2.08405
2.06592
2.0424
2.01565
1.98722
1.95795
1.92883
1.90086
1.87273
1.84445
1.81598
1.78803
1.76087
1.73473
1.70991
1.68624
1.66385
1.64258
1.62236
1.6033
1.58459
1.56712
1.54987
1.5336
1.51804
1.50321
1.48927
1.47607
1.46353
1.4514
1.43975
1.42856
1.41839
1.40913
1.40207
1.39612
1.392
1.39111
1.39145
1.39256
1.39503
1.39818
1.40025
1.40081
1.40044
1.39881
1.39545
1.39138
1.38749
1.3842
1.38192
1.38079
1.38172
1.3839
1.3883
1.39598
1.40867
1.43476
1.47406
1.53185
1.61385
1.67392
1.69575
1.69464
1.69371
1.69004
1.68442
1.67705
1.6687
1.66099
1.65098
1.64434
1.63424
1.62769
1.61828
1.61093
1.60128
1.59283
1.58118
1.57231
1.55852
1.54919
1.53456
1.52558
1.50921
1.50066
1.48385
1.47527
1.45846
1.45054
1.43511
1.42753
1.41194
1.40395
1.38739
1.37926
1.3623
1.35502
1.33759
2.07743
2.05874
2.04198
2.02454
2.00404
1.97947
1.95439
1.9281
1.902
1.87613
1.84993
1.8231
1.7965
1.7703
1.74509
1.72086
1.69781
1.676
1.65504
1.63528
1.61601
1.59771
1.57985
1.56256
1.5459
1.52955
1.51386
1.4987
1.48412
1.46998
1.45639
1.44295
1.43022
1.41821
1.40723
1.3979
1.39076
1.3859
1.38297
1.38275
1.38314
1.38417
1.38519
1.3856
1.38541
1.38429
1.38186
1.379
1.37618
1.37421
1.37313
1.37423
1.37638
1.38073
1.38929
1.40681
1.44159
1.48621
1.57404
1.64695
1.69377
1.69032
1.68983
1.68551
1.67779
1.66864
1.66017
1.64979
1.64044
1.63003
1.62053
1.61003
1.60105
1.59059
1.58137
1.57096
1.56131
1.54924
1.53974
1.52654
1.51692
1.50338
1.49483
1.48066
1.47276
1.45781
1.45043
1.4354
1.42788
1.41282
1.40561
1.39143
1.38446
1.37008
1.36272
1.34739
1.33974
1.32357
1.3166
1.30146
2.0618
2.04525
2.03044