/*--------------------------------*- C++ -*----------------------------------*\
| =========                 |                                                 |
| \\      /  F ield         | OpenFOAM: The Open Source CFD Toolbox           |
|  \\    /   O peration     | Version:  2112                                  |
|   \\  /    A nd           | Website:  www.openfoam.com                      |
|    \\/     M anipulation  |                                                 |
\*---------------------------------------------------------------------------*/
FoamFile
{
    version     2.0;
    format      ascii;
    arch        "LSB;label=32;scalar=64";
    class       volVectorField;
    location    "1";
    object      U;
}
// * * * * * * * * * * * * * * * * * * * * * * * * * * * * * * * * * * * * * //

dimensions      [0 1 -1 0 0 0 0];

internalField   nonuniform List<vector> 
7000
(
(3 -4.48556e-07 0.000576052)
(3 -1.03743e-06 0.00054746)
(3 -1.46231e-06 0.000518982)
(3 -1.59293e-06 0.00049062)
(3 -1.48878e-06 0.000462376)
(3 -1.23868e-06 0.000434252)
(3 -9.918e-07 0.000406253)
(3 -7.63919e-07 0.000378384)
(3 -5.58713e-07 0.000350644)
(3 -3.75131e-07 0.000323037)
(3 -2.12682e-07 0.000295565)
(3 -1.21403e-07 0.000268281)
(2.99998 -5.79837e-07 0.000241366)
(2.99994 -1.59679e-06 0.000215195)
(2.99984 -2.27442e-06 0.000190014)
(2.99957 -3.77754e-06 0.000167999)
(2.99903 -1.49459e-06 0.000150243)
(2.99763 -7.15524e-06 0.000150463)
(2.99502 2.06869e-05 0.000164175)
(2.98602 -3.91494e-05 0.000337638)
(2.96991 -0.000131571 0.00054455)
(2.91169 -0.000560723 0.00182542)
(2.76654 -0.00246567 0.00388664)
(2.37452 -0.00797931 0.0110099)
(1.26765 -0.0233648 0.0187854)
(0.564224 -0.0146267 0.00678348)
(0.559271 -0.0086781 -0.000578926)
(0.593392 -0.00338175 -0.000946836)
(0.603228 -0.000700589 -0.000750273)
(0.580198 -0.000594601 -0.000535299)
(0.540481 -0.00179658 -0.000472037)
(0.499691 -0.00314903 -0.000534881)
(0.473779 -0.00363933 -0.00070265)
(0.455416 -0.00314008 -0.000836817)
(0.436679 -0.00183755 -0.000941497)
(0.415183 2.69506e-05 -0.00104124)
(0.391155 0.00216623 -0.00114679)
(0.364915 0.0042235 -0.00125535)
(0.33719 0.005905 -0.00136132)
(0.309306 0.00720502 -0.00146801)
(0.280811 0.0079624 -0.00158481)
(0.251855 0.008399 -0.00169734)
(0.2239 0.00882859 -0.00180942)
(0.196329 0.00925356 -0.00191973)
(0.170002 0.00989944 -0.00202135)
(0.144573 0.0108264 -0.00213378)
(0.116013 0.0117904 -0.00225283)
(0.0890672 0.0134171 -0.00234699)
(0.0623922 0.016184 -0.00248968)
(0.0305642 0.0221806 -0.00288164)
(3 -4.79044e-07 0.000556207)
(3 -1.06287e-06 0.000528561)
(3 -1.45912e-06 0.000501029)
(3 -1.51946e-06 0.000473614)
(3 -1.31762e-06 0.000446317)
(3 -9.6518e-07 0.000419141)
(3 -6.21214e-07 0.00039209)
(3 -3.06166e-07 0.000365166)
(3 -3.37334e-08 0.000338372)
(3 1.98626e-07 0.00031171)
(3 4.01069e-07 0.000285181)
(3 5.4462e-07 0.00025884)
(2.99998 -1.591e-07 0.000232847)
(2.99994 -1.01417e-06 0.000207548)
(2.99984 4.4471e-07 0.000183171)
(2.99959 5.50463e-06 0.000161726)
(2.99907 2.59243e-05 0.000144225)
(2.99773 6.0072e-05 0.000143276)
(2.99527 0.000187598 0.000153744)
(2.98651 0.000340386 0.000317882)
(2.9714 0.00070303 0.000495709)
(2.91511 0.00146841 0.00170414)
(2.77574 0.00249898 0.00361891)
(2.39739 0.00366366 0.0101865)
(1.30252 0.0073699 0.0182997)
(0.571351 0.0444176 0.00678288)
(0.542972 0.0442297 -0.000363399)
(0.579157 0.0436621 -0.000899414)
(0.593235 0.042118 -0.000720214)
(0.574687 0.0379332 -0.000515022)
(0.538552 0.0330754 -0.000454053)
(0.499389 0.0285175 -0.00051301)
(0.473063 0.025645 -0.000673433)
(0.452914 0.0247408 -0.00080279)
(0.431773 0.0254305 -0.000903848)
(0.407942 0.0271933 -0.00100027)
(0.382135 0.0294748 -0.00110235)
(0.354868 0.0316607 -0.0012069)
(0.326907 0.0332749 -0.00130871)
(0.299178 0.034352 -0.00141219)
(0.270843 0.0346111 -0.00152505)
(0.242086 0.0343779 -0.00163233)
(0.214113 0.0341207 -0.00174024)
(0.186264 0.0338064 -0.00184498)
(0.159661 0.0338164 -0.00194238)
(0.133665 0.03436 -0.0020536)
(0.104524 0.0351218 -0.00216499)
(0.0780077 0.0371923 -0.00225566)
(0.0521669 0.0412916 -0.0024104)
(0.022552 0.0496356 -0.00279114)
(3 -7.06018e-08 0.000535563)
(3 -1.14972e-07 0.000508905)
(3 -2.00617e-07 0.000482361)
(3 -2.33823e-07 0.000455933)
(3 -2.67112e-07 0.000429624)
(3 -1.21464e-07 0.000403435)
(3 3.33543e-08 0.00037737)
(3 1.86943e-07 0.000351431)
(3 3.30853e-07 0.000325621)
(3 4.68778e-07 0.000299942)
(3 6.10187e-07 0.000274395)
(3 7.09615e-07 0.000249035)
(2.99998 -4.61833e-08 0.000224008)
(2.99994 -9.97766e-07 0.000199627)
(2.99985 1.3363e-07 0.00017611)
(2.9996 4.52592e-06 0.000155328)
(2.9991 2.25312e-05 0.000138222)
(2.9978 5.20896e-05 0.000136542)
(2.99544 0.000161226 0.000144987)
(2.98687 0.000228579 0.000300373)
(2.97231 0.000656753 0.000460612)
(2.91728 0.000762136 0.00160455)
(2.78136 0.00177707 0.00340871)
(2.41126 0.00101299 0.00956766)
(1.32863 0.002087 0.017595)
(0.581899 0.0494675 0.00670781)
(0.530137 0.0471615 -0.00018713)
(0.570415 0.0457937 -0.000885638)
(0.588937 0.0449039 -0.000707346)
(0.573295 0.0401623 -0.00049807)
(0.539207 0.0341646 -0.000436388)
(0.500852 0.0285938 -0.000489971)
(0.47452 0.0260319 -0.000644919)
(0.453723 0.0269876 -0.00076969)
(0.431541 0.0306068 -0.000866606)
(0.406598 0.0357566 -0.000959099)
(0.379806 0.0413596 -0.00105704)
(0.351767 0.0464318 -0.00115683)
(0.323369 0.0503178 -0.00125436)
(0.295344 0.0530203 -0.00135428)
(0.266701 0.0544286 -0.00146195)
(0.237784 0.0550129 -0.00156378)
(0.209569 0.0554224 -0.00166704)
(0.181364 0.0557877 -0.00176644)
(0.15451 0.0566122 -0.00185991)
(0.128051 0.0581347 -0.00196838)
(0.0987692 0.0600509 -0.00207283)
(0.0731975 0.06352 -0.00216022)
(0.048266 0.0695224 -0.00232532)
(0.0189412 0.0806261 -0.00268818)
(3 -5.11829e-08 0.000514086)
(3 -4.08368e-08 0.000488459)
(3 -5.52522e-08 0.000462946)
(3 -4.20584e-08 0.000437548)
(3 -5.94312e-08 0.000412267)
(3 7.31763e-08 0.000387106)
(3 2.13269e-07 0.000362069)
(3 3.58543e-07 0.000337157)
(3 5.11709e-07 0.000312372)
(3 6.77335e-07 0.000287716)
(3 8.57008e-07 0.00026319)
(3 9.87616e-07 0.00023885)
(2.99998 4.32027e-07 0.000214824)
(2.99994 -3.32782e-08 0.000191397)
(2.99985 2.20284e-06 0.00016877)
(2.99962 8.87433e-06 0.000148671)
(2.99914 3.21748e-05 0.000131959)
(2.99789 7.3375e-05 0.000129454)
(2.99564 0.000208233 0.000136068)
(2.98737 0.000312775 0.000279644)
(2.97349 0.00100856 0.000422479)
(2.9204 0.00140681 0.00148634)
(2.78971 0.00414062 0.0031629)
(2.43218 0.00735696 0.00884338)
(1.36855 0.0195803 0.0168324)
(0.602122 0.0854511 0.00667339)
(0.519995 0.0780781 3.5682e-05)
(0.565956 0.0733681 -0.000868077)
(0.590154 0.0709136 -0.00068938)
(0.577686 0.0648703 -0.000473263)
(0.545313 0.0577596 -0.000410933)
(0.507198 0.0512327 -0.000461473)
(0.480004 0.0481322 -0.00061183)
(0.457588 0.0489929 -0.000732154)
(0.433517 0.0528372 -0.000825313)
(0.406896 0.0584133 -0.000914656)
(0.378859 0.0645428 -0.00100928)
(0.34998 0.0701367 -0.00110492)
(0.321118 0.0744576 -0.00119822)
(0.292777 0.0774093 -0.00129402)
(0.263822 0.0790007 -0.00139617)
(0.234735 0.0797007 -0.00149268)
(0.206345 0.080183 -0.00159114)
(0.177969 0.0807039 -0.001685)
(0.151058 0.0818103 -0.00177455)
(0.12436 0.0836978 -0.00187915)
(0.095147 0.0861462 -0.00197669)
(0.0703094 0.0900948 -0.0020613)
(0.0461155 0.0968481 -0.00223253)
(0.0169931 0.109113 -0.00257503)
(3 -2.1319e-08 0.00049174)
(3 8.13026e-08 0.000467189)
(3 2.34667e-07 0.000442751)
(3 4.03121e-07 0.000418428)
(3 5.32306e-07 0.00039422)
(3 6.37208e-07 0.000370131)
(3 7.41393e-07 0.000346165)
(3 8.47698e-07 0.000322322)
(3 9.58476e-07 0.000298604)
(3 1.0774e-06 0.000275013)
(3 1.20747e-06 0.000251551)
(3 1.27935e-06 0.000228271)
(2.99998 8.1077e-07 0.000205287)
(2.99995 6.75016e-07 0.000182852)
(2.99986 3.67255e-06 0.000161156)
(2.99964 1.19474e-05 0.000141771)
(2.99918 3.87074e-05 0.000125468)
(2.99799 8.78506e-05 0.000122211)
(2.99585 0.000236875 0.000126957)
(2.98792 0.000369639 0.000258194)
(2.97477 0.00121962 0.000385558)
(2.9238 0.00189519 0.00136367)
(2.7994 0.00532658 0.00290568)
(2.45591 0.0127522 0.00813005)
(1.41592 0.0311533 0.0159445)
(0.629251 0.117058 0.006677)
(0.508015 0.100275 0.0002938)
(0.562135 0.0900431 -0.000862911)
(0.593595 0.0851553 -0.000678559)
(0.58464 0.0770416 -0.000447332)
(0.554071 0.0689863 -0.000383473)
(0.516332 0.0623491 -0.000432137)
(0.488658 0.0602593 -0.000578887)
(0.464999 0.063076 -0.000695512)
(0.439207 0.0693324 -0.000784933)
(0.410818 0.0772863 -0.00087059)
(0.381239 0.0854345 -0.00096117)
(0.351132 0.092568 -0.00105209)
(0.321389 0.0979715 -0.00114063)
(0.292396 0.101616 -0.00123202)
(0.262916 0.103695 -0.00132867)
(0.233484 0.104753 -0.00141966)
(0.204791 0.105502 -0.00151295)
(0.17617 0.106294 -0.00160156)
(0.149121 0.107687 -0.00168687)
(0.122194 0.109879 -0.00178685)
(0.0930808 0.112718 -0.00187791)
(0.0687815 0.116958 -0.00195962)
(0.0450593 0.12439 -0.00213182)
(0.0159827 0.137252 -0.00245265)
(3 -1.61514e-08 0.000468487)
(3 8.25418e-08 0.00044506)
(3 2.51803e-07 0.000421744)
(3 4.39888e-07 0.000398541)
(3 6.21406e-07 0.000375453)
(3 7.52871e-07 0.000352482)
(3 8.79097e-07 0.000329631)
(3 1.00219e-06 0.000306902)
(3 1.1239e-06 0.000284295)
(3 1.2474e-06 0.000261814)
(3 1.3766e-06 0.000239458)
(3 1.43517e-06 0.000217281)
(2.99998 1.19577e-06 0.000195379)
(2.99995 1.6785e-06 0.00017398)
(2.99987 6.01766e-06 0.000153253)
(2.99966 1.70241e-05 0.000134621)
(2.99922 4.94462e-05 0.000118758)
(2.9981 0.000110108 0.000114714)
(2.99607 0.000284217 0.00011758)
(2.98855 0.000436552 0.000236173)
(2.97624 0.0015849 0.000345404)
(2.92752 0.00236453 0.00124516)
(2.81146 0.00746863 0.0026032)
(2.48355 0.0182897 0.00742966)
(1.47443 0.0466224 0.0149392)
(0.664283 0.153712 0.00673236)
(0.49296 0.123387 0.000595827)
(0.559885 0.106752 -0.000877082)
(0.600911 0.100126 -0.000676364)
(0.595754 0.091246 -0.000425236)
(0.566461 0.0837884 -0.000356817)
(0.528033 0.0786841 -0.000399633)
(0.498963 0.0782705 -0.000543574)
(0.473539 0.0827442 -0.000657041)
(0.445863 0.0905485 -0.000742858)
(0.415769 0.09986 -0.000824811)
(0.384824 0.109124 -0.000911241)
(0.353673 0.117117 -0.000997512)
(0.323176 0.123146 -0.00108127)
(0.293591 0.127224 -0.00116806)
(0.263614 0.129645 -0.00125894)
(0.233812 0.130986 -0.00134448)
(0.20477 0.131972 -0.00143247)
(0.175854 0.133005 -0.00151553)
(0.148571 0.134634 -0.00159667)
(0.121378 0.137082 -0.00169144)
(0.0922882 0.140187 -0.00177654)
(0.0682611 0.144559 -0.00185494)
(0.0446645 0.152586 -0.00202396)
(0.0154415 0.165993 -0.00232495)
(3 -1.27168e-08 0.000444287)
(3 8.92375e-08 0.000422033)
(3 3.06938e-07 0.000399888)
(3 5.53315e-07 0.000377856)
(3 8.62278e-07 0.000355936)
(3 1.05981e-06 0.00033413)
(3 1.24072e-06 0.000312442)
(3 1.40572e-06 0.000290873)
(3 1.55611e-06 0.000269424)
(3 1.6958e-06 0.000248098)
(3 1.82961e-06 0.000226894)
(3 1.8796e-06 0.000205863)
(2.99999 1.83894e-06 0.000185086)
(2.99995 2.78042e-06 0.000164764)
(2.99987 8.33937e-06 0.000145049)
(2.99968 2.19363e-05 0.000127211)
(2.99927 6.16715e-05 0.000111849)
(2.99823 0.000138603 0.000107067)
(2.99632 0.000353543 0.000108817)
(2.98932 0.000610973 0.00021184)
(2.97779 0.00194015 0.000308201)
(2.93205 0.0030564 0.00111342)
(2.82504 0.00998428 0.00229642)
(2.51611 0.0229421 0.00668472)
(1.54954 0.0644142 0.0138159)
(0.707857 0.194118 0.00686954)
(0.475514 0.14634 0.000940432)
(0.560572 0.121881 -0.000909411)
(0.612967 0.113275 -0.000681065)
(0.611018 0.103925 -0.000403375)
(0.582202 0.0975742 -0.00033141)
(0.54206 0.0951038 -0.000366659)
(0.510633 0.0971127 -0.000506535)
(0.483027 0.103743 -0.000617864)
(0.453377 0.113365 -0.000700608)
(0.42163 0.124141 -0.000778656)
(0.38942 0.134509 -0.000860519)
(0.357339 0.143277 -0.000941704)
(0.326179 0.149814 -0.00102041)
(0.296083 0.154231 -0.001102)
(0.265673 0.15694 -0.00118715)
(0.235516 0.158539 -0.00126705)
(0.206106 0.159761 -0.0013495)
(0.17685 0.161029 -0.00142736)
(0.149262 0.162869 -0.00150378)
(0.12174 0.16554 -0.00159309)
(0.0925294 0.16884 -0.00167242)
(0.068517 0.173242 -0.00174771)
(0.044917 0.181726 -0.00191008)
(0.015401 0.19561 -0.00218928)
(3 -1.19562e-08 0.000419098)
(3 8.33218e-08 0.000398069)
(3 2.96275e-07 0.000377148)
(3 5.41278e-07 0.000356336)
(3 8.62357e-07 0.000335635)
(3 1.09026e-06 0.000315045)
(3 1.30298e-06 0.000294569)
(3 1.49923e-06 0.00027421)
(3 1.6797e-06 0.000253968)
(3 1.84836e-06 0.000233844)
(3 2.0101e-06 0.00021384)
(3 2.0908e-06 0.000194001)
(2.99999 2.08996e-06 0.000174393)
(2.99996 3.00078e-06 0.000155189)
(2.99988 8.47435e-06 0.00013652)
(2.99971 2.18223e-05 0.000119486)
(2.99934 6.25592e-05 0.000104592)
(2.99838 0.000142624 9.89669e-05)
(2.99664 0.000376963 9.89815e-05)
(2.99016 0.000715006 0.00018756)
(2.97964 0.00206815 0.000270715)
(2.93727 0.00394736 0.000973753)
(2.84009 0.0114497 0.00199494)
(2.55426 0.0291664 0.00589579)
(1.64421 0.0807796 0.0125036)
(0.762268 0.236606 0.00713898)
(0.458049 0.167889 0.00133348)
(0.566472 0.134877 -0.000959995)
(0.631094 0.124743 -0.000695059)
(0.630784 0.116384 -0.000381874)
(0.600977 0.112434 -0.000309876)
(0.557745 0.113504 -0.000336105)
(0.522847 0.118505 -0.000467917)
(0.492709 0.127364 -0.000577822)
(0.461103 0.138578 -0.00065767)
(0.42788 0.150516 -0.000731567)
(0.394619 0.161706 -0.000808525)
(0.361802 0.171012 -0.000884379)
(0.330135 0.177885 -0.000957713)
(0.299662 0.182544 -0.00103383)
(0.268927 0.185515 -0.00111298)
(0.238461 0.187392 -0.00118747)
(0.208698 0.188891 -0.00126439)
(0.179074 0.190445 -0.00133662)
(0.151103 0.1925 -0.00140836)
(0.123207 0.195375 -0.00149147)
(0.0937113 0.198807 -0.00156493)
(0.0693724 0.203219 -0.00163577)
(0.0454153 0.212327 -0.00179159)
(0.015495 0.226799 -0.0020528)
(3 -1.29891e-08 0.000392877)
(3 7.81228e-08 0.000373128)
(3 2.83863e-07 0.000353484)
(3 5.34629e-07 0.000333946)
(3 8.71334e-07 0.000314516)
(3 1.14857e-06 0.000295195)
(3 1.41248e-06 0.000275984)
(3 1.65943e-06 0.000256886)
(3 1.88844e-06 0.000237901)
(3 2.10283e-06 0.00021903)
(3 2.30821e-06 0.000200276)
(3 2.43644e-06 0.000181677)
(2.99999 2.39726e-06 0.000163291)
(2.99996 3.08353e-06 0.000145259)
(2.99989 7.67254e-06 0.000127697)
(2.99973 1.89484e-05 0.000111533)
(2.99939 5.40004e-05 9.71869e-05)
(2.99852 0.000121601 9.06889e-05)
(2.99695 0.000333078 8.8399e-05)
(2.99101 0.000570008 0.000164163)
(2.98176 0.00212315 0.000225059)
(2.94272 0.00368798 0.000844327)
(2.85785 0.0132583 0.00165938)
(2.59765 0.0317484 0.00508414)
(1.7606 0.0960784 0.011071)
(0.832479 0.276129 0.00756929)
(0.446818 0.187664 0.00177337)
(0.580325 0.147823 -0.00101997)
(0.655652 0.13738 -0.000717477)
(0.653823 0.13191 -0.00036432)
(0.620664 0.130581 -0.000293178)
(0.573316 0.134961 -0.000309885)
(0.534445 0.14306 -0.000430248)
(0.501671 0.153845 -0.000536908)
(0.468335 0.166224 -0.000613898)
(0.433998 0.178963 -0.000683435)
(0.400042 0.190662 -0.000755086)
(0.366795 0.200251 -0.00082535)
(0.33486 0.207291 -0.000893188)
(0.304205 0.212107 -0.000963521)
(0.273298 0.215337 -0.00103667)
(0.242601 0.217552 -0.00110558)
(0.212513 0.219415 -0.00117679)
(0.182481 0.221332 -0.00124371)
(0.15403 0.22369 -0.00130974)
(0.125649 0.226856 -0.00138718)
(0.0957056 0.23047 -0.00145591)
(0.0709905 0.234885 -0.00152283)
(0.0466512 0.24445 -0.00166536)
(0.0159639 0.2596 -0.00190507)
(3 -1.53588e-08 0.000365576)
(3 7.32894e-08 0.000347165)
(3 2.59717e-07 0.000328856)
(3 5.03944e-07 0.000310649)
(3 8.16395e-07 0.000292546)
(3 1.10498e-06 0.000274548)
(3 1.37814e-06 0.000256656)
(3 1.63289e-06 0.000238872)
(3 1.86788e-06 0.000221198)
(3 2.08667e-06 0.000203633)
(3 2.2954e-06 0.000186179)
(3 2.42918e-06 0.000168873)
(2.99999 2.37771e-06 0.000151761)
(2.99996 2.96288e-06 0.000134959)
(2.9999 7.07065e-06 0.000118569)
(2.99975 1.72233e-05 0.000103374)
(2.99944 4.87336e-05 8.9735e-05)
(2.99865 0.000109477 8.27033e-05)
(2.99719 0.000299543 7.97482e-05)
(2.99194 0.000448754 0.00013914)
(2.9835 0.00217104 0.000191642)
(2.94916 0.00304257 0.000694238)
(2.8751 0.0147989 0.00136384)
(2.64583 0.0309458 0.00421952)
(1.90739 0.107214 0.00958756)
(0.921175 0.304054 0.00815345)
(0.453375 0.206971 0.00221681)
(0.602487 0.167284 -0.00107487)
(0.682703 0.156521 -0.000753657)
(0.674872 0.153402 -0.000357148)
(0.636486 0.15352 -0.000281639)
(0.586144 0.160549 -0.000291706)
(0.544158 0.170984 -0.00039688)
(0.509063 0.18299 -0.000496348)
(0.474522 0.196082 -0.000568888)
(0.439652 0.209276 -0.000633896)
(0.405476 0.221181 -0.000699748)
(0.37219 0.23082 -0.000764221)
(0.340291 0.23791 -0.000826412)
(0.309693 0.242864 -0.000891076)
(0.278805 0.246416 -0.000958252)
(0.24798 0.249073 -0.00102155)
(0.217608 0.251425 -0.00108692)
(0.187156 0.253836 -0.00114821)
(0.158171 0.256616 -0.00120905)
(0.129249 0.260181 -0.00127961)
(0.0986332 0.264077 -0.00134227)
(0.0729911 0.268616 -0.00140369)
(0.0478683 0.278812 -0.00153852)
(0.0164967 0.29489 -0.00176138)
(3 -1.69544e-08 0.000337147)
(3 6.88258e-08 0.000320135)
(3 2.33843e-07 0.00030322)
(3 4.72675e-07 0.000286403)
(3 7.51813e-07 0.000269686)
(3 1.07349e-06 0.000253069)
(3 1.34225e-06 0.000236553)
(3 1.59371e-06 0.000220141)
(3 1.82592e-06 0.000203832)
(3 2.04033e-06 0.000187628)
(3 2.23838e-06 0.00017153)
(3 2.35651e-06 0.00015557)
(2.99999 2.24616e-06 0.000139784)
(2.99996 2.68491e-06 0.000124269)
(2.99991 6.21353e-06 0.00010911)
(2.99977 1.50923e-05 9.49583e-05)
(2.99949 4.319e-05 8.21111e-05)
(2.99877 9.79894e-05 7.47385e-05)
(2.99742 0.000266802 7.15262e-05)
(2.99288 0.000425873 0.000115021)
(2.98517 0.00187207 0.000162044)
(2.95581 0.00282077 0.000548092)
(2.89249 0.0126254 0.00109372)
(2.69695 0.0286748 0.00335848)
(2.07443 0.0950838 0.00785955)
(1.04318 0.279392 0.00878675)
(0.477392 0.215956 0.00264409)
(0.618537 0.197029 -0.00107772)
(0.696797 0.184601 -0.000780935)
(0.684616 0.180793 -0.000360386)
(0.644789 0.180834 -0.000277305)
(0.594873 0.189857 -0.000281575)
(0.551078 0.201561 -0.000365107)
(0.514443 0.214197 -0.000454895)
(0.479478 0.227695 -0.000523396)
(0.444723 0.241069 -0.000582909)
(0.410873 0.252934 -0.000642493)
(0.378035 0.262457 -0.000701115)
(0.346557 0.269539 -0.000757688)
(0.316296 0.274668 -0.000816011)
(0.285625 0.278671 -0.000877147)
(0.254764 0.281957 -0.000934733)
(0.22414 0.285013 -0.000994351)
(0.193237 0.28815 -0.0010504)
(0.163605 0.291569 -0.0011056)
(0.133999 0.295669 -0.00116955)
(0.102547 0.29997 -0.00122668)
(0.0760038 0.30474 -0.00128371)
(0.0500736 0.315678 -0.00140297)
(0.0174777 0.332784 -0.00160344)
(3 -1.7097e-08 0.000307539)
(3 6.28558e-08 0.00029199)
(3 2.09116e-07 0.000276532)
(3 4.33495e-07 0.000261168)
(3 6.77637e-07 0.000245898)
(3 9.98241e-07 0.000230723)
(3 1.22064e-06 0.000215643)
(3 1.39393e-06 0.000200661)
(3 1.54043e-06 0.000185776)
(3 1.64804e-06 0.00017099)
(3 1.64698e-06 0.000156303)
(3 1.48827e-06 0.000141746)
(2.99999 1.24766e-06 0.000127344)
(2.99997 1.6887e-06 0.000113176)
(2.99992 4.80325e-06 9.93139e-05)
(2.99979 1.26582e-05 8.62904e-05)
(2.99954 3.6553e-05 7.43494e-05)
(2.99888 8.26268e-05 6.68888e-05)
(2.99764 0.000220362 6.31755e-05)
(2.99361 0.00035917 9.54553e-05)
(2.98668 0.00140559 0.000133426)
(2.96082 0.00223757 0.000433482)
(2.90739 0.00868019 0.000839418)
(2.73786 0.0220022 0.002626)
(2.20993 0.0596594 0.0060169)
(1.16361 0.196485 0.00947852)
(0.487222 0.224698 0.00298039)
(0.613248 0.237264 -0.000920168)
(0.688039 0.215421 -0.000719025)
(0.681147 0.209516 -0.000365374)
(0.64655 0.210124 -0.000277615)
(0.600262 0.221028 -0.000272417)
(0.555436 0.233641 -0.000331185)
(0.517967 0.246765 -0.000412296)
(0.48332 0.260508 -0.000476653)
(0.449373 0.273868 -0.000530668)
(0.416459 0.285518 -0.000583596)
(0.384593 0.294842 -0.000635882)
(0.35392 0.301959 -0.00068657)
(0.324278 0.307405 -0.000738984)
(0.294049 0.31213 -0.000794117)
(0.263276 0.316293 -0.000846058)
(0.232469 0.320303 -0.000899485)
(0.201098 0.324413 -0.000949735)
(0.170676 0.328752 -0.000998936)
(0.140216 0.333706 -0.00105556)
(0.107665 0.338766 -0.0011086)
(0.079666 0.34403 -0.00115936)
(0.0523565 0.355716 -0.00126669)
(0.0184447 0.374361 -0.00145252)
(3 -1.50231e-08 0.000276698)
(3 5.46836e-08 0.000262678)
(3 1.87734e-07 0.000248745)
(3 3.85948e-07 0.000234899)
(3 6.10369e-07 0.00022114)
(3 8.87293e-07 0.000207471)
(3 1.11522e-06 0.00019389)
(3 1.30208e-06 0.0001804)
(3 1.46281e-06 0.000167)
(3 1.58587e-06 0.000153693)
(3 1.38977e-06 0.000140478)
(3 8.48003e-07 0.000127379)
(2.99999 3.94475e-07 0.000114418)
(2.99997 8.20468e-07 0.000101659)
(2.99992 4.01401e-06 8.91623e-05)
(2.99981 1.22279e-05 7.7362e-05)
(2.99958 3.55586e-05 6.64536e-05)
(2.99898 8.07472e-05 5.92165e-05)
(2.99781 0.000201819 5.54282e-05)
(2.99422 0.000324046 7.92056e-05)
(2.98788 0.0011924 0.000109893)
(2.96458 0.00179564 0.000350574)
(2.91875 0.00677362 0.00064751)
(2.76261 0.0160583 0.00218554)
(2.29935 0.0387447 0.00482382)
(1.30783 0.132602 0.00913164)
(0.535923 0.254805 0.00306096)
(0.600507 0.27041 -0.0005477)
(0.6622 0.244006 -0.000597996)
(0.672246 0.239045 -0.000382736)
(0.646091 0.241597 -0.000277077)
(0.603627 0.25316 -0.000259578)
(0.557658 0.266832 -0.000294169)
(0.519922 0.280282 -0.000368086)
(0.48646 0.293953 -0.000428595)
(0.454137 0.307034 -0.000476743)
(0.422818 0.318355 -0.000522859)
(0.392461 0.327552 -0.00056883)
(0.362968 0.334923 -0.00061353)
(0.334234 0.341028 -0.000659769)
(0.304601 0.346796 -0.000708555)
(0.273908 0.352217 -0.000754464)
(0.242919 0.357567 -0.000802041)
(0.211086 0.36302 -0.000847329)
(0.179827 0.368634 -0.000890964)
(0.148416 0.3747 -0.0009402)
(0.114551 0.380765 -0.000985235)
(0.0847264 0.386755 -0.00103078)
(0.0559707 0.399465 -0.00112285)
(0.0202677 0.419899 -0.00128528)
(3 -1.24035e-08 0.000244567)
(3 4.54725e-08 0.000232148)
(3 1.67876e-07 0.000219809)
(3 3.3334e-07 0.00020755)
(3 5.4534e-07 0.000195371)
(3 7.69785e-07 0.000183273)
(3 1.02542e-06 0.000171257)
(3 1.25407e-06 0.000159324)
(3 1.469e-06 0.000147473)
(3 1.66468e-06 0.000135709)
(3 1.68784e-06 0.000124028)
(3 1.28732e-06 0.000112449)
(2.99999 9.89562e-07 0.000100989)
(2.99997 1.61182e-06 8.97013e-05)
(2.99993 5.36457e-06 7.86302e-05)
(2.99983 1.4871e-05 6.81234e-05)
(2.99962 4.10654e-05 5.83267e-05)
(2.99908 9.28379e-05 5.15105e-05)
(2.99801 0.00021911 4.76949e-05)
(2.9948 0.000403577 6.47235e-05)
(2.98903 0.00117711 8.91489e-05)
(2.96811 0.00197372 0.000277944)
(2.92848 0.00645388 0.000494832)
(2.78609 0.0141339 0.00177374)
(2.38068 0.0384205 0.00377692)
(1.47181 0.112205 0.00809116)
(0.618155 0.284241 0.00306166)
(0.58189 0.284227 -0.000102352)
(0.638005 0.269268 -0.000469769)
(0.661276 0.270389 -0.000380223)
(0.641397 0.27605 -0.000264063)
(0.603396 0.286806 -0.00024293)
(0.558226 0.300201 -0.000259783)
(0.521085 0.313497 -0.000322172)
(0.489944 0.326885 -0.000378416)
(0.460221 0.339599 -0.000421264)
(0.431159 0.35072 -0.000460543)
(0.402705 0.360112 -0.000500086)
(0.374609 0.368185 -0.000538694)
(0.346849 0.375451 -0.000578542)
(0.317884 0.382658 -0.000620696)
(0.287386 0.389824 -0.000661034)
(0.256258 0.396994 -0.000702357)
(0.223936 0.404258 -0.000741394)
(0.191597 0.411619 -0.000778925)
(0.15888 0.41932 -0.000820286)
(0.123356 0.426888 -0.000862055)
(0.0912254 0.434089 -0.000900922)
(0.0601334 0.448047 -0.000978323)
(0.0221539 0.470967 -0.0011258)
(3 -1.11697e-08 0.000211086)
(3 3.84491e-08 0.000200343)
(3 1.43528e-07 0.000189671)
(3 2.86437e-07 0.000179071)
(3 4.68441e-07 0.000168544)
(3 6.63969e-07 0.000158089)
(3 8.8679e-07 0.000147707)
(3 1.09896e-06 0.000137398)
(3 1.25728e-06 0.000127164)
(3 1.38929e-06 0.000117006)
(3 1.67692e-06 0.000106924)
(3 1.59028e-06 9.69297e-05)
(2.99999 1.66038e-06 8.70356e-05)
(2.99997 2.65789e-06 7.72831e-05)
(2.99994 6.97045e-06 6.77044e-05)
(2.99985 1.7344e-05 5.85651e-05)
(2.99967 4.55581e-05 4.99676e-05)
(2.99919 0.000102193 4.37124e-05)
(2.99824 0.000239073 3.97334e-05)
(2.9954 0.000492015 5.17112e-05)
(2.9903 0.0012228 6.93989e-05)
(2.97157 0.00239204 0.000214282)
(2.93766 0.0066331 0.000367336)
(2.80974 0.0142433 0.00137998)
(2.45607 0.0402838 0.00288803)
(1.63512 0.1062 0.00673502)
(0.705462 0.312711 0.00304112)
(0.554207 0.298281 0.000276807)
(0.616744 0.293605 -0.000407592)
(0.650119 0.300693 -0.000346124)
(0.634772 0.309185 -0.000232806)
(0.60097 0.319497 -0.000214279)
(0.559177 0.331652 -0.000225964)
(0.524889 0.344767 -0.000277611)
(0.49696 0.358102 -0.000326787)
(0.470168 0.370779 -0.000363533)
(0.443442 0.382191 -0.000396564)
(0.416831 0.392396 -0.000429711)
(0.390004 0.401821 -0.000462552)
(0.363024 0.410852 -0.000496006)
(0.33466 0.420045 -0.000531336)
(0.304418 0.429422 -0.000565676)
(0.273162 0.438884 -0.000600447)
(0.240371 0.448485 -0.000633557)
(0.206995 0.458266 -0.000665197)
(0.172859 0.468362 -0.000699991)
(0.13538 0.47838 -0.000734223)
(0.10027 0.487606 -0.000767823)
(0.0665667 0.50342 -0.000831171)
(0.0255763 0.52935 -0.000952752)
(3 -9.4163e-09 0.000176192)
(3 3.09814e-08 0.000167204)
(3 1.19159e-07 0.000158277)
(3 2.38206e-07 0.000149413)
(3 3.91658e-07 0.000140612)
(3 5.56496e-07 0.000131873)
(3 7.46308e-07 0.000123198)
(3 9.34908e-07 0.000114586)
(3 1.10637e-06 0.000106039)
(3 1.21628e-06 9.75555e-05)
(3 1.49299e-06 8.91394e-05)
(3 1.45871e-06 8.07979e-05)
(2.99999 1.61715e-06 7.25371e-05)
(2.99998 2.65972e-06 6.43879e-05)
(2.99995 6.829e-06 5.63728e-05)
(2.99987 1.66314e-05 4.86811e-05)
(2.99972 4.32201e-05 4.13733e-05)
(2.9993 9.63394e-05 3.58079e-05)
(2.9985 0.000228642 3.1719e-05)
(2.99601 0.000464865 3.97314e-05)
(2.99174 0.00122229 4.99402e-05)
(2.97519 0.00234 0.000157952)
(2.94685 0.00708608 0.000257955)
(2.83392 0.0141142 0.00101902)
(2.53214 0.0468588 0.00210994)
(1.80504 0.11525 0.00524678)
(0.802027 0.354733 0.00296914)
(0.525093 0.326544 0.000576289)
(0.603078 0.321329 -0.000361504)
(0.647575 0.32904 -0.000302803)
(0.636475 0.338238 -0.000193005)
(0.606416 0.348412 -0.000178064)
(0.568414 0.360256 -0.000189699)
(0.537335 0.373587 -0.000232882)
(0.5119 0.387258 -0.000272843)
(0.487095 0.400482 -0.000302935)
(0.461855 0.412927 -0.000330036)
(0.436335 0.424682 -0.000357323)
(0.410207 0.436093 -0.000384096)
(0.383641 0.447453 -0.00041119)
(0.355714 0.459128 -0.000439823)
(0.325796 0.471227 -0.000468088)
(0.294605 0.483592 -0.000496641)
(0.261628 0.496296 -0.000523961)
(0.227323 0.509381 -0.000549667)
(0.191715 0.522794 -0.000576705)
(0.152043 0.53625 -0.000604377)
(0.113144 0.5487 -0.000629836)
(0.0749581 0.567386 -0.000679112)
(0.0295427 0.598011 -0.000784388)
(3 -7.99686e-09 0.000139818)
(3 2.44965e-08 0.000132668)
(3 9.41697e-08 0.000125569)
(3 1.90954e-07 0.000118521)
(3 3.12694e-07 0.000111525)
(3 4.48896e-07 0.000104581)
(3 6.00566e-07 9.76886e-05)
(3 7.57114e-07 9.08487e-05)
(3 9.18487e-07 8.40613e-05)
(3 1.0647e-06 7.73266e-05)
(3 1.14838e-06 7.06473e-05)
(3 1.07991e-06 6.40278e-05)
(2.99999 1.29462e-06 5.74711e-05)
(2.99998 2.44397e-06 5.09986e-05)
(2.99995 6.49989e-06 4.4625e-05)
(2.99989 1.57737e-05 3.8478e-05)
(2.99976 4.01885e-05 3.25903e-05)
(2.99941 8.79656e-05 2.79208e-05)
(2.99871 0.000208792 2.42551e-05)
(2.99661 0.000403739 2.85646e-05)
(2.99296 0.0011989 3.46383e-05)
(2.97905 0.00188251 0.000105537)
(2.95565 0.00785387 0.000169389)
(2.86216 0.0131897 0.000675949)
(2.61918 0.0559885 0.00140002)
(2.00704 0.130797 0.00366627)
(0.937892 0.408235 0.00285505)
(0.527376 0.369335 0.000776386)
(0.615621 0.356485 -0.000309691)
(0.66858 0.356684 -0.000258964)
(0.659321 0.364263 -0.000156403)
(0.63005 0.374183 -0.000141957)
(0.593137 0.387248 -0.000151471)
(0.562331 0.40146 -0.000184951)
(0.536751 0.415922 -0.00021643)
(0.511925 0.430237 -0.000240146)
(0.486747 0.44422 -0.000261336)
(0.461329 0.457927 -0.000282786)
(0.435372 0.47168 -0.000304159)
(0.409024 0.485682 -0.000325116)
(0.381665 0.500153 -0.000347037)
(0.352514 0.51547 -0.000369391)
(0.321913 0.531293 -0.000391275)
(0.289281 0.547829 -0.000411941)
(0.254417 0.565288 -0.000431251)
(0.217462 0.583504 -0.000450883)
(0.175588 0.602296 -0.000471605)
(0.132161 0.620087 -0.00049202)
(0.0889953 0.643529 -0.000526581)
(0.0373199 0.681562 -0.000605419)
(3 -7.02642e-09 0.000101894)
(3 1.9831e-08 9.667e-05)
(3 7.05564e-08 9.14848e-05)
(3 1.50811e-07 8.63385e-05)
(3 2.41064e-07 8.12311e-05)
(3 3.59711e-07 7.6163e-05)
(3 4.71537e-07 7.11342e-05)
(3 6.17958e-07 6.61449e-05)
(3 7.32244e-07 6.11952e-05)
(3 8.63213e-07 5.62855e-05)
(3 7.96216e-07 5.14172e-05)
(3 7.33061e-07 4.65925e-05)
(2.99999 1.07349e-06 4.18133e-05)
(2.99998 2.44679e-06 3.70928e-05)
(2.99996 6.72767e-06 3.24392e-05)
(2.99991 1.62013e-05 2.79307e-05)
(2.9998 4.03335e-05 2.3582e-05)
(2.99951 8.40109e-05 2.00055e-05)
(2.99892 0.000207998 1.70799e-05)
(2.99722 0.000411227 1.85818e-05)
(2.99395 0.0011328 2.30563e-05)
(2.98345 0.00196202 5.83839e-05)
(2.96383 0.00708197 0.000102813)
(2.89379 0.0125915 0.000369114)
(2.71586 0.0478329 0.000783754)
(2.2494 0.113696 0.00214387)
(1.13625 0.360312 0.00265115)
(0.579902 0.385488 0.000848376)
(0.648864 0.391861 -0.000216521)
(0.699482 0.384675 -0.000197034)
(0.691225 0.391369 -0.000122769)
(0.66161 0.401688 -0.00010747)
(0.62455 0.416711 -0.000113245)
(0.592081 0.431926 -0.000134813)
(0.565424 0.447018 -0.000157799)
(0.540271 0.462204 -0.000175457)
(0.515122 0.477472 -0.000190724)
(0.490062 0.492894 -0.000206288)
(0.464779 0.50882 -0.000221965)
(0.43922 0.525399 -0.000236824)
(0.413188 0.542641 -0.000252272)
(0.385626 0.561159 -0.000267635)
(0.356395 0.581204 -0.000282853)
(0.325191 0.602774 -0.00029744)
(0.291048 0.62614 -0.000310965)
(0.253766 0.651432 -0.000324443)
(0.210326 0.678549 -0.000338713)
(0.162043 0.706019 -0.000351212)
(0.111655 0.738877 -0.000373725)
(0.0500777 0.790781 -0.00043023)
(3 -2.49952e-09 6.23455e-05)
(3 1.61289e-08 5.91407e-05)
(3 5.3031e-08 5.59606e-05)
(3 1.06869e-07 5.28051e-05)
(3 1.74696e-07 4.96745e-05)
(3 2.54997e-07 4.65688e-05)
(3 3.47317e-07 4.3488e-05)
(3 4.45519e-07 4.04323e-05)
(3 5.46083e-07 3.74017e-05)
(3 5.85865e-07 3.43964e-05)
(3 5.54812e-07 3.14171e-05)
(3 6.37268e-07 2.84646e-05)
(2.99999 1.23208e-06 2.554e-05)
(2.99999 2.95727e-06 2.26495e-05)
(2.99997 7.63774e-06 1.97971e-05)
(2.99993 1.77349e-05 1.70215e-05)
(2.99984 4.08712e-05 1.43362e-05)
(2.99961 8.35355e-05 1.20167e-05)
(2.99914 0.000206255 1.00521e-05)
(2.99777 0.000432119 1.02781e-05)
(2.99517 0.00104966 1.196e-05)
(2.98657 0.00232636 2.91708e-05)