/*--------------------------------*- C++ -*----------------------------------*\
| =========                 |                                                 |
| \\      /  F ield         | OpenFOAM: The Open Source CFD Toolbox           |
|  \\    /   O peration     | Version:  2112                                  |
|   \\  /    A nd           | Website:  www.openfoam.com                      |
|    \\/     M anipulation  |                                                 |
\*---------------------------------------------------------------------------*/
FoamFile
{
    version     2.0;
    format      ascii;
    arch        "LSB;label=32;scalar=64";
    class       volScalarField;
    location    "45";
    object      p;
}
// * * * * * * * * * * * * * * * * * * * * * * * * * * * * * * * * * * * * * //

dimensions      [0 2 -2 0 0 0 0];

internalField   nonuniform List<scalar> 
400
(
1.1017342e-09
-0.00067287477
-0.0013853526
-0.0019427108
-0.0022200039
-0.0021565006
-0.0017277959
-0.00092620501
0.00023541572
0.0017074005
0.0033872808
0.0051121902
0.0066734714
0.0078490949
0.0084583802
0.0084236729
0.0078133859
0.0068445092
0.0058612941
0.0052989401
0.0006578399
-4.0527326e-05
-0.00056966114
-0.00094062701
-0.0011108648
-0.0010399225
-0.00070579174
-9.554674e-05
0.0007890963
0.0019161817
0.0032095794
0.0045546974
0.0057819559
0.0067162513
0.0072144199
0.0072145242
0.0067699493
0.0060527635
0.0053105222
0.0047384814
0.0014236973
0.00044064784
-0.00011660199
-0.00045324528
-0.00061481075
-0.00058481368
-0.00034658313
0.00011973884
0.00082845265
0.0017698969
0.002894281
0.0040981555
0.0052282346
0.0061109729
0.0065938711
0.0065976657
0.0061557355
0.0054215047
0.0045937375
0.0037482239
0.0020141919
0.00068168207
1.6766068e-05
-0.00035885633
-0.00057155275
-0.00062656382
-0.00051008755
-0.00019063666
0.00036849406
0.0011843752
0.0022299006
0.0034174158
0.0045913591
0.0055569386
0.0061235541
0.0061665606
0.0056836178
0.0048170438
0.0037472818
0.0024735861
0.0021672624
0.00049611135
-0.00029626478
-0.00074871025
-0.0010582578
-0.0012452755
-0.0012927543
-0.001151308
-0.00075505751
-5.3111367e-05
0.00095700865
0.0022102647
0.0035446927
0.0047326502
0.0055218333
0.0057098757
0.0052292789
0.0042015954
0.002806172
0.00098394796
0.0016539533
-0.0003144872
-0.0012387952
-0.0017993078
-0.0022526682
-0.0026279154
-0.0028986274
-0.0029910888
-0.0028025443
-0.0022376885
-0.0012511138
0.00013086848
0.0017446218
0.0033270889
0.0045416267
0.005065765
0.0047174839
0.0035661871
0.0017895797
-0.00072593635
0.00028701546
-0.0019195794
-0.0029730074
-0.0036713911
-0.0043203048
-0.0049532082
-0.0055301278
-0.005947961
-0.0060590109
-0.0057073895
-0.0047757281
-0.003258715
-0.0012665324
0.00090715555
0.0028231084
0.0039868219
0.0040250819
0.0028876947
0.00071536368
-0.0026805163
-0.0020764395
-0.0044512015
-0.0056268135
-0.0064923328
-0.0073929314
-0.0083657737
-0.0093569306
-0.010231791
-0.010790978
-0.010804847
-0.010063366
-0.0084617712
-0.0060407832
-0.0030832375
-0.00012632688
0.0021126057
0.0029638114
0.0021355654
-0.00036605136
-0.0048726279
-0.0055241779
-0.0079921245
-0.0092779305
-0.010333799
-0.011538012
-0.012935432
-0.014462723
-0.015956332
-0.017162476
-0.017766044
-0.017438091
-0.015919485
-0.013122975
-0.0092517799
-0.0048990301
-0.0010300363
0.0012693911
0.0012777454
-0.0013339764
-0.0072016958
-0.010076924
-0.012565108
-0.013936675
-0.015184013
-0.016718393
-0.018602642
-0.020774223
-0.023048789
-0.025121709
-0.026586374
-0.026969372
-0.025812964
-0.0228457
-0.018074472
-0.012051115
-0.0059519754
-0.0013707597
0.00030057448
-0.0019472218
-0.0093822437
-0.015684999
-0.018132426
-0.019537568
-0.020926819
-0.02275775
-0.025129895
-0.027997038
-0.03116644
-0.034291504
-0.03687688
-0.038294205
-0.037844311
-0.035065885
-0.029601496
-0.021822522
-0.012985599
-0.0051849968
-0.00071577068
-0.0017642186
-0.010792274
-0.022243615
-0.024613051
-0.025945607
-0.027334972
-0.029324172
-0.032079239
-0.035588968
-0.039664692
-0.043927314
-0.047801337
-0.050530219
-0.051236512
-0.048956909
-0.043143576
-0.033769042
-0.021926367
-0.010036905
-0.0014154644
-9.8862575e-06
-0.010225638
-0.029641239
-0.031923912
-0.032978762
-0.034079888
-0.035939526
-0.038831523
-0.042795629
-0.047651617
-0.052990574
-0.058163625
-0.062284279
-0.064265562
-0.062875188
-0.057112216
-0.046476769
-0.031649112
-0.015037884
-0.00086440957
0.004646745
-0.0055215553
-0.037866034
-0.040048538
-0.040440157
-0.040752536
-0.042015072
-0.044653084
-0.048758207
-0.05414408
-0.060356064
-0.066665383
-0.072060723
-0.075268314
-0.074811391
-0.069269294
-0.057628333
-0.039961532
-0.018247992
0.00278902
0.014445141
0.0069075317
-0.047230616
-0.049134392
-0.04814061
-0.046882315
-0.046905525
-0.048798724
-0.05266832
-0.05827604
-0.065076128
-0.072232028
-0.078595801
-0.082712353
-0.082880239
-0.077309418
-0.064523963
-0.043934977
-0.016748007
0.012502931
0.03293877
0.03240894
-0.058896812
-0.059639914
-0.055883955
-0.051941076
-0.049972334
-0.050629905
-0.053928685
-0.059495378
-0.066611892
-0.074285327
-0.0811912
-0.085679436
-0.085831827
-0.079522221
-0.064876124
-0.040689288
-0.0072409375
0.032139358
0.064981438
0.07774917
-0.076226532
-0.072613752
-0.063516219
-0.05543541
-0.050725037
-0.049781615
-0.052312368
-0.057664398
-0.064891853
-0.072775003
-0.079779398
-0.084036778
-0.083391685
-0.075348989
-0.057602698
-0.028375161
0.012933312
0.065396464
0.1155515
0.15150622
-0.10809227
-0.089556358
-0.071233862
-0.057233042
-0.049072162
-0.046330242
-0.048077291
-0.053202635
-0.060434653
-0.068295897
-0.075027426
-0.078526946
-0.076389038
-0.065809704
-0.043865505
-0.0078184686
0.044393654
0.11299814
0.18838041
0.27186076
-0.17684559
-0.10828972
-0.076202501
-0.054651264
-0.04299241
-0.03899806
-0.04057054
-0.045928073
-0.053441568
-0.06143839
-0.068027618
-0.070962591
-0.067551164
-0.054739864
-0.02914884
0.01356358
0.078146941
0.17006435
0.28949545
0.47421821
-0.37208363
-0.12470856
-0.054973111
-0.031962544
-0.022063583
-0.02030055
-0.024359487
-0.031958031
-0.041261592
-0.050640919
-0.058316934
-0.062187497
-0.059782586
-0.04805684
-0.022658555
0.021474185
0.092818704
0.21015276
0.40288841
0.77640928
)
;

boundaryField
{
    movingWall
    {
        type            zeroGradient;
    }
    fixedWalls
    {
        type            zeroGradient;
    }
    frontAndBack
    {
        type            empty;
    }
}


// ************************************************************************* //
