/*--------------------------------*- C++ -*----------------------------------*\
| =========                 |                                                 |
| \\      /  F ield         | OpenFOAM: The Open Source CFD Toolbox           |
|  \\    /   O peration     | Version:  2112                                  |
|   \\  /    A nd           | Website:  www.openfoam.com                      |
|    \\/     M anipulation  |                                                 |
\*---------------------------------------------------------------------------*/
FoamFile
{
    version     2.0;
    format      ascii;
    arch        "LSB;label=32;scalar=64";
    class       volScalarField;
    location    "1";
    object      p;
}
// * * * * * * * * * * * * * * * * * * * * * * * * * * * * * * * * * * * * * //

dimensions      [0 2 -2 0 0 0 0];

internalField   nonuniform List<scalar> 
400
(
2.9761039e-08
-0.00041968794
-0.00065026346
-0.00064560348
-0.00035619768
0.000221419
0.0010644298
0.0021406949
0.0034122035
0.0048332262
0.0063479302
0.0078889253
0.0093773566
0.010725483
0.011842326
0.012643796
0.013070991
0.013121082
0.012870492
0.012399321
0.00041292102
-1.6588546e-05
-0.00017526848
-0.00011009643
0.0001876732
0.00072693081
0.0014969671
0.0024757208
0.0036325515
0.0049270973
0.0063079994
0.0077137162
0.0090711079
0.010301111
0.011324211
0.012070445
0.012496022
0.012604458
0.012428247
0.011949314
0.0006622529
0.00011754902
-5.7095789e-05
1.4144665e-05
0.00030689674
0.00082714017
0.0015670309
0.0025087768
0.0036262582
0.0048830969
0.0062312971
0.0076106572
0.0089496738
0.010169155
0.011188416
0.01193536
0.012363868
0.012473099
0.012265763
0.011655185
0.00068392122
9.7107496e-07
-0.00021885899
-0.00016127245
0.00012368371
0.00063761493
0.0013728455
0.0023140416
0.0034386603
0.0047136595
0.0060931405
0.0075175096
0.0089126184
0.010193929
0.011272059
0.012063592
0.012511158
0.012605622
0.012330786
0.01155207
0.00039595775
-0.00041419782
-0.00068159313
-0.00063979946
-0.00035754438
0.00016379677
0.00091678703
0.0018884595
0.0030598008
0.0044009706
0.0058675482
0.0073999022
0.0089184222
0.010329104
0.011527675
0.012411902
0.012906383
0.012991556
0.012640391
0.01168601
-0.00025158632
-0.0011865373
-0.0015014239
-0.0014722318
-0.0011834073
-0.00063839822
0.00015601841
0.0011897019
0.0024477703
0.0039041399
0.0055160866
0.0072243306
0.0089415089
0.010560414
0.011955197
0.012995557
0.01357859
0.013669174
0.013231569
0.012071282
-0.0012966945
-0.0023682988
-0.0027324137
-0.0027108182
-0.0024049136
-0.0018202899
-0.00096265746
0.00016159314
0.001543041
0.0031610897
0.0049770117
0.0069324946
0.0089330527
0.010854856
0.012543144
0.013827242
0.014561741
0.014684321
0.014144101
0.012710238
-0.0027856032
-0.0040189532
-0.0044365636
-0.0044173616
-0.0040847208
-0.0034474314
-0.0025097868
-0.0012730715
0.00026093287
0.0020808902
0.0041574607
0.0064304879
0.0088078946
0.011147185
0.013257124
0.014910567
0.015895918
0.016100374
0.015437053
0.013610675
-0.0047824391
-0.0062150971
-0.0066926269
-0.0066705837
-0.0063033025
-0.0056049501
-0.0045781906
-0.0032173882
-0.0015135626
0.00053501538
0.0029128415
0.0055725943
0.0084259732
0.011318221
0.014018791
0.016225227
0.017624083
0.018008711
0.017207219
0.014795341
-0.0073756649
-0.0090580324
-0.009601789
-0.0095693751
-0.0091603112
-0.0083976387
-0.0072823493
-0.0058000124
-0.003927535
-0.0016448898
0.0010542965
0.0041464451
0.0075646657
0.011157882
0.014664056
0.017690248
0.019772784
0.020535348
0.019616046
0.016322571
-0.010687509
-0.012683849
-0.01329426
-0.013235463
-0.012774181
-0.011947213
-0.010753859
-0.0091694028
-0.0071542888
-0.0046659045
-0.0016674459
0.0018571471
0.0058887112
0.010314332
0.014874555
0.019092554
0.022303005
0.023837452
0.022933417
0.018346376
-0.014892771
-0.017279614
-0.017937824
-0.017814863
-0.017278244
-0.016383884
-0.015128492
-0.01347629
-0.011371502
-0.0087486544
-0.00553562
-0.0016605119
0.0029380951
0.0082460919
0.014086659
0.01996598
0.025002423
0.028063775
0.027594183
0.021263916
-0.020258773
-0.023110667
-0.023748046
-0.023474856
-0.022808418
-0.021825855
-0.020516752
-0.018833809
-0.016709376
-0.014062414
-0.010790751
-0.0067577614
-0.0018064761
0.004247071
0.011442326
0.019455014
0.02730833
0.033237974
0.034237767
0.02602931
-0.027231543
-0.030565895
-0.030996034
-0.030387617
-0.029471247
-0.028333945
-0.026944011
-0.025240319
-0.023151531
-0.020597477
-0.017469184
-0.013585942
-0.0086551019
-0.0022804471
0.006000533
0.016386794
0.028208163
0.039098609
0.043724398
0.034754
-0.036626516
-0.040226478
-0.039991855
-0.038671863
-0.037262717
-0.035813314
-0.034236523
-0.032448457
-0.030381964
-0.027977662
-0.025149261
-0.021704222
-0.017249519
-0.011187862
-0.0024774472
0.010048392
0.026753615
0.045267816
0.05732944
0.051584174
-0.050078719
-0.052954559
-0.05097022
-0.048215917
-0.045867888
-0.043803138
-0.04181301
-0.039767885
-0.037601362
-0.035280412
-0.03275259
-0.029867784
-0.026221553
-0.020890572
-0.012344913
0.0018001154
0.023779042
0.052536576
0.077568993
0.083145386
-0.071157303
-0.069931992
-0.063793589
-0.058314191
-0.054291802
-0.0511403
-0.048413413
-0.045880898
-0.043436988
-0.041041578
-0.038643656
-0.036074257
-0.032923169
-0.028091543
-0.019429864
-0.0034911988
0.024211184
0.065401772
0.10977918
0.13897237
-0.10795859
-0.091835704
-0.077455207
-0.067228651
-0.060493262
-0.05576449
-0.052105939
-0.049041018
-0.046318034
-0.043806402
-0.041380257
-0.038770416
-0.035369491
-0.029803524
-0.019280692
0.0005932515
0.036147982
0.092627695
0.16300326
0.24078662
-0.18063176
-0.11387971
-0.08636449
-0.069488338
-0.059710552
-0.053905462
-0.050114088
-0.047284607
-0.044902422
-0.042705594
-0.040461718
-0.037749071
-0.03365423
-0.026291116
-0.012491859
0.013516925
0.060314604
0.13827659
0.250729
0.43442434
-0.37497844
-0.13013732
-0.06553829
-0.047777633
-0.040489117
-0.037674947
-0.037078859
-0.037103286
-0.036994395
-0.036498164
-0.0354348
-0.033410622
-0.029555136
-0.022098825
-0.0072973517
0.021630647
0.076373912
0.18039001
0.36603655
0.73822492
)
;

boundaryField
{
    movingWall
    {
        type            zeroGradient;
    }
    fixedWalls
    {
        type            zeroGradient;
    }
    frontAndBack
    {
        type            empty;
    }
}


// ************************************************************************* //
