/*--------------------------------*- C++ -*----------------------------------*\
| =========                 |                                                 |
| \\      /  F ield         | OpenFOAM: The Open Source CFD Toolbox           |
|  \\    /   O peration     | Version:  2112                                  |
|   \\  /    A nd           | Website:  www.openfoam.com                      |
|    \\/     M anipulation  |                                                 |
\*---------------------------------------------------------------------------*/
FoamFile
{
    version     2.0;
    format      ascii;
    arch        "LSB;label=32;scalar=64";
    class       surfaceScalarField;
    location    "1";
    object      phi;
}
// * * * * * * * * * * * * * * * * * * * * * * * * * * * * * * * * * * * * * //

dimensions      [0 3 -1 0 0 0 0];

oriented        oriented;

internalField   nonuniform List<scalar> 
760
(
-4.3283932e-06
4.3280472e-06
-4.6533182e-05
4.2204815e-05
-0.00011684465
7.0311501e-05
-0.00019940725
8.2562636e-05
-0.00028286673
8.3459521e-05
-0.00036014894
7.7282235e-05
-0.00042688437
6.6735434e-05
-0.00048008075
5.3196369e-05
-0.00051733078
3.7250009e-05
-0.00053650341
1.9172581e-05
-0.00053574722
-7.5619119e-07
-0.00051368702
-2.2060138e-05
-0.00046980797
-4.3878957e-05
-0.00040500092
-6.4806949e-05
-0.00032234582
-8.2655025e-05
-0.00022813327
-9.4212563e-05
-0.00013291528
-9.5218077e-05
-5.209851e-05
-8.0816828e-05
-4.5582899e-06
-4.7540192e-05
-4.5582494e-06
-4.2400809e-05
4.6728871e-05
-0.00016044652
0.00016025061
-0.0003272453
0.00023711037
-0.00051598358
0.00027130099
-0.0007053202
0.00027279621
-0.00088027847
0.00025224056
-0.0010307056
0.00021716258
-0.0011493988
0.00017188951
-0.0012307952
0.00011864652
-0.0012703578
5.8735216e-05
-0.0012645763
-6.5376899e-06
-0.0012111302
-7.5506128e-05
-0.0011098309
-0.00014517812
-0.00096352216
-0.00021111566
-0.00077954528
-0.00026663194
-0.00057139242
-0.00030236547
-0.00036003987
-0.00030657063
-0.00017376799
-0.00026708866
-4.4537877e-05
-0.00017677021
-4.9096185e-05
-7.509508e-05
0.00012182398
-0.00025223963
0.00033739524
-0.00048967013
0.00047454096
-0.00075216221
0.00053379314
-0.0010126707
0.00053330477
-0.0012520209
0.00049159081
-0.0014569311
0.00042207279
-0.0016178458
0.00033280421
-0.0017274151
0.00022821589
-0.0017797599
0.00011108007
-0.0017703431
-1.5954353e-05
-0.0016963705
-0.00014947862
-0.0015576964
-0.00028385219
-0.0013581463
-0.00041066563
-0.0011073248
-0.00051745343
-0.00082266168
-0.00058702868
-0.00053100478
-0.00059822752
-0.00026848014
-0.00052961317
-7.7259929e-05
-0.00036799048
-0.00012635619
-9.7581771e-05
0.00021940582
-0.00032000383
0.00055981739
-0.00061174938
0.00076628661
-0.00092976383
0.00085180768
-0.0012426711
0.00084621207
-0.001528798
0.00077771778
-0.0017732665
0.00066654137
-0.0019653534
0.00052489114
-0.0020967282
0.00035959077
-0.002160588
0.00017493987
-0.0021514939
-2.5048309e-05
-0.0020657189
-0.00023525353
-0.0019024349
-0.00044713627
-0.0016652685
-0.00064783193
-0.0013646351
-0.00081808682
-0.0010204129
-0.0009312509
-0.0006641599
-0.00095448043
-0.00033947296
-0.00085430011
-9.9179154e-05
-0.00060828441
-0.00022553536
-0.00011445549
0.00033386137
-0.00037430816
0.00081967012
-0.00071220913
0.0011041876
-0.0010775912
0.0012171898
-0.0014351322
0.0012037531
-0.0017613003
0.0011038859
-0.0020403416
0.00094558278
-0.0022609789
0.00074552849
-0.0024142814
0.00051289337
-0.0024925923
0.00025325085
-0.0024893085
-2.8332125e-05
-0.0023990225
-0.00032553962
-0.0022191864
-0.00062697242
-0.001951955
-0.00091506327
-0.0016073769
-0.0011626648
-0.0012071784
-0.0013314494
-0.00078808501
-0.0013735737
-0.00040279633
-0.0012395889
-0.0001167278
-0.00089435298
-0.00034226313
-0.00013011445
0.00046397588
-0.00042614867
0.0011157043
-0.00080948197
0.0014875209
-0.0012219053
0.0016296132
-0.0016241044
0.0016059522
-0.0019909094
0.0014706909
-0.0023060745
0.001260748
-0.0025581457
0.00099759976
-0.0027378124
0.00069256003
-0.0028365077
0.00035194618
-0.0028461068
-1.8733148e-05
-0.0027585031
-0.00041314345
-0.0025681579
-0.00081731761
-0.002274126
-0.0012090951
-0.0018846064
-0.0015521844
-0.0014225611
-0.0017934947
-0.00093095313
-0.0018651817
-0.00047465422
-0.0016958879
-0.00013573671
-0.0012332704
-0.00047799981
-0.00014775412
0.00061173002
-0.00048416283
0.001452113
-0.0009180444
0.0019214025
-0.0013827146
0.0020942833
-0.0018345807
0.0020578184
-0.0022469932
0.0018831033
-0.0026036094
0.0016173642
-0.002893237
0.0012872274
-0.0031065095
0.0009058326
-0.003233919
0.0004793555
-0.0032656999
1.3047688e-05
-0.0031897019
-0.00048914151
-0.0029959609
-0.0010110586
-0.0026780259
-0.00152703
-0.0022397771
-0.0019904333
-0.001703851
-0.0023294208
-0.0011203058
-0.0024487269
-0.00057065505
-0.0022455387
-0.00016110642
-0.001642819
-0.0006391062
-0.00016964105
0.00078137103
-0.00055476683
0.0018372386
-0.0010485356
0.0024151712
-0.0015741885
0.0026199361
-0.0020834466
0.0025670765
-0.0025484961
0.0023481529
-0.002953548
0.002022416
-0.0032884039
0.0016220833
-0.0035442946
0.0011617232
-0.0037114077
0.00064646849
-0.0037768546
7.8494481e-05
-0.0037257797
-0.00054021641
-0.0035403416
-0.0011964967
-0.0032054774
-0.0018618942
-0.0027164862
-0.0024794246
-0.0020918984
-0.0029540086
-0.0013882677
-0.0031523576
-0.00070943147
-0.0029243748
-0.00019837555
-0.002153875
-0.00083748173
-0.00019769755
0.00097906849
-0.00064335514
0.0022828961
-0.0012094683
0.0029812842
-0.0018068394
0.003217307
-0.002382116
0.0031423529
-0.0029069776
0.0028730145
-0.0033672649
0.0024827033
-0.0037549711
0.0020097894
-0.0040630916
0.0014698435
-0.0042822696
0.00086564625
-0.004398225
0.00019444983
-0.0043909616
-0.00054747981
-0.0042338264
-0.0013536318
-0.0038984278
-0.002197293
-0.0033645161
-0.0030133363
-0.0026386715
-0.0036798532
-0.0017795035
-0.0040115257
-0.00091881336
-0.0037850649
-0.00025633768
-0.0028163507
-0.0010938195
-0.00023422946
0.0012132979
-0.00075585485
0.0028045213
-0.0014092954
0.0036347248
-0.0020898196
0.0038978311
-0.0027388762
0.0037914094
-0.003328866
0.0034630041
-0.0038489299
0.0030027671
-0.0042950549
0.0024559144
-0.004663872
0.0018386605
-0.0049483994
0.0011501736
-0.0051343318
0.00038038226
-0.0051973926
-0.00048441893
-0.0051003623
-0.0014506621
-0.0047964387
-0.0025012167
-0.0042397736
-0.0035700015
-0.003410975
-0.0045086518
-0.0023584028
-0.005064098
-0.0012434439
-0.0049000238
-0.00035094367
-0.003708851
-0.0014447633
-0.000282818
0.0014961158
-0.00090040591
0.003422109
-0.0016582317
0.0043925505
-0.0024323687
0.004671968
-0.0031596601
0.0045187005
-0.0038153321
0.0041186759
-0.0043942057
0.0035816407
-0.0048986896
0.0029603982
-0.0053316612
0.0022716321
-0.0056914257
0.0015099382
-0.0059666393
0.00065559606
-0.0061313448
-0.00031971348
-0.0061381947
-0.0014438123
-0.0059179213
-0.0027214902
-0.0053871213
-0.0041008016
-0.0044792415
-0.0054165316
-0.0032070772
-0.0063362623
-0.0017502237
-0.0063568774
-0.00051043314
-0.0049486416
-0.0019551965
-0.00034962272
0.0018457386
-0.0010892228
0.0041617088
-0.0019693744
0.0052727019
-0.0028433821
0.0055459756
-0.0036456851
0.0053210035
-0.0043577738
0.0048307645
-0.0049833069
0.0042071737
-0.0055340233
0.0035111146
-0.0060221603
0.0027597692
-0.0064550827
0.0019428606
-0.0068290954
0.0010296088
-0.0071215914
-2.7217546e-05
-0.0072798207
-0.001285583
-0.0072125346
-0.0027887762
-0.0067895837
-0.0045237524
-0.0058723439
-0.0063337713
-0.0043968391
-0.007811767
-0.0025217274
-0.0082319893
-0.00078022479
-0.0066901442
-0.0027354213
-0.00044555748
0.0022912961
-0.0013405812
0.0050567324
-0.0023579341
0.0062900545
-0.0033266784
0.0065147199
-0.0041844455
0.0061787707
-0.0049245349
0.0055708539
-0.0055634779
0.0048461167
-0.0061254342
0.0040730709
-0.0066349992
0.0032693342
-0.0071123784
0.0024202398
-0.0075671424
0.0014843729
-0.007987099
0.00039273907
-0.008325258
-0.00094742382
-0.0084782356
-0.0026357984
-0.0082722604
-0.0047297276
-0.0074800195
-0.0071260123
-0.0059103596
-0.0093814271
-0.0036193477
-0.010523001
-0.0012226457
-0.0090868461
-0.0039580673
-0.00059015019
0.0028814462
-0.0016801746
0.006146757
-0.0028351666
0.0074450464
-0.0038660073
0.0075455606
-0.0047261186
0.007038882
-0.0054297548
0.00627449
-0.0060116472
0.0054280092
-0.0065113799
0.0045728035
-0.0069678325
0.0037257868
-0.0074161442
0.0028685517
-0.0078830789
0.0019513075
-0.0083764159
0.00088607612
-0.0088654508
-0.00045838873
-0.0092648946
-0.0022363545
-0.0093819733
-0.0046126491
-0.008913839
-0.0075941466
-0.0075072971
-0.010787969
-0.0049943591
-0.013035939
-0.0018979426
-0.012183262
-0.0058560097
-0.00081862726
0.0037000734
-0.0021390638
0.0074671938
-0.0033880242
0.0086940069
-0.0043860379
0.0085435743
-0.0051290653
0.0077819095
-0.0056678349
0.0068132597
-0.0060628333
0.0058230075
-0.0063717589
0.0048817292
-0.0066473669
0.0040013949
-0.0069377723
0.0031589572
-0.0072858792
0.0022994144
-0.0077265301
0.0013267271
-0.0082495678
6.4648939e-05
-0.0088373934
-0.0016485291
-0.0093250487
-0.004124994
-0.0094023107
-0.0075168844
-0.0085766684
-0.011613611
-0.0063396843
-0.015272924
-0.0027957203
-0.015727227
-0.0086517301
-0.0011942121
0.0048942854
-0.0027372041
0.009010186
-0.00391925
0.0098760529
-0.0046575417
0.0092818661
-0.0050433019
0.0081676698
-0.0051882481
0.0069582059
-0.0051877755
0.0058225349
-0.0051179752
0.0048119289
-0.0050401258
0.0039235457
-0.0050065454
0.0031253767
-0.0050661339
0.0023590028
-0.0052666538
0.001527247
-0.0056708829
0.00046887816
-0.0062815638
-0.0010378481
-0.0070763321
-0.0033302255
-0.007848524
-0.0067446927
-0.00808741
-0.011374725
-0.0069323068
-0.016428027
-0.0036916555
-0.018967878
-0.012343385
-0.001821449
0.0067157344
-0.0033929136
0.010581651
-0.0040649015
0.010548041
-0.0040681112
0.0092850758
-0.0036743428
0.0077739015
-0.0030800278
0.006363891
-0.0024129875
0.0051554947
-0.0017554627
0.0041544042
-0.0011611915
0.0033292744
-0.00066966617
0.0026338513
-0.0003187408
0.0020080775
-0.00015789518
0.0013664016
-0.00026523092
0.00057621398
-0.0007350132
-0.00056806592
-0.0016752934
-0.0023899454
-0.0031113051
-0.0053086813
-0.0047525643
-0.0097334657
-0.005603549
-0.015577042
-0.0040570368
-0.02051439
-0.016400422
-0.0027479833
0.0094637177
-0.0034378615
0.011271529
-0.0025979823
0.0097081617
-0.0010601436
0.0077472373
0.00066786854
0.0060458895
0.0023517272
0.0046800324
0.0038863085
0.0036209133
0.0052309739
0.0028097387
0.0063748789
0.0021853695
0.0073169926
0.0016917376
0.0080510826
0.0012739876
0.008550275
0.00086720909
0.0087423448
0.00038414404
0.0084830655
-0.0003087864
0.007549535
-0.0014564145
0.0056458153
-0.0034049617
0.0026289138
-0.0067165641
-0.00085570859
-0.01209242
-0.0026177239
-0.018752375
-0.019018146
-0.0022510007
0.011714718
0.00028079062
0.0087397375
0.0043349643
0.0056539881
0.0080817183
0.0040004834
0.011271963
0.0028556451
0.01391371
0.002038285
0.016066162
0.0014684608
0.017802976
0.0010729249
0.019194773
0.00079357322
0.020297759
0.00058875138
0.021145626
0.00042612073
0.02173738
0.00027545465
0.022017889
0.00010363566
0.021869748
-0.00016064567
0.021013437
-0.00060010364
0.018990359
-0.0013818834
0.015169055
-0.0028952601
0.0092031581
-0.0061265231
0.0026175629
-0.01216678
-0.016400583
0.011714718
0.020454456
0.026108444
0.030108927
0.032964572
0.035002857
0.036471318
0.037544243
0.038337816
0.038926568
0.039352689
0.039628143
0.039731779
0.039571133
0.03897103
0.037589146
0.034693886
0.028567363
0.016400583
)
;

boundaryField
{
    movingWall
    {
        type            calculated;
        value           uniform 0;
    }
    fixedWalls
    {
        type            calculated;
        value           uniform 0;
    }
    frontAndBack
    {
        type            empty;
        value           nonuniform List<scalar> 0();
    }
}


// ************************************************************************* //
