/*--------------------------------*- C++ -*----------------------------------*\
| =========                 |                                                 |
| \\      /  F ield         | OpenFOAM: The Open Source CFD Toolbox           |
|  \\    /   O peration     | Version:  2112                                  |
|   \\  /    A nd           | Website:  www.openfoam.com                      |
|    \\/     M anipulation  |                                                 |
\*---------------------------------------------------------------------------*/
FoamFile
{
    version     2.0;
    format      ascii;
    arch        "LSB;label=32;scalar=64";
    class       surfaceScalarField;
    location    "1";
    object      phi_0;
}
// * * * * * * * * * * * * * * * * * * * * * * * * * * * * * * * * * * * * * //

dimensions      [0 3 -1 0 0 0 0];

oriented        oriented;

internalField   nonuniform List<scalar> 
760
(
-4.4352462e-06
4.4350033e-06
-4.6807096e-05
4.2371863e-05
-0.00011720604
7.0398955e-05
-0.00019973879
8.2532762e-05
-0.00028307049
8.3331715e-05
-0.00036016576
7.709529e-05
-0.00042669152
6.6525764e-05
-0.00047968457
5.2993045e-05
-0.00051676247
3.7077889e-05
-0.00053581824
1.9055749e-05
-0.00053502423
-7.9399518e-07
-0.00051302428
-2.1999887e-05
-0.00046931033
-4.3713869e-05
-0.00040475685
-6.4553392e-05
-0.0003223954
-8.236139e-05
-0.0002284363
-9.3959094e-05
-0.00013333976
-9.5096576e-05
-5.2456578e-05
-8.0883223e-05
-4.7061869e-06
-4.7750434e-05
-4.7062028e-06
-4.2569788e-05
4.700479e-05
-0.00016076556
0.00016056767
-0.00032752483
0.00023715827
-0.00051598571
0.00027099369
-0.00070485155
0.00027219762
-0.00087922977
0.00025147356
-0.0010290529
0.0002163489
-0.0011471912
0.00017113135
-0.0012281447
0.00011803143
-0.0012674329
5.8343973e-05
-0.0012615933
-6.6334837e-06
-0.0012083429
-7.5250206e-05
-0.0011074962
-0.00014456043
-0.00096185337
-0.0002101962
-0.00077864932
-0.00026556546
-0.00057121192
-0.00030139657
-0.00036033623
-0.00030597234
-0.00017418707
-0.00026703244
-4.4773122e-05
-0.00017716442
-4.9479304e-05
-7.5180671e-05
0.00012218547
-0.00025227358
0.00033766061
-0.00048936083
0.00047424558
-0.00075119724
0.00053283014
-0.0010108162
0.00053181666
-0.0012491639
0.00048982131
-0.0014530785
0.00042026356
-0.0016131081
0.00033116093
-0.0017219917
0.00022691503
-0.0017739287
0.00011028109
-0.0017644498
-1.6112302e-05
-0.0016908067
-0.00014889321
-0.0015528588
-0.00028250834
-0.001354372
-0.00040868295
-0.0011048078
-0.0005151297
-0.00082137356
-0.0005848308
-0.00053066458
-0.00059668134
-0.00026862354
-0.00052907341
-7.7428521e-05
-0.00036835941
-0.0001269078
-9.7535135e-05
0.00021972064
-0.00031962857
0.00055975411
-0.00061066166
0.00076527875
-0.00092760144
0.00084977
-0.0012391871
0.00084340237
-0.0015238958
0.00077453009
-0.0017669926
0.00066336047
-0.0019578771
0.00052204553
-0.0020883257
0.00035736367
-0.0021516322
0.00017358756
-0.0021424428
-2.5301582e-05
-0.002057094
-0.00023424205
-0.0018947732
-0.00044482923
-0.0016590465
-0.00064440967
-0.0013601636
-0.00081401255
-0.0010177305
-0.00092726387
-0.00066297627
-0.0009514355
-0.0003392273
-0.00085282233
-9.9247417e-05
-0.00060833928
-0.00022615525
-0.00011428663
0.00033400732
-0.0003735466
0.00081901413
-0.0007103867
0.0011021189
-0.0010743049
0.0012136882
-0.0014301266
0.0011992242
-0.0017544918
0.0010988954
-0.0020318038
0.00094067247
-0.002250919
0.0007411609
-0.0024030267
0.00050947146
-0.0024805853
0.00025114616
-0.0024770986
-2.8788396e-05
-0.0023872529
-0.00032408773
-0.0022085432
-0.00062353903
-0.0019430817
-0.00090987111
-0.0016007441
-0.0011563501
-0.0012029365
-0.0013250713
-0.00078596396
-0.0013684081
-0.00040213694
-0.0012366494
-0.0001167061
-0.00089377018
-0.0003428614
-0.00012985662
0.00046386399
-0.00042508787
0.0011142454
-0.00080707166
0.0014841027
-0.0012176989
0.0016243155
-0.0016178276
0.0015993528
-0.001982473
0.0014635408
-0.0022955525
0.001253752
-0.0025457508
0.00099135928
-0.0027238867
0.00068760745
-0.0028215296
0.00034878898
-0.0028306972
-1.9620886e-05
-0.0027434143
-0.00041137068
-0.0025542409
-0.00081271245
-0.0022622359
-0.001201876
-0.0018754408
-0.0015431452
-0.0014164562
-0.0017840558
-0.00092771065
-0.0018571536
-0.00047351849
-0.0016908416
-0.00013562967
-0.0012316591
-0.00047849105
-0.00014743979
0.00061130381
-0.00048289194
0.0014496975
-0.00091519607
0.0019164068
-0.0013777904
0.0020869098
-0.0018272698
0.0020488322
-0.002237175
0.001873446
-0.002591325
0.0016079021
-0.0028786649
0.0012786992
-0.0030899632
0.00089890577
-0.0032158581
0.00047468386
-0.0032468273
1.134818e-05
-0.0031708204
-0.0004873776
-0.0029781158
-0.001005417
-0.002662344
-0.0015176478
-0.0022272853
-0.0019782041
-0.0016951986
-0.0023161426
-0.0011154748
-0.0024368774
-0.00056882637
-0.0022374901
-0.00016087431
-0.0016396111
-0.00063936532
-0.00016929368
0.00078059747
-0.00055335387
0.0018337576
-0.0010453651
0.002408418
-0.001568701
0.0026102456
-0.0020752762
0.0025554074
-0.0025374637
0.0023356336
-0.0029396264
0.0020100647
-0.0032716949
0.0016107677
-0.0035250363
0.0011522472
-0.0036900166
0.00063966408
-0.0037539321
7.5263541e-05
-0.003702275
-0.00053903479
-0.0035174659
-0.001190226
-0.0031846862
-0.0018504274
-0.0026992733
-0.0024636171
-0.0020794295
-0.0029359864
-0.0013809147
-0.0031353922
-0.00070642131
-0.0029119834
-0.00019789481
-0.0021481376
-0.00083726029
-0.00019733425
0.00097793166
-0.00064185362
0.0022782768
-0.0012060705
0.0029726347
-0.0018009188
0.0032050939
-0.0023732358
0.0031277242
-0.0028948753
0.0028572731
-0.0033518097
0.0024669992
-0.0037361403
0.0019950983
-0.0040409846
0.0014570914
-0.0042571613
0.00085584068
-0.0043706418
0.00018874403
-0.004361816
-0.00054786067
-0.0042044825
-0.0013475596
-0.0038707115
-0.0021841984
-0.0033405452
-0.0029937833
-0.0026204148
-0.0036561168
-0.0017680747
-0.0039877323
-0.0009137371
-0.003766321
-0.00025535044
-0.0028065242
-0.0010926106
-0.00023386847
0.0012118001
-0.00075432577
0.0027987339
-0.0014057852
0.0036240941
-0.002083635
0.0038829436
-0.002729501
0.00377359
-0.0033159364
0.0034437084
-0.0038321839
0.0029832466
-0.0042743038
0.0024372181
-0.0046390162
0.0018218036
-0.004919493
0.0011363174
-0.0051016999
0.00037095099
-0.0051617997
-0.00048776078
-0.0050632123
-0.001446147
-0.0047598954
-0.0024875155
-0.0042066933
-0.0035469854
-0.0033844442
-0.0044783659
-0.002340759
-0.0050314175
-0.0012349646
-0.0048721152
-0.0003490104
-0.0036924786
-0.0014416211
-0.00028248873
0.0014942887
-0.00089894846
0.0034151935
-0.0016548019
0.0043799475
-0.0024262192
0.0046543608
-0.0031502002
0.0044975708
-0.003802096
0.0040956041
-0.0043767926
0.003557943
-0.0048767271
0.0029371525
-0.0053048135
0.00224989
-0.0056594569
0.0014909607
-0.0059295508
0.00064104505
-0.0060895963
-0.00032771504
-0.0060930452
-0.0014426981
-0.0058717147
-0.0027088462
-0.0053434091
-0.004075291
-0.0044423968
-0.0053793782
-0.0031811061
-0.0062927083
-0.0017367826
-0.006316439
-0.00050694872
-0.0049223124
-0.0019485699
-0.0003493795
0.0018436682
-0.0010880154
0.0041538292
-0.0019663732
0.0052583051
-0.0028378198
0.0055258073
-0.0036369266
0.0052966774
-0.0043452812
0.0048039585
-0.0049665739
0.0041792358
-0.0055125285
0.0034831072
-0.0059953571
0.0027327186
-0.0064224427
0.0019180463
-0.0067902426
0.001008845
-0.0070765395
-4.1418202e-05
-0.0072294507
-0.0012897871
-0.0071590635
-0.0027792332
-0.0067368971
-0.0044974571
-0.0058258035
-0.0062904717
-0.0043621104
-0.0077564013
-0.002502367
-0.0081761825
-0.0007745874
-0.006650092
-0.0027231573
-0.00044549822
0.0022891665
-0.0013399333
0.0050482642
-0.0023559618
0.0062743334
-0.003322663
0.0064925085
-0.0041777745
0.0061517888
-0.0049146731
0.0055408572
-0.0055499055
0.0048144681
-0.0061075926
0.0040407942
-0.006612258
0.003237384
-0.0070840416
0.00238983
-0.0075325318
0.0014573352
-0.0079458408
0.00037189069
-0.0082775453
-0.00095808254
-0.0084257768
-0.0026310016
-0.0082184706
-0.0047047634
-0.0074301462
-0.0070787959
-0.0058707144
-0.0093158335
-0.0035952312
-0.010451666
-0.0012146456
-0.0090306776
-0.0039378031
-0.00059043119
0.0028795976
-0.0016805634
0.0061383965
-0.002835147
0.0074289169
-0.0038650235
0.007522385
-0.0047236901
0.0070104554
-0.0054254655
0.0062426327
-0.0060051028
0.0053941054
-0.0065021608
0.0045378522
-0.0069554436
0.0036906668
-0.0073999817
0.0028343682
-0.0078624572
0.0019198106
-0.0083506633
0.00086009699
-0.0088339557
-0.0004747901
-0.0092285219
-0.0022364354
-0.00934246
-0.0045908255
-0.008874454
-0.007546802
-0.0074728179
-0.010717469
-0.0049704387
-0.012954045
-0.0018884147
-0.012112702
-0.0058262176
-0.00081943521
0.0036990327
-0.0021410611
0.0074600225
-0.0033910914
0.0086789471
-0.0043899402
0.0085212339
-0.0051335832
0.0077540986
-0.0056727886
0.0067818382
-0.0060680806
0.0057893974
-0.0063771753
0.0048469469
-0.0066527922
0.0039662838
-0.0069429527
0.0031245286
-0.0072904552
0.0022673132
-0.0077301811
0.0012998229
-0.008249704
4.473296e-05
-0.0088348518
-0.0016512876
-0.0093185983
-0.004107079
-0.0093914475
-0.007473953
-0.0085621655
-0.011546751
-0.0063250617
-0.015191149
-0.0027873972
-0.015650367
-0.0086136149
-0.0011956066
0.0048946392
-0.0027410923
0.0090055085
-0.0039261136
0.0098639685
-0.0046676333
0.0092627537
-0.0050567731
0.0081432384
-0.0052052205
0.0069302856
-0.0052083954
0.0057925724
-0.0051424357
0.0047809873
-0.0050686255
0.0038924736
-0.0050391754
0.0030950787
-0.0051026955
0.0023308333
-0.0053063409
0.0015034684
-0.0057138183
0.00045221029
-0.006323902
-0.0010412039
-0.0071149117
-0.0033160692
-0.007878917
-0.0067099478
-0.0081054221
-0.011320246
-0.0069370844
-0.016359487
-0.0036891986
-0.018898252
-0.012302813
-0.0018229874
0.0067176265
-0.0033978218
0.010580343
-0.0040743777
0.010540524
-0.0040830791
0.0092714552
-0.0036954154
0.0077555746
-0.003107683
0.0063425532
-0.0024476032
0.0051324926
-0.0017974081
0.0041307922
-0.0012108
0.0033058656
-0.00072713273
0.0026114114
-0.00038390445
0.0019876048
-0.00022988134
0.0013494455
-0.00034297525
0.00056530425
-0.00081496924
-0.00056921019
-0.0017526796
-0.0023783589
-0.003179307
-0.0052833205
-0.0048034559
-0.009696097
-0.005631517
-0.015531426
-0.004064419
-0.02046535
-0.016367232
-0.0027486199
0.0094662464
-0.0034409952
0.011272719
-0.0026057488
0.0097052781
-0.0010742828
0.0077399893
0.00064602155
0.0060352703
0.0023213372
0.0046672377
0.0038467772
0.0036070527
0.0051819188
0.0027956506
0.0063161054
0.0021716791
0.0072485338
0.001678983
0.0079733276
0.0012628113
0.0084641718
0.00085860137
0.0086499168
0.0003795592
0.008388257
-0.00030755026
0.0074575835
-0.0014476853
0.0055634407
-0.0033891778
0.0025637761
-0.0066964324
-0.00089742902
-0.01207022
-0.0026347162
-0.018728063
-0.019001948
-0.002249907
0.011716153
0.00028176062
0.0087410508
0.0043333571
0.0056536816
0.0080750225
0.0039983239
0.011258259
0.0028520337
0.013891719
0.0020337776
0.016035195
0.0014635769
0.017762786
0.0010680596
0.01914546
0.00078900485
0.020239745
0.00058469861
0.021079733
0.00042282298
0.021665081
0.00027325337
0.021941622
0.00010301831
0.021792928
-0.00015885643
0.020940862
-0.00059561989
0.018926957
-0.0013752722
0.015118873
-0.0028883484
0.0091696064
-0.0061209537
0.0026042068
-0.012162664
-0.016397741
0.011716153
0.020457204
0.026110886
0.03010921
0.032961244
0.034995021
0.036458598
0.037526658
0.038315663
0.038900361
0.039323184
0.039596438
0.039699456
0.0395406
0.03894498
0.037569707
0.034681359
0.028560406
0.016397741
)
;

boundaryField
{
    movingWall
    {
        type            calculated;
        value           uniform 0;
    }
    fixedWalls
    {
        type            calculated;
        value           uniform 0;
    }
    frontAndBack
    {
        type            empty;
        value           nonuniform List<scalar> 0();
    }
}


// ************************************************************************* //
