/*--------------------------------*- C++ -*----------------------------------*\
| =========                 |                                                 |
| \\      /  F ield         | OpenFOAM: The Open Source CFD Toolbox           |
|  \\    /   O peration     | Version:  2112                                  |
|   \\  /    A nd           | Website:  www.openfoam.com                      |
|    \\/     M anipulation  |                                                 |
\*---------------------------------------------------------------------------*/
FoamFile
{
    version     2.0;
    format      ascii;
    arch        "LSB;label=32;scalar=64";
    class       volVectorField;
    location    "1";
    object      U;
}
// * * * * * * * * * * * * * * * * * * * * * * * * * * * * * * * * * * * * * //

dimensions      [0 1 -1 0 0 0 0];

internalField   nonuniform List<vector> 
400
(
(8.0942408e-05 -7.8282329e-05 0)
(-0.00032672784 0.00021345318 0)
(-0.0015551343 0.00044457993 0)
(-0.0031410857 0.00054349591 0)
(-0.0048359155 0.00055343475 0)
(-0.0064668291 0.00051339513 0)
(-0.0079227837 0.00044547713 0)
(-0.0091334123 0.00035927949 0)
(-0.010046913 0.00025760679 0)
(-0.010618612 0.00014093852 0)
(-0.010808421 1.0020866e-05 0)
(-0.010583062 -0.00013299915 0)
(-0.0099219517 -0.00028257845 0)
(-0.0088263924 -0.00042914892 0)
(-0.0073326955 -0.00055680521 0)
(-0.005531566 -0.00064073691 0)
(-0.0035904093 -0.00064568474 0)
(-0.0017598729 -0.00052756116 0)
(-0.00035835291 -0.00025178614 0)
(9.5874715e-05 8.257251e-05 0)
(-0.00020903892 0.00032178903 0)
(-0.001685133 0.0016672585 0)
(-0.0047032573 0.0026289431 0)
(-0.0083906774 0.0030581725 0)
(-0.012253314 0.003089241 0)
(-0.015952025 0.0028622651 0)
(-0.019244609 0.0024710385 0)
(-0.021963836 0.0019660421 0)
(-0.023986464 0.0013707253 0)
(-0.025213173 0.00069742008 0)
(-0.025562929 -4.1755463e-05 0)
(-0.024975309 -0.00082760626 0)
(-0.02342162 -0.0016277909 0)
(-0.020923051 -0.0023905211 0)
(-0.017574661 -0.003036601 0)
(-0.013579075 -0.0034523772 0)
(-0.009276567 -0.0034909173 0)
(-0.0051417154 -0.0029929539 0)
(-0.001794974 -0.0018599237 0)
(-0.00020354877 -0.00033915866 0)
(-0.00046751296 0.0015754495 0)
(-0.0028206334 0.0047300268 0)
(-0.007195695 0.0068085338 0)
(-0.01237546 0.0077276125 0)
(-0.017714254 0.0077510067 0)
(-0.022786981 0.0071601093 0)
(-0.027281903 0.0061584768 0)
(-0.030978174 0.0048664846 0)
(-0.033712242 0.0033486554 0)
(-0.035354008 0.0016444023 0)
(-0.035798855 -0.00020882737 0)
(-0.034970761 -0.0021586742 0)
(-0.032835508 -0.004123662 0)
(-0.029422904 -0.0059783355 0)
(-0.024858378 -0.0075370653 0)
(-0.019405156 -0.0085429166 0)
(-0.013498774 -0.0086779172 0)
(-0.0077400828 -0.0076193177 0)
(-0.0029447919 -0.0051789147 0)
(-0.00045398886 -0.0016409508 0)
(-0.00063086618 0.0033347971 0)
(-0.0036316928 0.0087934855 0)
(-0.0090612869 0.012184972 0)
(-0.015377947 0.013625446 0)
(-0.021813364 0.013577889 0)
(-0.027888037 0.012499726 0)
(-0.033253347 0.010722544 0)
(-0.037662155 0.0084470754 0)
(-0.040930384 0.0057854722 0)
(-0.042909467 0.0028087926 0)
(-0.043476693 -0.00041637146 0)
(-0.042537259 -0.0038010796 0)
(-0.040039686 -0.0072067363 0)
(-0.036003082 -0.010421686 0)
(-0.030556368 -0.013133633 0)
(-0.023992844 -0.014913025 0)
(-0.016816005 -0.015232645 0)
(-0.0097373228 -0.013559082 0)
(-0.0037596861 -0.009551179 0)
(-0.00059841956 -0.0034351073 0)
(-0.00074183748 0.005464844 0)
(-0.0042589473 0.013634152 0)
(-0.010580117 0.01850027 0)
(-0.017866649 0.020477501 0)
(-0.025236067 0.020298709 0)
(-0.032163912 0.018635493 0)
(-0.038278871 0.015964716 0)
(-0.043321561 0.012573642 0)
(-0.047097684 0.0086226535 0)
(-0.049444973 0.0042121327 0)
(-0.050221052 -0.00056610373 0)
(-0.049302155 -0.0055903017 0)
(-0.046601224 -0.010664727 0)
(-0.042102799 -0.015484467 0)
(-0.035913002 -0.019591293 0)
(-0.028335132 -0.022347666 0)
(-0.019937845 -0.022965478 0)
(-0.01156549 -0.020637384 0)
(-0.0044456389 -0.014803908 0)
(-0.00069275063 -0.0055940974 0)
(-0.00084003591 0.0079078851 0)
(-0.0048481642 0.019184348 0)
(-0.012041276 0.025700177 0)
(-0.020287219 0.028241962 0)
(-0.028586864 0.027882481 0)
(-0.036372335 0.02555105 0)
(-0.043256338 0.021890584 0)
(-0.048975635 0.017280901 0)
(-0.053332224 0.011927941 0)
(-0.056152351 0.0059534414 0)
(-0.05727035 -0.00053663527 0)
(-0.05651984 -0.0073983881 0)
(-0.05375486 -0.014386919 0)
(-0.048895299 -0.021100278 0)
(-0.041990835 -0.026910382 0)
(-0.033330172 -0.030919808 0)
(-0.023548517 -0.031999631 0)
(-0.013663636 -0.02897549 0)
(-0.0052052909 -0.020996164 0)
(-0.00078378201 -0.0080993179 0)
(-0.00095192468 0.010673979 0)
(-0.0055101438 0.025480521 0)
(-0.013674466 0.033838946 0)
(-0.022986474 0.036980681 0)
(-0.032318697 0.036394084 0)
(-0.04106009 0.033316531 0)
(-0.048813964 0.028581859 0)
(-0.055322362 0.022668988 0)
(-0.060391876 0.015823934 0)
(-0.06384181 0.0081755293 0)
(-0.065480422 -0.00017492606 0)
(-0.065086046 -0.0090754974 0)
(-0.062427317 -0.018258268 0)
(-0.057318059 -0.027227791 0)
(-0.049700405 -0.035159531 0)
(-0.039802412 -0.040824991 0)
(-0.028311425 -0.042634111 0)
(-0.016464993 -0.038900233 0)
(-0.0062223315 -0.028372612 0)
(-0.00090378098 -0.011027012 0)
(-0.0010950542 0.013827173 0)
(-0.0063257436 0.032651746 0)
(-0.015651123 0.043066238 0)
(-0.026216312 0.046839586 0)
(-0.03674587 0.045968362 0)
(-0.046588277 0.04205968 0)
(-0.055348715 0.036168794 0)
(-0.062789366 0.028881545 0)
(-0.068736831 0.020476829 0)
(-0.073014388 0.011072805 0)
(-0.075400747 0.00073833355 0)
(-0.075617662 -0.010408238 0)
(-0.073326377 -0.022105948 0)
(-0.068172419 -0.033787896 0)
(-0.059911081 -0.044416426 0)
(-0.048621448 -0.05234452 0)
(-0.034984365 -0.055344538 0)
(-0.020488541 -0.050978911 0)
(-0.0077127196 -0.037400903 0)
(-0.0010847671 -0.014551243 0)
(-0.0012843002 0.017471809 0)
(-0.0073640931 0.040901258 0)
(-0.018113527 0.053604065 0)
(-0.030172619 0.058019739 0)
(-0.04209234 0.056776666 0)
(-0.053189428 0.051930929 0)
(-0.063090678 0.04479734 0)
(-0.071602073 0.036078595 0)
(-0.078593966 0.026078147 0)
(-0.083916281 0.014881171 0)
(-0.087341472 0.0024854869 0)
(-0.088531582 -0.011084398 0)
(-0.087012137 -0.025630826 0)
(-0.082202648 -0.040572574 0)
(-0.073554939 -0.054672444 0)
(-0.060839793 -0.065776144 0)
(-0.044582309 -0.070772398 0)
(-0.026490117 -0.066075653 0)
(-0.010014488 -0.048853245 0)
(-0.0013819647 -0.018978668 0)
(-0.0015393256 0.021751878 0)
(-0.0087060149 0.050500047 0)
(-0.021212164 0.065729389 0)
(-0.035039937 0.070749327 0)
(-0.048538882 0.068991869 0)
(-0.0610142 0.063065438 0)
(-0.072146437 0.054591623 0)
(-0.081820896 0.044402615 0)
(-0.089988758 0.032818044 0)
(-0.096564784 0.019863474 0)
(-0.10135151 0.0054184009 0)
(-0.10397638 -0.010654614 0)
(-0.10382533 -0.028329428 0)
(-0.10003134 -0.047125812 0)
(-0.091593664 -0.065688308 0)
(-0.077724864 -0.081306693 0)
(-0.058492047 -0.089677924 0)
(-0.035627628 -0.085428481 0)
(-0.013716378 -0.063964425 0)
(-0.0019135309 -0.024848542 0)
(-0.0018945735 0.026867049 0)
(-0.010471787 0.061798432 0)
(-0.025143236 0.079765973 0)
(-0.041026055 0.085257105 0)
(-0.056246515 0.082749831 0)
(-0.070138929 0.075537753 0)
(-0.082486323 0.06560475 0)
(-0.093301526 0.053927572 0)
(-0.10266644 0.040836379 0)
(-0.11061594 0.026273572 0)
(-0.11704355 0.0099501487 0)
(-0.12160226 -0.0085248721 0)
(-0.12357735 -0.029441968 0)
(-0.12179142 -0.052623147 0)
(-0.11464242 -0.076802299 0)
(-0.10045398 -0.098788243 0)
(-0.07832804 -0.1127823 0)
(-0.049513769 -0.11067738 0)
(-0.019807281 -0.084653528 0)
(-0.0029276845 -0.033127694 0)
(-0.002416137 0.033110231 0)
(-0.012858387 0.07525281 0)
(-0.030183105 0.096073689 0)
(-0.048371732 0.10173046 0)
(-0.065330097 0.098088372 0)
(-0.080498071 0.089288918 0)
(-0.093831437 0.077735866 0)
(-0.10553002 0.064564798 0)
(-0.11586473 0.050115181 0)
(-0.12505822 0.03423216 0)
(-0.13317966 0.016417082 0)
(-0.14000817 -0.0040701998 0)
(-0.1448352 -0.028014598 0)
(-0.14624224 -0.055835422 0)
(-0.14196146 -0.086746418 0)
(-0.12910732 -0.11739699 0)
(-0.10513795 -0.14036628 0)
(-0.069856327 -0.14364134 0)
(-0.029759172 -0.11368616 0)
(-0.0049067309 -0.045520241 0)
(-0.0032341085 0.040939383 0)
(-0.016194584 0.091459871 0)
(-0.036708793 0.11500928 0)
(-0.057299526 0.12022491 0)
(-0.07572198 0.11482965 0)
(-0.091661281 0.10399297 0)
(-0.10534565 0.090582016 0)
(-0.11722986 0.075895739 0)
(-0.12783098 0.060284531 0)
(-0.13762386 0.043497634 0)
(-0.14694355 0.0248115 0)
(-0.15582308 0.0030664273 0)
(-0.16374396 -0.023205611 0)
(-0.16927521 -0.055340198 0)
(-0.16964625 -0.093633304 0)
(-0.16066799 -0.13525811 0)
(-0.13752895 -0.17151546 0)
(-0.097218032 -0.18550744 0)
(-0.045308153 -0.15445349 0)
(-0.0086932635 -0.064858133 0)
(-0.0046070936 0.051110691 0)
(-0.021023587 0.11117386 0)
(-0.045165547 0.13679694 0)
(-0.067806667 0.14045467 0)
(-0.086783408 0.13233974 0)
(-0.10228018 0.11880628 0)
(-0.11494374 0.10318161 0)
(-0.12556083 0.086904105 0)
(-0.13493819 0.070328876 0)
(-0.14383627 0.053123487 0)
(-0.15291068 0.034361775 0)
(-0.16257001 0.012458307 0)
(-0.17267579 -0.014845831 0)
(-0.18220921 -0.050083352 0)
(-0.18847077 -0.095301427 0)
(-0.18639841 -0.14924275 0)
(-0.16880967 -0.20308031 0)
(-0.12857205 -0.23513255 0)
(-0.067428543 -0.20977118 0)
(-0.015496496 -0.095329169 0)
(-0.0070506788 0.064930812 0)
(-0.028220036 0.13523614 0)
(-0.055866417 0.16117035 0)
(-0.079066337 0.16132498 0)
(-0.096350913 0.14905111 0)
(-0.10886438 0.13192155 0)
(-0.11789543 0.11361549 0)
(-0.12465326 0.095622073 0)
(-0.13024861 0.078257732 0)
(-0.13569492 0.06111384 0)
(-0.14192909 0.043123693 0)
(-0.14974917 0.022407899 0)
(-0.15951942 -0.0039729549 0)
(-0.17115512 -0.040123804 0)
(-0.18295724 -0.089981924 0)
(-0.19024616 -0.15509352 0)
(-0.18449846 -0.22867844 0)
(-0.15413347 -0.28656534 0)
(-0.093719766 -0.27894475 0)
(-0.026240733 -0.14188835 0)
(-0.011567548 0.084726509 0)
(-0.039085588 0.16418971 0)
(-0.068250056 0.18652777 0)
(-0.08783179 0.18000912 0)
(-0.098555335 0.16164077 0)
(-0.10330189 0.13992301 0)
(-0.10429884 0.11856189 0)
(-0.10324416 0.098873499 0)
(-0.10148767 0.080999643 0)
(-0.1001415 0.06440574 0)
(-0.10019867 0.047938884 0)
(-0.10265189 0.02960727 0)
(-0.10862101 0.0061530754 0)
(-0.11895271 -0.02746314 0)
(-0.13366891 -0.077196934 0)
(-0.1507048 -0.14816762 0)
(-0.16268314 -0.23848871 0)
(-0.15530111 -0.32675072 0)
(-0.11426511 -0.35310709 0)
(-0.039331679 -0.20848817 0)
(-0.019841136 0.11460854 0)
(-0.054783624 0.19663666 0)
(-0.078046091 0.2078882 0)
(-0.084098431 0.19019375 0)
(-0.078994084 0.16381182 0)
(-0.06824367 0.13714413 0)
(-0.055081928 0.1131589 0)
(-0.041488045 0.09253788 0)
(-0.028743528 0.074986109 0)
(-0.017722564 0.059730451 0)
(-0.0091454349 0.045566655 0)
(-0.0038244717 0.030612074 0)
(-0.0030070569 0.011839072 0)
(-0.0084890263 -0.015478548 0)
(-0.022471471 -0.058429212 0)
(-0.046778344 -0.1252385 0)
(-0.078801521 -0.22116288 0)
(-0.10621956 -0.33548979 0)
(-0.1094193 -0.41087203 0)
(-0.047166347 -0.2947256 0)
(-0.032717964 0.16220703 0)
(-0.070640924 0.22374806 0)
(-0.065546697 0.2107112 0)
(-0.038824831 0.17796779 0)
(-0.0043803683 0.14432326 0)
(0.030620819 0.11515972 0)
(0.063188802 0.091382743 0)
(0.092129974 0.072431547 0)
(0.11704487 0.057340528 0)
(0.13788929 0.045055199 0)
(0.15464946 0.034404341 0)
(0.1670595 0.023872384 0)
(0.17418425 0.011183195 0)
(0.17395941 -0.0072339989 0)
(0.16287865 -0.037084277 0)
(0.1355376 -0.087205871 0)
(0.087243618 -0.16916807 0)
(0.021146195 -0.29051917 0)
(-0.052836545 -0.41781323 0)
(-0.033009118 -0.38030856 0)
(-0.031247249 0.24402833 0)
(-0.03843779 0.22359458 0)
(0.045595506 0.16548473 0)
(0.12577091 0.1232941 0)
(0.19564223 0.091643413 0)
(0.25406949 0.067931891 0)
(0.3018651 0.050614104 0)
(0.34049087 0.038061763 0)
(0.37148791 0.02886002 0)
(0.39618138 0.021904908 0)
(0.41550071 0.016268682 0)
(0.42981513 0.011002886 0)
(0.43860248 0.0049000785 0)
(0.44026509 -0.0037541888 0)
(0.43112739 -0.01790709 0)
(0.40429815 -0.04309418 0)
(0.34909471 -0.090148597 0)
(0.25541561 -0.18226626 0)
(0.096466668 -0.32892068 0)
(0.044413877 -0.38902408 0)
(0.24451493 0.15389155 0)
(0.30989483 0.12096773 0)
(0.46155361 0.077917336 0)
(0.56647051 0.051209397 0)
(0.63493633 0.033989793 0)
(0.68254334 0.022481394 0)
(0.71679951 0.014904222 0)
(0.74169837 0.0099893822 0)
(0.75996259 0.0067899849 0)
(0.77347875 0.0046510853 0)
(0.7834115 0.0031108328 0)
(0.79029664 0.0017988486 0)
(0.79399718 0.00035153115 0)
(0.79348446 -0.0015763008 0)
(0.78606138 -0.0047493018 0)
(0.76705853 -0.01064671 0)
(0.72527781 -0.022079184 0)
(0.64737765 -0.048428976 0)
(0.45401234 -0.11299829 0)
(0.31719764 -0.17250906 0)
)
;

boundaryField
{
    movingWall
    {
        type            fixedValue;
        value           uniform (1 0 0);
    }
    fixedWalls
    {
        type            fixedValue;
        value           uniform (0 0 0);
    }
    frontAndBack
    {
        type            empty;
    }
}


// ************************************************************************* //
