/*--------------------------------*- C++ -*----------------------------------*\
| =========                 |                                                 |
| \\      /  F ield         | OpenFOAM: The Open Source CFD Toolbox           |
|  \\    /   O peration     | Version:  2112                                  |
|   \\  /    A nd           | Website:  www.openfoam.com                      |
|    \\/     M anipulation  |                                                 |
\*---------------------------------------------------------------------------*/
FoamFile
{
    version     2.0;
    format      ascii;
    arch        "LSB;label=32;scalar=64";
    class       volVectorField;
    location    "1";
    object      U_0;
}
// * * * * * * * * * * * * * * * * * * * * * * * * * * * * * * * * * * * * * //

dimensions      [0 1 -1 0 0 0 0];

internalField   nonuniform List<vector> 
400
(
(7.9823121e-05 -7.7184577e-05 0)
(-0.00033074801 0.00021522084 0)
(-0.0015618978 0.00044582559 0)
(-0.0031484682 0.00054387904 0)
(-0.0048415894 0.00055309036 0)
(-0.0064691829 0.00051259453 0)
(-0.0079210196 0.00044445235 0)
(-0.0091273947 0.00035819897 0)
(-0.010037034 0.0002566138 0)
(-0.010605744 0.00014018559 0)
(-0.010793922 9.6748747e-06 0)
(-0.010568741 -0.00013277434 0)
(-0.0099099118 -0.00028170537 0)
(-0.0088186758 -0.00042771223 0)
(-0.0073307145 -0.00055513381 0)
(-0.0055354045 -0.00063941907 0)
(-0.0035983017 -0.00064542033 0)
(-0.0017683583 -0.00052877158 0)
(-0.00036385895 -0.00025405009 0)
(9.4241222e-05 8.102731e-05 0)
(-0.00021084111 0.00032582026 0)
(-0.0016905997 0.0016726863 0)
(-0.0047103267 0.0026314486 0)
(-0.0083945739 0.0030564824 0)
(-0.012249357 0.0030840299 0)
(-0.015937107 0.0028549245 0)
(-0.019217454 0.0024629174 0)
(-0.021924767 0.0019582447 0)
(-0.023937139 0.0013641982 0)
(-0.02515643 0.00069306236 0)
(-0.025502669 -4.3090255e-05 0)
(-0.024916333 -0.00082525267 0)
(-0.023369212 -0.0016215544 0)
(-0.020882172 -0.0023810362 0)
(-0.017548805 -0.0030256355 0)
(-0.013568943 -0.0034427972 0)
(-0.0092791191 -0.0034859517 0)
(-0.0051504634 -0.0029945576 0)
(-0.001802504 -0.0018666634 0)
(-0.00020614513 -0.00034467829 0)
(-0.00046877861 0.0015822805 0)
(-0.0028230228 0.004737026 0)
(-0.0071945591 0.0068077712 0)
(-0.012364137 0.0077169624 0)
(-0.017686895 0.0077323346 0)
(-0.022740048 0.0071368951 0)
(-0.027214419 0.0061341954 0)
(-0.030891413 0.0048440811 0)
(-0.033609373 0.0033306546 0)
(-0.03523986 0.0016331036 0)
(-0.035679739 -0.00021137486 0)
(-0.034854194 -0.0021510112 0)
(-0.032729621 -0.0041055312 0)
(-0.029335386 -0.0059514735 0)
(-0.024794947 -0.0075058282 0)
(-0.019367774 -0.0085141257 0)
(-0.013484308 -0.0086591726 0)
(-0.0077404554 -0.0076154877 0)
(-0.0029497115 -0.0051878347 0)
(-0.0004562912 -0.0016506901 0)
(-0.00063119014 0.0033421048 0)
(-0.0036293384 0.0087968287 0)
(-0.0090487073 0.012173726 0)
(-0.015347045 0.013597445 0)
(-0.02175773 0.013536951 0)
(-0.027804206 0.012452096 0)
(-0.033140933 0.010674391 0)
(-0.037523436 0.0084036655 0)
(-0.040769892 0.0057513269 0)
(-0.042733749 0.0027879837 0)
(-0.043294136 -0.0004202777 0)
(-0.042357819 -0.0037855671 0)
(-0.03987424 -0.0071714018 0)
(-0.035862199 -0.010369554 0)
(-0.030448444 -0.013072224 0)
(-0.023921817 -0.014854152 0)
(-0.016779421 -0.015189707 0)
(-0.0097260803 -0.013541386 0)
(-0.0037607078 -0.0095569948 0)
(-0.00060024556 -0.0034473282 0)
(-0.00074132418 0.0054699084 0)
(-0.0042521566 0.013628091 0)
(-0.010556703 0.018471051 0)
(-0.017817291 0.02042386 0)
(-0.025153958 0.020227131 0)
(-0.032045689 0.018555483 0)
(-0.038124574 0.015885483 0)
(-0.043134123 0.012503051 0)
(-0.046882519 0.0085675051 0)
(-0.049209806 0.0041786087 0)
(-0.049975857 -0.000572504 0)
(-0.049059008 -0.0055656493 0)
(-0.046373732 -0.010608083 0)
(-0.041904773 -0.015399993 0)
(-0.035756262 -0.019489971 0)
(-0.028226537 -0.02224724 0)
(-0.019876453 -0.022886753 0)
(-0.011541513 -0.020596082 0)
(-0.0044428606 -0.014800416 0)
(-0.00069436082 -0.0056068119 0)
(-0.00083897327 0.0079085538 0)
(-0.0048380701 0.019164062 0)
(-0.012009344 0.02564655 0)
(-0.020222939 0.028155445 0)
(-0.028482892 0.027772801 0)
(-0.036225114 0.02543132 0)
(-0.043065882 0.021773245 0)
(-0.04874493 0.017176572 0)
(-0.053066856 0.011845924 0)
(-0.055860487 0.005902436 0)
(-0.056962997 -0.00054856915 0)
(-0.056210831 -0.0073654148 0)
(-0.053460512 -0.014306706 0)
(-0.048633282 -0.020977506 0)
(-0.041777553 -0.026759474 0)
(-0.033176923 -0.030765362 0)
(-0.023457271 -0.031871891 0)
(-0.013624573 -0.028899346 0)
(-0.0051985208 -0.020976548 0)
(-0.00078546522 -0.008110879 0)
(-0.00095057727 0.01066882 0)
(-0.005497883 0.02544242 0)
(-0.013636408 0.033755809 0)
(-0.022910855 0.036855244 0)
(-0.03219736 0.036239715 0)
(-0.040888847 0.033150137 0)
(-0.048592209 0.028419163 0)
(-0.055052395 0.022523401 0)
(-0.060078575 0.015707426 0)
(-0.06349284 0.008099602 0)
(-0.065107289 -0.0001992061 0)
(-0.064703791 -0.0090384204 0)
(-0.06205468 -0.018155085 0)
(-0.056977371 -0.027062566 0)
(-0.049414325 -0.034949508 0)
(-0.039589109 -0.040602321 0)
(-0.028178397 -0.04244097 0)
(-0.016404096 -0.038774659 0)
(-0.0062096674 -0.028327986 0)
(-0.00090558366 -0.011035593 0)
(-0.0010936008 0.013815325 0)
(-0.0063121614 0.032593268 0)
(-0.015608788 0.042949578 0)
(-0.026132129 0.046670084 0)
(-0.036610573 0.045763239 0)
(-0.046396588 0.041839657 0)
(-0.055098776 0.03595277 0)
(-0.062482002 0.028685635 0)
(-0.068375371 0.020315753 0)
(-0.072605163 0.01096133 0)
(-0.074953697 0.00069157651 0)
(-0.075148106 -0.010375686 0)
(-0.072855964 -0.021984739 0)
(-0.067728407 -0.03357916 0)
(-0.059524249 -0.044138459 0)
(-0.04832039 -0.052036916 0)
(-0.034786637 -0.055064148 0)
(-0.020391496 -0.050782672 0)
(-0.0076890765 -0.037317338 0)
(-0.001086221 -0.014553569 0)
(-0.0012828592 0.017452792 0)
(-0.0073498284 0.0408206 0)
(-0.018068404 0.053450697 0)
(-0.030082184 0.057801693 0)
(-0.041945986 0.056515032 0)
(-0.052980378 0.051650086 0)
(-0.062815228 0.044519071 0)
(-0.07125876 0.03582144 0)
(-0.078183423 0.025859477 0)
(-0.08344194 0.014719384 0)
(-0.086810901 0.0024008419 0)
(-0.087958699 -0.011071452 0)
(-0.08641944 -0.025503309 0)
(-0.081622348 -0.040324928 0)
(-0.073027799 -0.054320301 0)
(-0.060409311 -0.06536458 0)
(-0.044283002 -0.070375137 0)
(-0.026331979 -0.065776444 0)
(-0.0099698116 -0.048707209 0)
(-0.0013816585 -0.018967832 0)
(-0.0015380124 0.021725532 0)
(-0.0086917647 0.05039612 0)
(-0.021165989 0.065536976 0)
(-0.034946122 0.070479029 0)
(-0.04838538 0.068668483 0)
(-0.060792473 0.062716651 0)
(-0.071850492 0.054241596 0)
(-0.081446308 0.044071763 0)
(-0.089532486 0.032525948 0)
(-0.096025967 0.019631934 0)
(-0.10073328 0.0052730988 0)
(-0.10328877 -0.010684946 0)
(-0.10308924 -0.028217052 0)
(-0.0992822 -0.046853293 0)
(-0.090882733 -0.065262158 0)
(-0.077114709 -0.080772161 0)
(-0.058042518 -0.089125621 0)
(-0.035372209 -0.084978555 0)
(-0.013634175 -0.063716949 0)
(-0.0019085211 -0.024810705 0)
(-0.0018935724 0.02683364 0)
(-0.010458667 0.061671165 0)
(-0.025098848 0.079533518 0)
(-0.040933752 0.084932294 0)
(-0.05609296 0.08236083 0)
(-0.069913861 0.075115043 0)
(-0.082181388 0.065174172 0)
(-0.092909117 0.053510602 0)
(-0.10217934 0.040453941 0)
(-0.11002799 0.025950157 0)
(-0.11635154 0.0097167211 0)
(-0.1208095 -0.008630246 0)
(-0.12269957 -0.029377292 0)
(-0.12086358 -0.052352499 0)
(-0.11372391 -0.076313666 0)
(-0.099627336 -0.09811725 0)
(-0.077684446 -0.11203192 0)
(-0.04912188 -0.11001293 0)
(-0.019665809 -0.084245536 0)
(-0.0029130393 -0.033038157 0)
(-0.0024158025 0.033070795 0)
(-0.012848416 0.075103931 0)
(-0.030145583 0.095802652 0)
(-0.048289819 0.10135176 0)
(-0.065189741 0.097633083 0)
(-0.08028787 0.088789723 0)
(-0.093541316 0.077219533 0)
(-0.10514991 0.064052915 0)
(-0.11538391 0.049628822 0)
(-0.12446554 0.033797135 0)
(-0.13246508 0.016068523 0)
(-0.1391664 -0.0042848827 0)
(-0.14387305 -0.02803712 0)
(-0.14518876 -0.055604609 0)
(-0.14087742 -0.086221037 0)
(-0.12808828 -0.11658973 0)
(-0.10430215 -0.13938196 0)
(-0.069311313 -0.14269287 0)
(-0.02953893 -0.11304124 0)
(-0.0048756766 -0.045340979 0)
(-0.0032351136 0.040896401 0)
(-0.016191322 0.09129431 0)
(-0.036686886 0.11470554 0)
(-0.057243317 0.11979836 0)
(-0.075617955 0.11431374 0)
(-0.091498278 0.10342207 0)
(-0.10511353 0.089983234 0)
(-0.11691814 0.075290019 0)
(-0.12742789 0.059691909 0)
(-0.13711587 0.042943499 0)
(-0.14631598 0.024333018 0)
(-0.15506346 0.0027185235 0)
(-0.16284821 -0.023348413 0)
(-0.16826 -0.055187139 0)
(-0.1685621 -0.093107161 0)
(-0.15960453 -0.13433668 0)
(-0.13660827 -0.1702907 0)
(-0.096569278 -0.1842289 0)
(-0.04500846 -0.15349736 0)
(-0.0086385443 -0.06454056 0)
(-0.0046105444 0.051069192 0)
(-0.021032599 0.11100187 0)
(-0.045172718 0.13647373 0)
(-0.06779978 0.13999546 0)
(-0.086751576 0.13177976 0)
(-0.1022147 0.11818122 0)
(-0.11483693 0.1025188 0)
(-0.12540491 0.086223674 0)
(-0.13472434 0.069649202 0)
(-0.14355348 0.05246815 0)
(-0.15254511 0.033767666 0)
(-0.16210663 0.01198377 0)
(-0.17210022 -0.015118539 0)
(-0.18152156 -0.0500284 0)
(-0.18769718 -0.094811865 0)
(-0.18559221 -0.14825917 0)
(-0.16805426 -0.20166887 0)
(-0.12797425 -0.23355066 0)
(-0.067092695 -0.20847564 0)
(-0.015415146 -0.094827289 0)
(-0.0070578185 0.064899613 0)
(-0.028247924 0.13507565 0)
(-0.05591905 0.16085154 0)
(-0.079138089 0.16086151 0)
(-0.096436233 0.14847911 0)
(-0.10895948 0.1312778 0)
(-0.1179975 0.11292789 0)
(-0.12476001 0.094910567 0)
(-0.13035761 0.077539425 0)
(-0.13580215 0.06041004 0)
(-0.14202782 0.042468977 0)
(-0.14983278 0.021861197 0)
(-0.15955792 -0.0043155092 0)
(-0.17112867 -0.040153556 0)
(-0.18286592 -0.089562823 0)
(-0.19007545 -0.15413995 0)
(-0.18424886 -0.22722503 0)
(-0.15383464 -0.28483425 0)
(-0.093458416 -0.27739374 0)
(-0.02614647 -0.14118806 0)
(-0.011578253 0.084717857 0)
(-0.039134905 0.16406606 0)
(-0.068357587 0.18624805 0)
(-0.088001832 0.17958348 0)
(-0.098790355 0.16110477 0)
(-0.10360495 0.13931401 0)
(-0.10467305 0.11790879 0)
(-0.10369321 0.09819723 0)
(-0.10201578 0.080317193 0)
(-0.10075199 0.063736444 0)
(-0.10089115 0.04731328 0)
(-0.10341511 0.029078081 0)
(-0.10945027 0.0058056696 0)
(-0.11981193 -0.027537223 0)
(-0.13449225 -0.076872711 0)
(-0.15142116 -0.14736291 0)
(-0.16319806 -0.23721549 0)
(-0.15553609 -0.325158 0)
(-0.11423695 -0.35154419 0)
(-0.039267861 -0.20765205 0)
(-0.019850901 0.11463178 0)
(-0.054841583 0.19657334 0)
(-0.078188034 0.20768362 0)
(-0.08434126 0.18985263 0)
(-0.079351439 0.16336682 0)
(-0.068727466 0.13663202 0)
(-0.055701349 0.1126088 0)
(-0.042250757 0.091971725 0)
(-0.029656717 0.074420992 0)
(-0.018791611 0.059183309 0)
(-0.010371578 0.045061277 0)
(-0.0052034324 0.030187063 0)
(-0.004523402 0.011549589 0)
(-0.010093994 -0.015542956 0)
(-0.024081652 -0.058195119 0)
(-0.048280872 -0.12466347 0)
(-0.080042492 -0.22026452 0)
(-0.10703128 -0.33434278 0)
(-0.10972135 -0.40964192 0)
(-0.047187116 -0.29393574 0)
(-0.03271707 0.16225559 0)
(-0.070670782 0.22374696 0)
(-0.065652218 0.21060307 0)
(-0.039039108 0.17774965 0)
(-0.004733415 0.14402115 0)
(0.030105109 0.11480472 0)
(0.062494113 0.091001069 0)
(0.091247072 0.072043086 0)
(0.11596833 0.056960153 0)
(0.13661766 0.044695945 0)
(0.15318695 0.034082013 0)
(0.16541854 0.023611327 0)
(0.17239302 0.011023305 0)
(0.17207454 -0.0072396095 0)
(0.16098609 -0.036900592 0)
(0.13375116 -0.086835875 0)
(0.0857078 -0.1686627 0)
(0.020040441 -0.28992575 0)
(-0.053368247 -0.41715304 0)
(-0.033120858 -0.37982345 0)
(-0.031234106 0.24407324 0)
(-0.038410377 0.22363138 0)
(0.045597983 0.16546521 0)
(0.12569721 0.12321196 0)
(0.19544788 0.09151255 0)
(0.25372053 0.067770362 0)
(0.30134049 0.050438907 0)
(0.33978158 0.037885839 0)
(0.37059328 0.028692584 0)
(0.39510724 0.021753283 0)
(0.41425979 0.016140948 0)
(0.42842972 0.010910948 0)
(0.43711013 0.0048629447 0)
(0.43872216 -0.0037126208 0)
(0.42961183 -0.01777076 0)
(0.40290415 -0.042874035 0)
(0.34791732 -0.089903454 0)
(0.25454477 -0.18205789 0)
(0.095992021 -0.32874362 0)
(0.044278054 -0.38889658 0)
(0.24453053 0.15390752 0)
(0.30993937 0.12099249 0)
(0.46160899 0.077930457 0)
(0.56650413 0.051205692 0)
(0.63491298 0.03397138 0)
(0.68243726 0.022453063 0)
(0.71659708 0.014871219 0)
(0.74139634 0.0099560193 0)
(0.75956485 0.0067593372 0)
(0.77299404 0.0046254105 0)
(0.78285277 0.003092355 0)
(0.78968219 0.0017905662 0)
(0.79335335 0.00035770127 0)
(0.79284897 -0.0015515002 0)
(0.78548367 -0.0047009303 0)
(0.76658746 -0.010575639 0)
(0.72494476 -0.021999974 0)
(0.64717765 -0.048363712 0)
(0.45392297 -0.11296477 0)
(0.31717249 -0.17250242 0)
)
;

boundaryField
{
    movingWall
    {
        type            fixedValue;
        value           uniform (1 0 0);
    }
    fixedWalls
    {
        type            fixedValue;
        value           uniform (0 0 0);
    }
    frontAndBack
    {
        type            empty;
    }
}


// ************************************************************************* //
