/*--------------------------------*- C++ -*----------------------------------*\
| =========                 |                                                 |
| \\      /  F ield         | OpenFOAM: The Open Source CFD Toolbox           |
|  \\    /   O peration     | Version:  2112                                  |
|   \\  /    A nd           | Website:  www.openfoam.com                      |
|    \\/     M anipulation  |                                                 |
\*---------------------------------------------------------------------------*/
FoamFile
{
    version     2.0;
    format      ascii;
    arch        "LSB;label=32;scalar=64";
    class       volScalarField;
    location    "8.5005";
    object      Ma;
}
// * * * * * * * * * * * * * * * * * * * * * * * * * * * * * * * * * * * * * //

dimensions      [0 0 0 0 0 0 0];

internalField   nonuniform List<scalar> 
7000
(
3.00001
3
3.00001
3
2.99999
2.99985
2.99967
2.99835
2.99699
2.98982
2.98307
2.94919
2.89457
2.73032
2.31888
1.59973
0.67617
0.279339
0.357983
0.409219
0.411649
0.399644
0.38195
0.362986
0.346343
0.331181
0.316024
0.3001
0.283766
0.267302
0.251172
0.235874
0.221569
0.208562
0.19676
0.18615
0.176583
0.167836
0.159643
0.15163
0.14345
0.134745
0.125245
0.114675
0.102861
0.0896945
0.0749815
0.0586846
0.0394389
0.026052
3.00001
3
3
3
2.99999
2.99986
2.99967
2.99839
2.99708
2.99013
2.98353
2.95113
2.89725
2.73507
2.3407
1.62339
0.69889
0.291201
0.358636
0.405671
0.408808
0.397492
0.379681
0.35994
0.342821
0.327461
0.312413
0.296887
0.281275
0.265873
0.251077
0.237244
0.224344
0.212534
0.201585
0.191451
0.181965
0.172901
0.163981
0.154898
0.145375
0.135202
0.124238
0.112338
0.0994737
0.0856889
0.071007
0.0560427
0.0411734
0.0368483
3.00001
3
3
3
2.99999
2.99986
2.99967
2.99844
2.99718
2.99049
2.98408
2.95336
2.89889
2.73794
2.35095
1.63206
0.708647
0.294824
0.35441
0.398998
0.405077
0.39553
0.378358
0.358446
0.341452
0.326566
0.312188
0.297516
0.282846
0.268432
0.25469
0.241785
0.229604
0.218181
0.207234
0.196779
0.186663
0.176742
0.166849
0.156744
0.146248
0.135198
0.123541
0.111244
0.0984256
0.0853755
0.0724977
0.0612147
0.0529925
0.0546019
3.00001
3
3
3
2.99999
2.99987
2.99969
2.99851
2.99733
2.99097
2.98483
2.95595
2.90169
2.74195
2.36671
1.64903
0.729408
0.308828
0.35517
0.394658
0.403739
0.395381
0.378565
0.358377
0.34132
0.326879
0.313227
0.299435
0.285792
0.272467
0.259834
0.247926
0.236518
0.225587
0.214779
0.204144
0.193506
0.182815
0.17195
0.160762
0.149216
0.137276
0.125077
0.112732
0.100518
0.0889358
0.0786332
0.0712568
0.0678542
0.0721297
3.00001
3
3
3
2.99999
2.99988
2.99971
2.99861
2.99751
2.99158
2.98577
2.95912
2.90491
2.74701
2.37998
1.66557
0.748103
0.321367
0.353569
0.389375
0.402068
0.395124
0.379217
0.359306
0.342343
0.32848
0.315648
0.302785
0.290143
0.27787
0.266264
0.255208
0.244456
0.233893
0.223207
0.212471
0.201479
0.190233
0.178648
0.166673
0.15437
0.141865
0.129411
0.117307
0.10599
0.0960713
0.0882801
0.0839878
0.0836301
0.0891389
3.00001
3
3
3
2.99999
2.99989
2.99973
2.99873
2.99774
2.99234
2.98694
2.963
2.90887
2.75396
2.39307
1.69005
0.769331
0.336286
0.352133
0.386018
0.401202
0.395356
0.380518
0.361158
0.344457
0.331341
0.319475
0.307665
0.296163
0.285014
0.274439
0.264192
0.253973
0.243671
0.233002
0.222039
0.210643
0.198823
0.186601
0.174031
0.161271
0.148571
0.136253
0.124711
0.114503
0.106265
0.100586
0.0985778
0.100036
0.106192
3.00001
3
3
3
2.99999
2.9999
2.99977
2.99887
2.998
2.99321
2.98827
2.96718
2.91366
2.76277
2.40668
1.71942
0.794803
0.352617
0.350642
0.384098
0.400565
0.396008
0.382262
0.363724
0.347634
0.335469
0.324679
0.314094
0.303849
0.293854
0.284267
0.274658
0.264821
0.254614
0.24383
0.23259
0.220744
0.208435
0.195693
0.182756
0.169834
0.157275
0.145451
0.134761
0.125758
0.119017
0.115012
0.114487
0.117162
0.123568
3.00001
3
3
3
2.99999
2.99991
2.99981
2.99904
2.9983
2.99423
2.98979
2.97195
2.91888
2.77342
2.42069
1.75548
0.824734
0.370992
0.349013
0.38216
0.400655
0.397518
0.38484
0.367377
0.352268
0.341197
0.331701
0.322478
0.313565
0.304677
0.295851
0.286683
0.276975
0.266708
0.255661
0.244022
0.231684
0.218915
0.205878
0.192823
0.180074
0.167929
0.156798
0.147129
0.139359
0.133948
0.131177
0.131781
0.135055
0.141661
3.00001
3
3.00001
3
2.99999
2.99993
2.99985
2.99922
2.99861
2.99533
2.99143
2.97711
2.92427
2.785
2.43698
1.79741
0.860584
0.392643
0.347276
0.380732
0.402009
0.40051
0.388972
0.372821
0.358901
0.349151
0.34111
0.333328
0.325558
0.317524
0.309096
0.300058
0.290207
0.27958
0.268095
0.255934
0.24322
0.230162
0.217045
0.204143
0.191855
0.180451
0.170241
0.161655
0.155058
0.150783
0.149034
0.150255
0.154052
0.160512
3.00001
3.00001
3.00001
3
3
2.99994
2.99988
2.99937
2.9989
2.99639
2.99292
2.98212
2.93
2.7975
2.45715
1.84618
0.902979
0.417904
0.345218
0.379931
0.405132
0.4057
0.395537
0.380869
0.368321
0.360077
0.353497
0.346873
0.33985
0.332117
0.323644
0.31422
0.30391
0.292688
0.280724
0.268125
0.255088
0.242028
0.229191
0.21677
0.205131
0.194675
0.185576
0.178137
0.172651
0.169355
0.168352
0.17022
0.174094
0.180697
3.00001
3.00001
3.00001
3
3
2.99995
2.99988
2.99943
2.9989
2.99683
2.99311
2.98224
2.93865
2.81011
2.48188
1.89892
0.953934
0.445373
0.340298
0.378501
0.40985
0.413614
0.405394
0.392463
0.381454
0.374558
0.368961
0.362826
0.355784
0.347637
0.338573
0.328392
0.317361
0.305457
0.292912
0.2801
0.267113
0.254302
0.242017
0.230538
0.21998
0.210656
0.202793
0.196569
0.192166
0.189773
0.189449
0.191594
0.195861
0.202053
3.00001
3.00001
3.00001
3
3
2.99995
2.99988
2.99942
2.99895
2.99652
2.99299
2.98365
2.94027
2.82779
2.51294
1.9634
1.01398
0.476054
0.333325
0.377999
0.41781
0.425757
0.419772
0.408419
0.398356
0.391952
0.386386
0.379777
0.371877
0.362662
0.35248
0.341267
0.329398
0.317052
0.304335
0.291667
0.27922
0.267267
0.255959
0.245551
0.236327
0.228326
0.22177
0.216843
0.213571
0.212045
0.212341
0.214942
0.219049
0.22555
3.00001
3.00001
3.00001
3
3
2.99995
2.99988
2.99946
2.99903
2.99703
2.99321
2.98722
2.9427
2.84158
2.54858
2.03146
1.09219
0.514253
0.327
0.381061
0.431399
0.44364
0.439119
0.427796
0.417275
0.410161
0.403393
0.395321
0.385786
0.375113
0.363759
0.351826
0.339555
0.3272
0.314918
0.302972
0.291464
0.280734
0.270912
0.261968
0.254225
0.247826
0.242695
0.238988
0.23686
0.236343
0.237344
0.240275
0.244904
0.250793
3.00001
3.00001
3.00001
3.00001
3
2.99996
2.9999
2.99957
2.99911
2.9977
2.99391
2.98929
2.94832
2.85151
2.59162
2.10516
1.18828
0.558881
0.323753
0.391179
0.452219
0.466626
0.460391
0.446752
0.434006
0.424779
0.415936
0.406004
0.395064
0.383506
0.371752
0.359812
0.348
0.336354
0.325062
0.31438
0.304314
0.295071
0.286946
0.279823
0.2738
0.269081
0.265671
0.263495
0.262592
0.263035
0.264907
0.268411
0.272928
0.279371
3.00001
3.00001
3.00001
3.00001
3
2.99996
2.99989
2.9996
2.99914
2.99798
2.9949
2.99023
2.9546
2.86925
2.62861
2.18499
1.30057
0.615213
0.333665
0.410264
0.476571
0.488528
0.477136
0.45931
0.443525
0.432191
0.421834
0.411101
0.399886
0.38844
0.377143
0.365958
0.355165
0.344896
0.335111
0.326118
0.317927
0.310511
0.304158
0.29898
0.294879
0.292012
0.290369
0.289967
0.290758
0.292645
0.295546
0.299898
0.305279
0.311182
3.00001
3.00001
3.00001
3.00001
3
2.99997
2.99991
2.99968
2.99929
2.99812
2.99559
2.99072
2.96127
2.88692
2.67104
2.25369
1.42714
0.673338
0.348061
0.426332
0.491118
0.499157
0.484136
0.464432
0.447604
0.435523
0.424794
0.414042
0.403237
0.392464
0.382107
0.372127
0.362623
0.353852
0.345813
0.338563
0.332394
0.327214
0.322987
0.319964
0.318124
0.31739
0.317814
0.319344
0.321983
0.325705
0.33038
0.335963
0.341978
0.349019
3.00001
3.00001
3.00001
3
2.99999
2.99996
2.99984
2.99968
2.99905
2.99771
2.99604
2.98455
2.982
2.8949
2.71759
2.19327
1.46985
0.602568
0.269787
0.377234
0.450242
0.464561
0.457454
0.445014
0.434015
0.425905
0.418413
0.410579
0.402389
0.393991
0.385773
0.377839
0.370387
0.363481
0.357401
0.352142
0.347837
0.344805
0.342892
0.342115
0.342689
0.3445
0.347513
0.351745
0.357031
0.363186
0.370318
0.378604
0.386915
0.394243
3.00001
3.00001
3.00001
3
2.99999
2.99995
2.99989
2.99963
2.99929
2.998
2.99664
2.98659
2.98416
2.90785
2.73652
2.28177
1.56602
0.657128
0.290538
0.371796
0.429894
0.441548
0.437344
0.429199
0.420761
0.4145
0.409445
0.404518
0.399238
0.393657
0.388137
0.382801
0.377837
0.373397
0.369643
0.366736
0.36479
0.363974
0.364499
0.366284
0.369462
0.374007
0.38008
0.387528
0.396379
0.40676
0.417808
0.430128
0.44257
0.45471
3.00001
3.00001
3.00001
3
2.99998
2.99996
2.99987
2.99969
2.99936
2.99812
2.9969
2.98777
2.98441
2.91663
2.75264
2.35174
1.6491
0.731585
0.333364
0.380224
0.421995
0.436304
0.434819
0.427792
0.418418
0.411609
0.40698
0.403001
0.399096
0.395287
0.39174
0.388573
0.385861
0.383721
0.382317
0.381773
0.382237
0.383898
0.386942
0.39158
0.39794
0.405997
0.415729
0.427467
0.440882
0.456776
0.475252
0.496164
0.518678
0.541435
3.00001
3.00001
3
3
2.99999
2.99998
2.99993
2.99979
2.99955
2.99831
2.99741
2.98869
2.98659
2.92716
2.78143
2.41926
1.75397
0.822808
0.389874
0.383822
0.419269
0.442181
0.443116
0.435637
0.425214
0.417319
0.412531
0.408922
0.405448
0.402222
0.399574
0.397605
0.396404
0.395995
0.396474
0.397999
0.400696
0.404818
0.410556
0.418074
0.427525
0.439273
0.453478
0.470339
0.490805
0.514531
0.543938
0.581846
0.632053
0.718864
3.00001
3.00001
3.00001
3.00001
3
3
2.99997
2.99991
2.99964
2.99923
2.99696
2.99512
2.9797
2.94764
2.82284
2.53568
1.85015
1.0158
0.469897
0.408134
0.439647
0.465645
0.466346
0.456724
0.444641
0.43521
0.42951
0.425564
0.422278
0.419532
0.417611
0.416643
0.416662
0.417606
0.419598
0.423147
0.428374
0.43535
0.444203
0.455206
0.468846
0.485216
0.505416
0.529664
0.559535
0.597545
0.644896
0.710717
0.808642
0.935905
3.00001
3.00001
3.00001
3.00001
3
3
2.99996
2.99988
2.99962
2.99926
2.99708
2.99614
2.98222
2.96364
2.85127
2.59262
1.93967
1.12614
0.516543
0.399064
0.437959
0.472013
0.476414
0.467898
0.456878
0.448537
0.444022
0.441293
0.439336
0.438053
0.437638
0.438136
0.439534
0.442222
0.446524
0.452109
0.459427
0.468293
0.479646
0.493352
0.510207
0.530802
0.555379
0.585961
0.622567
0.669078
0.728172
0.802531
0.911199
1.02477
3.00001
3.00001
3.00001
3.00001
3
3
2.99997
2.99992
2.99961
2.99911
2.99631
2.99749
2.98258
2.97712
2.87421
2.64235
2.03359
1.25251
0.577606
0.391804
0.434459
0.473909
0.480949
0.473943
0.464801
0.458516
0.455886
0.455006
0.454915
0.455521
0.456848
0.459201
0.462887
0.467823
0.473944
0.481472
0.49048
0.501718
0.514883
0.531321
0.550283
0.573744
0.601242
0.634347
0.674362
0.72119
0.780044
0.846471
0.934829
1.01522
3.00001
3.00001
3.00001
3.00001
3
3
2.99998
2.99996
2.99977
2.99947
2.99768
2.9963
2.98192
2.97964
2.8885
2.69459
2.14668
1.4092
0.649538
0.3907
0.435889
0.478635
0.488833
0.484151
0.477389
0.472536
0.470926
0.471017
0.47191
0.473637
0.476692
0.481009
0.486378
0.492753
0.500253
0.509169
0.51966
0.53218
0.54689
0.564247
0.585013
0.608698
0.637498
0.669672
0.708929
0.751979
0.804019
0.860027
0.928073
0.989437
3.00001
3.00001
3.00001
3.00001
3.00001
3
2.99998
2.99994
2.99976
2.99945
2.99779
2.99706
2.9857
2.98515
2.91113
2.7464
2.31601
1.6237
0.754541
0.416016
0.453733
0.492162
0.506362
0.505016
0.499587
0.494443
0.492295
0.491936
0.492603
0.494832
0.498616
0.503595
0.509652
0.517037
0.525586
0.535518
0.546993
0.560165
0.575485
0.592928
0.613449
0.636436
0.663736
0.693515
0.72901
0.76703
0.811456
0.859134
0.913691
0.963067
3.00001
3.00001
3.00001
3.00001
3.00001
3
3
2.99997
2.99991
2.99962
2.99919
2.99648
2.99549
2.97626
2.9399
2.80149
2.49433
1.78938
0.95213
0.479547
0.473261
0.505224
0.528512
0.530248
0.524271
0.518695
0.51537
0.514211
0.514607
0.517037
0.520957
0.525956
0.532143
0.539717
0.548855
0.55928
0.571487
0.585086
0.600796
0.618039
0.637889
0.659475
0.684427
0.711287
0.742326
0.775363
0.813198
0.853028
0.895979
0.936587
3.00001
3.00001
3.00001
3.00001
3.00001
3
3
2.99995
2.99991
2.99953
2.99893
2.9956
2.995
2.98386
2.96844
2.8519
2.5865
1.93047
1.12688
0.560849
0.469523
0.500808
0.531812
0.54025
0.537323
0.533675
0.531344
0.530922
0.532248
0.535772
0.540668
0.546076
0.552664
0.560285
0.569668
0.580099
0.592465
0.605919
0.621607
0.638398
0.657646
0.678086
0.70109
0.725633
0.752587
0.781695
0.812965
0.846231
0.881404
0.914728
3.00001
3.00001
3.00001
3.00001
3.00001
3
3
2.99999
2.99997
2.99976
2.99942
2.99742
2.99599
2.98052
2.9774
2.87743
2.65001
2.08136
1.31845
0.646404
0.456591
0.48947
0.525493
0.540332
0.541725
0.540432
0.539937
0.54121
0.544419
0.549517
0.555825
0.562152
0.569514
0.577592
0.587246
0.597733
0.609887
0.62304
0.638028
0.654208
0.672238
0.691602
0.712676
0.735263
0.759394
0.785296
0.812402
0.840479
0.870151
0.897933
3.00001
3.00001
3.00001
3.00001
3.00001
3
3
2.99998
2.99996
2.9998
2.99954
2.99816
2.99666
2.98365
2.98153
2.90288
2.73158
2.26689
1.56111
0.753818
0.466766
0.493774
0.528816
0.548668
0.552258
0.551315
0.55118
0.552895
0.556889
0.562802
0.569613
0.576419
0.584258
0.592736
0.602468
0.61305
0.624863
0.637567
0.651642
0.666838
0.683408
0.701323
0.720453
0.740957
0.762772
0.785787
0.809436
0.833953
0.859633
0.883339
3.00001
3.00001
3.00001
3.00001
3.00001
3.00001
3
2.99999
2.99994
2.99987
2.99927
2.99835
2.99328
2.99263
2.97849
2.94449
2.80238
2.49094
1.78764
0.965113
0.511858
0.500987
0.531266
0.557072
0.56377
0.563747
0.563826
0.565621
0.569924
0.575889
0.58239
0.589342
0.597191
0.605814
0.615504
0.626036
0.637529
0.649928
0.66315
0.677419
0.69262
0.708939
0.726326
0.744848
0.764362
0.784512
0.805398
0.826885
0.849229
0.869775
3.00001
3.00001
3.00001
3.00001
3.00001
3.00001
3
3
2.99996
2.9999
2.99957
2.99908
2.99625
2.99946
2.98395
2.97112
2.8583
2.59704
1.94064
1.1443
0.59915
0.500135
0.5235
0.552607
0.566365
0.569744
0.570638
0.573106
0.577878
0.584031
0.590856
0.598235
0.606344
0.615158
0.624829
0.635293
0.646541
0.658623
0.67149
0.685128
0.699544
0.714676
0.730691
0.747467
0.764833
0.782659
0.801106
0.820075
0.839641
0.857655
3.00001
3.00001
3.00001
3.00001
3.00001
3.00001
3
3
2.99998
2.99987
2.99973
2.99845
2.99658
2.98558
2.98298
2.95935
2.88775
2.68486
2.26387
1.47395
0.788604
0.515425
0.533145
0.564102
0.586459
0.591021
0.58959
0.589428
0.59222
0.596732
0.602335
0.608848
0.616219
0.624412
0.633406
0.643275
0.653934
0.665329
0.677455
0.690247
0.703691
0.717871
0.732715
0.748018
0.763647
0.779825
0.796434
0.813435
0.830864
0.846872
3.00001
3.00001
3.00001
3.00001
3.00001
3.00001
3
3
2.99998
2.99996
2.99977
2.99946
2.99764
2.99674
2.98503
2.98163
2.9132
2.74844
2.37145
1.68086
0.843937
0.497467
0.512767
0.551991
0.584917
0.596542
0.598739
0.599889
0.602762
0.607007
0.612218
0.618199
0.624973
0.632555
0.640945
0.650126
0.660069
0.670726
0.682037
0.693946
0.706505
0.719632
0.733104
0.746945
0.761188
0.77591
0.790955
0.806269
0.821924
0.836274
3.00001
3.00001
3.00001
3.00001
3.00001
3.00001
3.00001
3
2.99999
2.99995
2.9999
2.99949
2.99886
2.99496
2.99574
2.97829
2.96863
2.83769
2.55124
1.86059
1.05462
0.551002
0.503558
0.5382
0.573139
0.589327
0.594705
0.59776
0.601796
0.60719
0.61345
0.620281
0.627551
0.635397
0.643904
0.652989
0.662686
0.672956
0.683827
0.695257
0.707163
0.719347
0.731721
0.744486
0.75763
0.771067
0.784778
0.798629
0.812785
0.825705
3.00001
3.00001
3.00001
3.00001
3.00001
3.00001
3.00001
3
3
2.99997
2.99994
2.99969
2.99929
2.99669
2.99528
2.9772
2.97336
2.86414
2.62215
2.02349
1.2419
0.642451
0.49301
0.519259
0.553086
0.574413
0.58316
0.588316
0.593954
0.600735
0.608355
0.616367
0.624656
0.633278
0.642339
0.65181
0.661748
0.672086
0.682884
0.69398
0.705237
0.716743
0.728504
0.740512
0.752739
0.765161
0.777767
0.790477
0.803399
0.815211
3.00001
3.00001
3.00001
3.00001
3.00001
3.00001
3.00001
3
2.99999
2.99998
2.9999
2.99981
2.99891
2.99758
2.98921
2.98806
2.96826
2.9095
2.7327
2.35955
1.62372
0.854669
0.513761
0.52586
0.558195
0.586523
0.595564
0.597514
0.600091
0.604702
0.610896
0.617914
0.625555
0.633658
0.642278
0.651356
0.660846
0.670716
0.680803
0.691103
0.701645
0.712442
0.723492
0.734754
0.746149
0.757696
0.769345
0.781081
0.79299
0.803865
3.00001
3.00001
3.00001
3.00001
3.00001
3.00001
3.00001
3.00001
3
2.99999
2.99995
2.9999
2.99941
2.9987
2.99426
2.99346
2.9791
2.95611
2.81414
2.49653
1.77578
0.961045
0.506462
0.501306
0.541381
0.578679
0.593897
0.59862
0.601885
0.606369
0.612139
0.618679
0.625754
0.633291
0.641268
0.649711
0.658511
0.667629
0.677041
0.686755
0.696682
0.706829
0.71707
0.72751
0.738014
0.748671
0.759419
0.770233
0.781229
0.791258
3.00001
3.00001
3.00001
3.00001
3.00001
3.00001
3.00001
3
3
2.99998
2.99996
2.99979
2.99963
2.99791
2.99534
2.97917
2.98235
2.93835
2.82705
2.53737
1.98005
1.06883
0.591586
0.480798
0.516753
0.558641
0.584154
0.594825
0.600347
0.605796
0.612122
0.61897
0.626062
0.633479
0.641133
0.648967
0.657021
0.665353
0.673956
0.682846
0.691923
0.701232
0.710657
0.720248
0.729948
0.73974
0.749639
0.759577
0.769679
0.778906
3.00001
3.00001
3.00001
3.00001
3.00001
3.00001
3.00001
3.00001
3
2.99999
2.99997
2.99986
2.99978
2.9986
2.99699
2.98594
2.98654
2.96084
2.88274
2.66098
2.22295
1.40319
0.753983
0.490622
0.52161
0.568398
0.601874
0.614033
0.617473
0.620341
0.624444
0.629559
0.635131
0.640999
0.647094
0.653487
0.660238
0.667324
0.674696
0.682368
0.690244
0.698358
0.706648
0.715098
0.723713
0.732455
0.74133
0.750313
0.759431
0.767818
3.00001
3.00001
3.00001
3.00001
3.00001
3.00001
3.00001
3.00001
3
3
2.99998
2.99996
2.99973
2.99943
2.99749
2.99619
2.98337
2.9824
2.90212
2.73612
2.30904
1.62715
0.763771
0.426827
0.479192
0.54005
0.582115
0.600273
0.607694
0.61314
0.619359
0.626145
0.633002
0.63954
0.64581
0.65208
0.658504
0.665254
0.672221
0.679422
0.686798
0.694278
0.70194
0.709719
0.717622
0.725612
0.733694
0.741889
0.750198
0.757841
3.00001
3.00001
3.00001
3.00001
3.00001
3.00001
3.00001
3.00001
3
3
2.99998
2.99996
2.99977
2.99949
2.99778
2.99674
2.98606
2.98465
2.922
2.76719
2.41502
1.75264
0.841861
0.459037
0.469185
0.518473
0.562723
0.583033
0.591641
0.597856
0.604978
0.612997
0.621186
0.628919
0.636279
0.643473
0.650552
0.657779
0.665062
0.672517
0.680031
0.68759
0.69519
0.70277
0.71043
0.718144
0.72591
0.733718
0.741567
0.748811
3.00001
3.00001
3.00001
3.00001
3.00001
3.00001
3.00001
3.00001
3.00001
3
3
2.99996
2.99992
2.99956
2.99904
2.99554
2.99415
2.97051
2.97335
2.8317
2.55869
1.8818
1.08336
0.542604
0.47173
0.509889
0.552588
0.573548
0.581372
0.586435
0.592582
0.600005
0.608009
0.616153
0.624149
0.632101
0.639921
0.647772
0.655638
0.663408
0.671269
0.678941
0.686722
0.69437
0.702044
0.709746
0.717365
0.725128
0.732802
0.739947
3.00001
3.00001
3.00001
3.00001
3.00001
3.00001
3.00001
3.00001
3.00001
3
3
2.99996
2.99994
2.99967
2.99932
2.99697
2.99529
2.97576
2.97773
2.85543
2.62815
2.01859
1.25895
0.606289
0.443722
0.482359
0.528606
0.554389
0.563828
0.568809
0.574654
0.581972
0.590121
0.598574
0.607044
0.615556
0.624067
0.632616
0.641159
0.649631
0.658105
0.666443
0.674729
0.682895
0.69096
0.698959
0.706853
0.714706
0.722553
0.729699
3.00001
3.00001
3.00001
3.00001
3.00001
3.00001
3.00001
3.00001
3.00001
3
3
2.99997
2.99996
2.99974
2.99951
2.99774
2.99618
2.98059
2.97621
2.8833
2.67918
2.14108
1.40293
0.671072
0.427704
0.465009
0.511959
0.540026
0.55029
0.554591
0.559486
0.566178
0.573952
0.582162
0.590489
0.598947
0.607538
0.616276
0.625118
0.633984
0.642868
0.651674
0.660409
0.669024
0.677545
0.685929
0.694251
0.702429
0.71063
0.718067
3.00001
3.00001
3.00001
3.00001
3.00001
3.00001
3.00001
3.00001
3.00001
3
3
2.99999
2.99992
2.99986
2.99932
2.99854
2.99371
2.99249
2.97401
2.94316
2.78026
2.42306
1.67463
0.871075
0.457679
0.478188
0.518661
0.554231
0.565266
0.566562
0.567828
0.571552
0.576797
0.582713
0.589008
0.595617
0.602575
0.609912
0.617555
0.625507
0.633601
0.641849
0.650145
0.658435
0.66676
0.674977
0.68323
0.691375
0.699557
0.707021
3.00001
3.00001
3.00001
3.00001
3.00001
3.00001
3.00001
3.00001
3.00001
3
2.99999
2.99998
2.9999
2.99983
2.99914
2.99828
2.99183
2.9929
2.96279
2.96369
2.8175
2.48646
1.78943
0.976994
0.475368
0.459896
0.504374
0.545959
0.562289
0.566461
0.568873
0.572725
0.577765
0.583268
0.588948
0.594794
0.60088
0.607281
0.613959
0.620949
0.628125
0.635505
0.643016
0.650607
0.658313
0.666029
0.673827
0.681621
0.689481
0.696691
3.00001
3.00001
3.00001
3.00001
3.00001
3.00001
3.00001
3.00001
3.00001
3.00001
3
2.99999
2.99995
2.9999
2.99955
2.99906
2.9957
2.99408
2.97128
2.97364
2.83085
2.56732
1.90212
1.11084
0.530189
0.432867
0.473153
0.518292
0.542297
0.551658
0.556721
0.561959
0.568012
0.574417
0.580727
0.587026
0.593292
0.599665
0.606207
0.612854
0.619711
0.626653
0.633738
0.640921
0.648152
0.6555
0.662846
0.670289
0.677763
0.684652
3.00001
3.00001
3.00001
3.00001
3.00001
3.00001
3.00001
3.00001
3.00001
3
3
2.99997
2.99998
2.99987
2.99978
2.9985
2.99674
2.9838
2.9818
2.94764
2.86454
2.61358
2.12598
1.23119
0.644871
0.418299
0.456395
0.510028
0.54472
0.558699
0.564436
0.569274
0.574996
0.581259
0.587446
0.593562
0.599495
0.605372
0.611301
0.617189
0.623244
0.629299
0.635467
0.64171
0.647967
0.654342
0.6607
0.667178
0.673686
0.679701
3.00001
3.00001
3.00001
3.00001
3.00001
3.00001
3.00001
3.00001
3.00001
3.00001
3
2.99999
2.99998
2.99984
2.99964
2.99829
2.99731
2.98834
2.9854
2.96298
2.90151
2.71234
2.32149
1.53327
0.774521
0.406123
0.459601
0.528809
0.569565
0.583242
0.58655
0.588983
0.592876
0.597837
0.603075
0.6084
0.613629
0.618811
0.624032
0.629156
0.634349
0.639506
0.644754
0.650091
0.655452
0.660963
0.666442
0.672032
0.677628
0.682787
3.00001
3.00001
3.00001
3.00001
3.00001
3.00001
3.00001
3.00001
3.00001
3.00001
3.00001
3
2.99999
2.99995
2.99991
2.99953
2.99903
2.99564
2.99331
2.97106
2.93561
2.76671
2.39545
1.62341
0.805606
0.362938
0.433006
0.508784
0.556541
0.574287
0.579591
0.583187
0.588099
0.59406
0.600286
0.606456
0.612435
0.618257
0.623968
0.629552
0.635068
0.640543
0.645964
0.651416
0.656858
0.662361
0.667869
0.673391
0.678931
0.684002
3.00001
3.00001
3.00001
3.00001
3.00001
3.00001
3.00001
3.00001
3.00001
3.00001
3
3
2.99999
2.99993
2.99988
2.99937
2.99877
2.99439
2.99412
2.97434
2.95338
2.78848
2.44467
1.6763
0.856571
0.376677
0.420335
0.482204
0.53329
0.553567
0.559739
0.563869
0.569625
0.576657
0.584064
0.591355
0.598385
0.605215
0.611858
0.618385
0.624793
0.631114
0.637362
0.643551
0.649705
0.655795
0.661848
0.667833
0.673795
0.679238
3.00001
3.00001
3.00001
3.00001
3.00001
3.00001
3.00001
3.00001
3.00001
3.00001
3
3
2.99998
2.99988
2.9998
2.99904
2.99805
2.99089
2.99254
2.95909
2.96759
2.79976
2.47204
1.73712
0.913374
0.403219
0.410384
0.466412
0.516692
0.538001
0.54471
0.549007
0.554887
0.562097
0.569773
0.577352
0.584756
0.591988
0.599086
0.606099
0.613004
0.619836
0.626578
0.633248
0.639846
0.646373
0.652837
0.659237
0.6656
0.671418
3.00001
3.00001
3.00001
3.00001
3.00001
3.00001
3.00001
3.00001
3.00001
3.00001
3.00001
3
2.99999
2.99993
2.99985
2.99923
2.99837
2.99229
2.99419
2.96353
2.97044
2.81123
2.50611
1.78677
0.978573
0.434502
0.406347
0.458781
0.508727
0.529721
0.535988
0.539829
0.545228
0.552105
0.559523
0.566948
0.574303
0.581527
0.588707
0.595811
0.602849
0.609837
0.616729
0.62358
0.630336
0.637045
0.643675
0.650246
0.656779
0.662742
3.00001
3.00001
3.00001
3.00001
3.00001
3.00001
3.00001
3.00001
3.00001
3.00001
3.00001
3
2.99999
2.99995
2.99992
2.99948
2.99884
2.99461
2.99305
2.96669
2.96755
2.82102
2.51424
1.84042
1.03342
0.461807
0.399819
0.45037
0.500569
0.521698
0.527976
0.531642
0.536836
0.543503
0.55075
0.558117
0.565434
0.572699
0.579942
0.587135
0.594284
0.601366
0.608372
0.615307
0.622156
0.628936
0.635635
0.642271
0.648869
0.654905
3.00001
3.00001
3.00001
3.00001
3.00001
3.00001
3.00001
3.00001
3.00001
3.00001
3.00001
3
2.99999
2.99995
2.99991
2.9995
2.99896
2.99495
2.99337
2.96788
2.97242
2.8271
2.55547
1.88013
1.08818
0.485546
0.391639
0.439893
0.489872
0.512426
0.519644
0.52364
0.528852
0.53547
0.542685
0.550041
0.557356
0.564658
0.571925
0.579178
0.58638
0.593521
0.600589
0.607557
0.614457
0.621234
0.62796
0.634556
0.641132
0.647077
3.00001
3.00001
3.00001
3.00001
3.00001
3.00001
3.00001
3.00001
3.00001
3.00001
3
2.99999
2.99997
2.99984
2.99982
2.9995
2.99904
2.99551
2.99375
2.9707
2.96716
2.84415
2.57391
1.92809
1.1352
0.50654
0.377386
0.42499
0.476957
0.501709
0.509469
0.513015
0.517664
0.523953
0.531042
0.538424
0.545791
0.553228
0.560648
0.568093
0.575518
0.582856
0.59014
0.597273
0.604331
0.611233
0.618057
0.624744
0.631392
0.637448
3.00001
3.00001
3.00001
3.00001
3.00001
3.00001
3.00001
3.00001
3.00001
3.00001
3
3
2.99998
2.99996
2.99974
2.99946
2.99734
2.99606
2.98264
2.97843
2.94498
2.85174
2.5678
2.03781
1.11924
0.561602
0.37444
0.427736
0.489012
0.521808
0.53306
0.537155
0.541611
0.547745
0.554725
0.562059
0.569221
0.576466
0.583607
0.590801
0.598003
0.605151
0.612328
0.619384
0.62642
0.633319
0.640126
0.646821
0.65339
0.659391
3.00001
3.00001
3.00001
3.00001
3.00001
3.00001
3.00001
3.00001
3.00001
3.00001
3
3
2.99999
2.99998
2.99978
2.99957
2.99781
2.99676
2.98547
2.98238
2.95342
2.876
2.62656
2.14988
1.27965
0.642267
0.379951
0.43872
0.509705
0.551777
0.567712
0.573861
0.579482
0.586446
0.594058
0.601647
0.608792
0.615627
0.622176
0.628507
0.6347
0.640733
0.646639
0.652546
0.658354
0.664285
0.670193
0.676189
0.682256
0.687834
3.00001
3.00001
3.00001
3.00001
3.00001
3.00001
3.00001
3.00001
3.00001
3.00001
3.00001
3
3
2.99996
2.99991
2.99963
2.99926
2.99674
2.99503
2.97481
2.97963
2.85029
2.61955
1.96842
1.1937
0.506883
0.32704
0.38999
0.454406
0.481401
0.489242
0.493305
0.498967
0.506446
0.514722
0.523077
0.531329
0.539389
0.547386
0.555255
0.5631
0.570891
0.578634
0.586415
0.594088
0.601821
0.609417
0.616991
0.624483
0.631303
3.00001
3.00001
3.00001
3.00001
3.00001
3.00001
3.00001
3.00001
3.00001
3.00001
3.00001
3
2.99999
2.99998
2.99981
2.9996
2.99793
2.99692
2.98615
2.98331
2.95508
2.87979
2.63565
2.16552
1.30087
0.644539
0.365555
0.429064
0.504283
0.546105
0.561094
0.566691
0.572081
0.579026
0.586733
0.594375
0.60157
0.608383
0.614802
0.621103
0.627128
0.633118
0.638849
0.644617
0.650206
0.655893
0.661562
0.667328
0.673298
0.678707
1.2745
0.893612
0.337625
0.244557
0.239238
0.340401
0.366079
0.371425
0.361374
0.352521
0.345136
0.338461
0.328494
0.312462
0.292365
0.268649
0.242892
0.216017
0.188077
0.159569
0.130699
0.101764
0.073074
0.0449383
0.0219695
0.0231195
0.0489706
0.0758125
0.102138
0.128132
0.153241
0.177987
0.202035
0.225511
0.24803
0.269137
0.289767
0.311578
0.33398
0.355442
0.376054
0.39605
0.415552
0.434597
0.453199
0.471391
0.489185
0.506579
0.523612
0.540249
0.556499
0.572412
0.587928
0.603129
0.617942
0.632425
0.646533
0.660279
0.673667
0.686673
0.69933
0.711546
0.723383
0.734771
0.745689
0.756198
0.766161
0.775671
0.784647
0.793022
0.800909
0.808073
0.814664
0.820522
0.825669
0.830044
0.833572
0.836279
0.838004
0.839347
0.840171
0.840793
0.840366
0.8391
0.836622
0.833938
0.830583
0.827434
0.823757
0.820602
0.817029
0.81429
0.811204
0.80914
0.806801
0.805503
0.804017
0.803413
0.802895
0.806067
1.17632
0.957885
0.663423
0.488038
0.40451
0.309875
0.236224
0.183671
0.126399
0.0822031
0.0617176
0.0461553
0.0640623
0.0738185
0.0898528
0.107866
0.126984
0.147774
0.169515
0.191454
0.213707
0.235822
0.257815
0.279322
0.300107
0.320104
0.340601
0.361094
0.38153
0.401695
0.421608
0.441178
0.46044
0.479322
0.497672
0.515059
0.531786
0.54903
0.567154
0.585036
0.602099
0.618669
0.634935
0.650931
0.666648
0.682087
0.697219
0.712055
0.726588
0.740798
0.754696
0.768272
0.781524
0.794466
0.807101
0.819423
0.831473
0.843211
0.854674
0.865778
0.876557
0.886936
0.896953
0.906566
0.915798
0.924669
0.9331
0.941206
0.948844
0.956029
0.962811
0.969074
0.974796
0.979946
0.984544
0.988589
0.991705
0.99437
0.996064
0.997539
0.998722
0.999572
0.999967
0.99933
0.998079
0.996369
0.994562
0.992508
0.990621
0.988726
0.987188
0.985829
0.984902
0.984291
0.984093
0.984257
0.984734
0.985547
0.986237
0.990131
1.10966
1.04496
0.929936
0.845653
0.781085
0.719416
0.664316
0.621551
0.587417
0.557742
0.537753
0.526918
0.521013
0.517383
0.516285
0.517894
0.522291
0.528564
0.536238
0.545016
0.554594
0.564797
0.575369
0.586313
0.597458
0.608799
0.620506
0.632685
0.645198
0.657949
0.67073
0.683474
0.696112
0.708762
0.721235
0.733279
0.744862
0.756838
0.769799
0.783213
0.796121
0.808653
0.821001
0.833263
0.845418
0.857526
0.869557
0.881526
0.893462
0.90533
0.917099
0.928794
0.940329
0.951678
0.962876
0.973731
0.984431
0.994648
1.00471
1.01417
1.0235
1.03222
1.04077
1.04886
1.05661
1.06403
1.07095
1.07765
1.08376
1.08958
1.0949
1.0998
1.10422
1.10814
1.11152
1.11435
1.11656
1.11803
1.11884
1.11927
1.11971
1.11965
1.11935
1.11809
1.11647
1.11449
1.11231
1.11004
1.10786
1.10588
1.10408
1.10263
1.10155
1.10082
1.10044
1.10057
1.1008
1.10172
1.10202
1.10617
1.07802
1.07844
1.04486
1.01049
0.981333
0.953937
0.927106
0.899935
0.877088
0.859208
0.845635
0.838717
0.83658
0.834761
0.83244
0.830107
0.828253
0.827082
0.82634
0.8263
0.826666
0.827737
0.829315
0.831452
0.833935
0.836844
0.840259
0.844357
0.849015
0.854277
0.859953
0.866161
0.872763
0.879921
0.887303
0.89467
0.90186
0.909491
0.918213
0.927869
0.937461
0.946854
0.956136
0.965433
0.974744
0.984114
0.993503
1.00298
1.0125
1.02215
1.03186
1.04169
1.05157
1.06149
1.07141
1.08126
1.091
1.10056
1.1099
1.11898
1.12777
1.13626
1.14445
1.15234
1.15991
1.16716
1.17411
1.18075
1.187
1.19286
1.19842
1.20353
1.20801
1.21211
1.21587
1.21887
1.22124
1.22292
1.22375
1.22438
1.22442
1.22419
1.22296
1.2212
1.2187
1.21596
1.21294
1.20992
1.20688
1.20414
1.20149
1.19934
1.19729
1.19598
1.19451
1.19388
1.19306
1.19296
1.19208
1.19451
1.04855
1.07443
1.08065
1.07965
1.07715
1.0734
1.06718
1.0586
1.04929
1.04119
1.0359
1.03405
1.03317
1.03088
1.02671
1.02205
1.01743
1.01288
1.00861
1.0046
1.00085
0.997618
0.994779
0.992592
0.990782
0.989742
0.989258
0.989568
0.990627
0.992422
0.994875
0.997992
1.00167
1.00593
1.01051
1.01502
1.01942
1.02409
1.02967
1.0362
1.04292
1.04957
1.05614
1.06282
1.06957
1.07651
1.08356
1.09076
1.09809
1.10558
1.11322
1.12109
1.12914
1.13742
1.1459
1.15449
1.16321
1.17187
1.18045
1.1889
1.19703
1.20499
1.21251
1.21983
1.22671
1.23339
1.23965
1.24568
1.25135
1.25671
1.26174
1.2664
1.27072
1.27456
1.27793
1.2808
1.28305
1.28461
1.28569
1.28654
1.28727
1.28765
1.28757
1.28698
1.28586
1.28471
1.28294
1.28136
1.27925