/*--------------------------------*- C++ -*----------------------------------*\
| =========                 |                                                 |
| \\      /  F ield         | OpenFOAM: The Open Source CFD Toolbox           |
|  \\    /   O peration     | Version:  2112                                  |
|   \\  /    A nd           | Website:  www.openfoam.com                      |
|    \\/     M anipulation  |                                                 |
\*---------------------------------------------------------------------------*/
FoamFile
{
    version     2.0;
    format      ascii;
    arch        "LSB;label=32;scalar=64";
    class       volScalarField;
    location    "8.5005";
    object      p;
}
// * * * * * * * * * * * * * * * * * * * * * * * * * * * * * * * * * * * * * //

dimensions      [1 -1 -2 0 0 0 0];

internalField   nonuniform List<scalar> 
7000
(
0.999999
1
1.00001
1
1.00003
1.00008
1.00038
1.00094
1.00285
1.00578
1.01657
1.02835
1.10717
1.15417
1.77517
2.54742
5.88365
11.7778
11.3513
10.7788
10.6669
10.7064
10.8024
10.9167
11.0075
11.0779
11.1407
11.203
11.2661
11.3286
11.3901
11.4502
11.5089
11.5665
11.6228
11.6785
11.7336
11.7881
11.8417
11.8938
11.944
11.9916
12.0365
12.0781
12.1164
12.1513
12.1824
12.2094
12.2315
12.2503
1
1.00001
1.00001
1.00001
1.00002
1.00008
1.00037
1.00091
1.00277
1.0056
1.01613
1.0273
1.10499
1.15189
1.74731
2.49566
5.73257
11.6427
11.3353
10.7886
10.6667
10.7003
10.79
10.9071
10.9995
11.0706
11.1339
11.1965
11.2597
11.3224
11.3839
11.4442
11.5031
11.561
11.6177
11.6739
11.7295
11.7845
11.8385
11.8911
11.9416
11.9896
12.0347
12.0766
12.115
12.15
12.1811
12.208
12.2296
12.2477
1
1.00001
1.00001
1.00001
1.00002
1.00008
1.00036
1.00088
1.00268
1.00539
1.01562
1.02595
1.10388
1.14908
1.73414
2.47015
5.66618
11.568
11.3249
10.8168
10.6798
10.7054
10.7849
10.9041
10.9979
11.0691
11.1321
11.1942
11.2569
11.319
11.38
11.4401
11.499
11.5572
11.6145
11.6713
11.7274
11.7829
11.8373
11.89
11.9406
11.9884
12.0331
12.0745
12.1123
12.1463
12.1762
12.2016
12.221
12.236
1
1.00001
1.00001
1.00001
1.00002
1.00008
1.00034
1.00084
1.00255
1.00512
1.01495
1.02438
1.10182
1.14555
1.71453
2.42904
5.54765
11.4263
11.2709
10.8396
10.6794
10.6976
10.7677
10.8886
10.9851
11.0577
11.1211
11.1835
11.2463
11.3083
11.3693
11.4294
11.4887
11.5475
11.6056
11.6633
11.7204
11.7767
11.8318
11.885
11.9359
11.9838
12.0283
12.0691
12.106
12.1389
12.1672
12.1907
12.2079
12.2206
1
1
1.00001
1.00001
1.00002
1.00007
1.00032
1.00079
1.00239
1.00476
1.01407
1.02236
1.09936
1.13962
1.69839
2.38863
5.4445
11.2824
11.2182
10.8766
10.6895
10.6995
10.7587
10.8764
10.9749
11.0482
11.1114
11.1734
11.2358
11.2974
11.3582
11.4182
11.4778
11.5372
11.5962
11.655
11.7129
11.77
11.8255
11.8789
11.9297
11.9772
12.0211
12.0609
12.0966
12.1279
12.1545
12.1762
12.1916
12.2026
1
1
1.00001
1.00001
1.00002
1.00007
1.0003
1.00071
1.00218
1.00432
1.01293
1.01988
1.0961
1.13055
1.68299
2.3357
5.33543
11.1137
11.1578
10.9056
10.6948
10.6975
10.7477
10.858
10.9593
11.0337
11.0969
11.1589
11.2212
11.2827
11.3434
11.4035
11.4634
11.5235
11.5834
11.6431
11.7019
11.7597
11.8156
11.8692
11.9198
11.9668
12.01
12.0488
12.0832
12.1129
12.1377
12.1577
12.1714
12.1811
1
1
1.00001
1.00001
1.00002
1.00006
1.00026
1.00063
1.00194
1.00381
1.01158
1.01722
1.09169
1.11964
1.66618
2.27776
5.21589
10.914
11.1407
10.9136
10.6972
10.693
10.7374
10.8406
10.9421
11.0168
11.0797
11.1415
11.2038
11.2652
11.3259
11.3861
11.4465
11.5073
11.568
11.6284
11.6879
11.746
11.802
11.8554
11.9055
11.9518
11.9939
12.0316
12.0646
12.0928
12.1159
12.1344
12.1468
12.1557
1
1
1.00001
1.00001
1.00002
1.00005
1.00022
1.00054
1.00166
1.00323
1.00997
1.01413
1.08623
1.10608
1.6473
2.2191
5.07961
10.6857
11.1404
10.9234
10.6968
10.6835
10.725
10.8228
10.9227
10.9968
11.0594
11.1209
11.183
11.2446
11.3054
11.3659
11.4267
11.4879
11.5491
11.61
11.6697
11.7278
11.7834
11.8362
11.8855
11.9308
11.9718
12.0082
12.0399
12.0667
12.0883
12.1055
12.1167
12.1248
1
1
1
1
1.00002
1.00004
1.00018
1.00044
1.00136
1.00261
1.00817
1.01078
1.08007
1.092
1.62515
2.15784
4.9262
10.4247
11.1498
10.9399
10.6935
10.6688
10.7084
10.8026
10.9008
10.9741
11.0358
11.0969
11.159
11.2207
11.2817
11.3425
11.4036
11.465
11.5263
11.587
11.6464
11.7038
11.7586
11.8103
11.8584
11.9024
11.9421
11.9772
12.0075
12.033
12.0534
12.0695
12.0798
12.0877
1
1
1
1
1.00001
1.00003
1.00015
1.00035
1.00108
1.00204
1.00642
1.00766
1.07359
1.07896
1.59863
2.09281
4.75393
10.1222
11.1719
10.9627
10.687
10.6481
10.6864
10.7786
10.8763
10.9486
11.0093
11.0697
11.1316
11.1935
11.2548
11.3156
11.3766
11.4376
11.4984
11.5583
11.6166
11.6726
11.726
11.7761
11.8226
11.8652
11.9035
11.9372
11.9663
11.9906
12.0099
12.0252
12.0349
12.0422
1
1
1
1
1.00001
1.00003
1.00013
1.00033
1.00098
1.00195
1.00603
1.00809
1.06408
1.07149
1.56082
2.01766
4.55795
9.76717
11.2091
10.9925
10.676
10.6201
10.6575
10.7496
10.8487
10.9205
10.9799
11.0393
11.101
11.1628
11.224
11.2844
11.3447
11.4047
11.4641
11.5224
11.5788
11.6329
11.6842
11.7321
11.7766
11.8174
11.854
11.8863
11.9141
11.9372
11.9557
11.9703
11.9795
11.987
1
1
1
1
1.00001
1.00003
1.00014
1.00032
1.001
1.00199
1.0063
1.00833
1.05979
1.06142
1.52714
1.93966
4.33839
9.34573
11.2712
11.0333
10.6598
10.5832
10.6206
10.7151
10.8178
10.8898
10.9477
11.0059
11.0668
11.1281
11.1885
11.2479
11.3066
11.3647
11.4219
11.4776
11.5313
11.5826
11.6312
11.6766
11.7188
11.7573
11.7919
11.8225
11.8489
11.8709
11.8885
11.9026
11.9115
11.9186
1
1
1
1
1.00001
1.00003
1.00013
1.00031
1.00091
1.00167
1.0055
1.00859
1.05448
1.05817
1.48322
1.86116
4.08334
8.85571
11.3761
11.0938
10.6391
10.5361
10.5751
10.6753
10.7834
10.8559
10.9121
10.9686
11.0283
11.0883
11.1471
11.2044
11.2608
11.3161
11.3702
11.4226
11.4729
11.5207
11.5659
11.6081
11.6472
11.683
11.7153
11.7438
11.7684
11.7891
11.8055
11.8188
11.8273
11.835
1
1
1
1
1.00001
1.00003
1.00011
1.00025
1.00076
1.0016
1.00436
1.00697
1.04918
1.06228
1.42702
1.76641
3.83164
8.27175
11.5337
11.1789
10.612
10.4781
10.5208
10.6309
10.7454
10.8181
10.8725
10.927
10.9845
11.0422
11.0984
11.1528
11.2058
11.2576
11.3077
11.3562
11.4023
11.4459
11.4869
11.525
11.5601
11.5923
11.6212
11.6467
11.6689
11.6876
11.7027
11.7152
11.7231
11.7303
1
1
1
1
1.00001
1.00003
1.00011
1.00023
1.00068
1.00132
1.00409
1.00471
1.04532
1.04562
1.3938
1.66907
3.56974
7.62242
11.7441
11.2996
10.5939
10.4221
10.4675
10.5841
10.7015
10.7735
10.8261
10.8787
10.9337
10.9883
11.0412
11.092
11.1411
11.1885
11.2341
11.2777
11.3189
11.3574
11.3933
11.4264
11.4566
11.4838
11.508
11.5291
11.5472
11.5624
11.5747
11.585
11.5919
11.5996
1
1
1
1
1.00001
1.00002
1.00009
1.0002
1.00059
1.00134
1.00354
1.00651
1.03525
1.04761
1.33684
1.58088
3.29099
6.92686
11.8307
11.3447
10.5703
10.3844
10.4287
10.542
10.6538
10.7228
10.7739
10.8241
10.8758
10.9268
10.9757
11.0222
11.0667
11.1092
11.1495
11.1873
11.2224
11.2546
11.2838
11.3101
11.3333
11.3537
11.3711
11.3856
11.3974
11.4068
11.414
11.4204
11.4247
11.4309
1
1
1
1
1.00001
1.00004
1.0001
1.0003
1.00059
1.00171
1.00367
1.00894
1.01355
1.09822
1.11041
1.94025
2.77588
6.82002
11.655
11.1247
10.4714
10.337
10.3829
10.4916
10.5939
10.6617
10.7133
10.7617
10.81
10.8569
10.9015
10.9434
10.9828
11.0197
11.0539
11.0852
11.1132
11.1378
11.1589
11.1764
11.1904
11.201
11.2081
11.2119
11.213
11.2119
11.2091
11.2068
11.2049
11.2095
1
1
1
1
1.00001
1.00004
1.00011
1.00023
1.0006
1.00136
1.00306
1.00819
1.00691
1.09409
1.09465
1.82829
2.56028
6.13698
11.436
11.0069
10.4567
10.3299
10.3615
10.4418
10.5336
10.6007
10.651
10.6956
10.739
10.781
10.8203
10.8568
10.8903
10.9207
10.9478
10.9712
10.9906
11.0058
11.0168
11.023
11.0243
11.0219
11.0147
11.0018
10.985
10.9651
10.9428
10.9224
10.9043
10.8994
1
1
1
1.00001
1.00001
1.00004
1.00009
1.00022
1.00055
1.0012
1.00313
1.00736
1.00912
1.08609
1.08812
1.73549
2.37785
5.51247
11.1458
10.9699
10.5225
10.3402
10.3458
10.3885
10.474
10.5433
10.5913
10.6302
10.6669
10.7024
10.7354
10.7653
10.7919
10.8148
10.8335
10.8478
10.8571
10.8606
10.859
10.852
10.837
10.815
10.7857
10.7488
10.7033
10.6502
10.5892
10.5254
10.4646
10.4277
1
1
1
1
1.00001
1.00003
1.00004
1.0002
1.00027
1.00128
1.00268
1.00647
1.00638
1.07568
1.07598
1.64826
2.1844
5.05332
10.5545
10.8663
10.6084
10.3395
10.3047
10.336
10.4113
10.483
10.5281
10.561
10.5913
10.6202
10.6463
10.6687
10.6872
10.7013
10.7106
10.714
10.7118
10.7036
10.686
10.6599
10.6246
10.5786
10.5201
10.4469
10.3566
10.2456
10.1115
9.95288
9.77183
9.5866
1
1
1
1
1
1.00001
1.00004
1.00004
1.00034
1.0005
1.00216
1.00433
1.01596
1.02063
1.18918
1.24307
2.44685
4.16658
9.87536
10.8878
10.6679
10.3317
10.2583
10.2846
10.3509
10.4173
10.4564
10.4812
10.5028
10.5229
10.5401
10.5533
10.5617
10.5644
10.5621
10.5535
10.5347
10.5063
10.4684
10.4188
10.3552
10.2744
10.1727
10.043
9.87624
9.65636
9.35376
8.91279
8.21252
6.78563
1
1
1
1
1
1.00001
1.00005
1.00006
1.00034
1.00045
1.00197
1.00334
1.01245
1.01366
1.1608
1.18374
2.30319
3.73477
9.04661
10.8763
10.6669
10.2893
10.1885
10.2123
10.2739
10.334
10.3655
10.3823
10.3953
10.4062
10.4135
10.4153
10.413
10.4047
10.3866
10.3585
10.3216
10.2736
10.2125
10.1352
10.0383
9.9169
9.7642
9.57065
9.32093
8.99348
8.55391
7.95043
7.14599
5.95469
1
1
1
1
1
1.00001
1.00003
1.00003
1.00038
1.00049
1.00276
1.00662
1.00729
1.0054
1.13118
1.13756
2.15223
3.33265
8.10589
10.845
10.6378
10.2238
10.1067
10.1295
10.1884
10.2424
10.2672
10.2767
10.2815
10.283
10.2812
10.2743
10.2587
10.2333
10.2002
10.1579
10.1044
10.0375
9.95448
9.85244
9.72683
9.57287
9.38311
9.14874
8.85763
8.49517
8.04588
7.48957
6.84689
6.0522
1
1
1
1
1
1
1.00002
1.00003
1.00021
1.00024
1.00183
1.00375
1.00997
1.01547
1.10631
1.10728
2.00695
2.8931
7.0221
10.8565
10.637
10.1903
10.0421
10.0582
10.105
10.1537
10.1745
10.1779
10.1764
10.171
10.1585
10.1369
10.1078
10.0711
10.0257
9.96964
9.90124
9.81855
9.71885
9.59897
9.45593
9.28472
9.08046
8.83742
8.54972
8.21071
7.8167
7.36568
6.87161
6.30068
1
1
1
1
1
1
1.00002
1.00002
1.00024
1.00035
1.00156
1.00339
1.00777
1.00564
1.09055
1.08854
1.78297
2.42882
5.64531
10.8258
10.6583
10.2348
10.0184
10.004
10.0241
10.0651
10.0838
10.0833
10.0783
10.0647
10.0391
10.0073
9.96908
9.9231
9.86777
9.80146
9.7226
9.62932
9.51915
9.38992
9.23955
9.06406
8.86301
8.63097
8.36729
8.06831
7.73475
7.36824
6.95883
6.53483
1
1
1
1
1
1
1
1.00003
1.00003
1.00036
1.00051
1.00245
1.00408
1.01908
1.02172
1.21509
1.27277
2.55663
4.45045
10.281
10.6207
10.3583
10.0275
9.94165
9.95236
9.97987
9.99695
9.99531
9.98621
9.96434
9.92948
9.89002
9.84495
9.79187
9.72906
9.65532
9.56945
9.47011
9.35572
9.22481
9.07585
8.90654
8.71623
8.5013
8.26322
8.00045
7.71599
7.40119
7.08198
6.73863
1
1
1
1
1
1.00001
1.00001
1.00004
1.00005
1.00044
1.00056
1.00336
1.0077
1.01128
1.01014
1.16071
1.17665
2.3113
3.74314
8.979
10.5411
10.3656
10.0116
9.87229
9.87559
9.89257
9.91095
9.90924
9.89844
9.87183
9.83009
9.78494
9.73502
9.67718
9.60969
9.53166
9.44235
9.34092
9.22632
9.09762
8.95372
8.79367
8.6166
8.42209
8.21036
7.981
7.73122
7.47015
7.20293
6.91728
1
1
1
1
1
1
1.00001
1.00002
1.00002
1.00021
1.00026
1.00195
1.00446
1.00973
1.01772
1.11718
1.15215
2.06278
3.14664
7.6092
10.5465
10.3859
10.0194
9.82735
9.80751
9.81828
9.83588
9.83338
9.82018
9.78876
9.74206
9.69294
9.63967
9.57872
9.50865
9.42876
9.33872
9.23802
9.1258
9.00159
8.8649
8.7153
8.55248
8.37622
8.18676
7.985
7.76918
7.54803
7.31947
7.07671
1
1
1
1
1
1
1.00001
1.00002
1.00003
1.00017
1.00017
1.00155
1.00258
1.00972
1.01133
1.09542
1.09322
1.85996
2.55153
6.08466
10.552
10.4451
10.0933
9.83837
9.7751
9.77831
9.78493
9.7794
9.76043
9.72012
9.67036
9.61831
9.56238
9.49934
9.42772
9.3472
9.25733
9.1578
9.04873
8.93017
8.80156
8.66291
8.51378
8.35444
8.18558
8.00317
7.81753
7.6254
7.42794
7.2205
1
1
1
1
1
1
1.00001
1.00001
1.00005
1.00005
1.00068
1.00087
1.00492
1.01209
1.01649
1.01324
1.21834
1.26606
2.56021
4.42286
10.0701
10.4414
10.2063
9.87219
9.75363
9.74003
9.73858
9.7302
9.70699
9.66114
9.61006
9.55632
9.49792
9.43295
9.36054
9.28049
9.19269
9.09714
8.99351
8.88136
8.76071
8.63143
8.49405
8.34951
8.19488
8.03596
7.87223
7.70355
7.53149
7.3523
1
1
1
1
1
1
1
1
1.00004
1.00004
1.00041
1.00056
1.00231
1.00539
1.00494
1.00597
1.14459
1.15287
2.29883
3.66872
8.82142
10.4583
10.2907
9.94249
9.75686
9.70132
9.69248
9.6797
9.65277
9.60928
9.55911
9.50466
9.44512
9.37941
9.30718
9.22836
9.14289
9.05073
8.9518
8.84606
8.73362
8.61465
8.48941
8.35594
8.21785
8.07725
7.93205
7.78276
7.63096
7.47363
1
1
1
1
1
1
1
1.00001
1.00002
1.00008
1.00009
1.00142
1.00183
1.01028
1.02518
1.03815
1.04239
1.33779
1.53946
3.15163
6.36956
10.5902
10.5111
10.1668
9.83088
9.70737
9.68167
9.66304
9.62742
9.57987
9.52598
9.46809
9.40592
9.33893
9.26668
9.18908
9.10612
9.01768
8.92373
8.82438
8.71974
8.61008
8.49378
8.37283
8.24984
8.12307
7.99254
7.85897
7.7237
7.58422
1
1
1
1
1
1
1
1
1.00002
1.00003
1.00022
1.0003
1.00171
1.00349
1.00864
1.01311
1.08437
1.10733
1.70091
2.29223
5.20347
10.3831
10.4927
10.2427
9.86095
9.69404
9.65019
9.62805
9.5937
9.54737
9.49373
9.43551
9.37334
9.30695
9.23609
9.16082
9.08115
8.99713
8.90873
8.81584
8.71839
8.61477
8.50756
8.39894
8.28685
8.1713
8.05298
7.93255
7.81105
7.68625
1
1
1
1
1
1
1
1.00001
1.00001
1.00004
1.00005
1.00047
1.00055
1.00365
1.00883
1.01119
1.01094
1.17384
1.18552
2.42124
4.00991
9.4029
10.3968
10.2191
9.86395
9.67688
9.6162
9.59358
9.56387
9.52033
9.46786
9.41037
9.3492
9.28445
9.21615
9.14402
9.06798
8.98805
8.90427
8.81627
8.72329
8.62784
8.53083
8.43056
8.32717
8.22125
8.11341
8.00412
7.89414
7.78151
1
1
1
1
1
1
1
1
1.00001
1.00003
1.00003
1.00028
1.00032
1.00251
1.00511
1.01293
1.02035
1.12869
1.15929
2.15009
3.31174
8.01267
10.4096
10.2707
9.9347
9.70309
9.6178
9.58574
9.55387
9.50911
9.4552
9.39654
9.3355
9.27197
9.20526
9.13533
9.06231
8.98593
8.90567
8.82183
8.73607
8.64865
8.55851
8.46557
8.3702
8.27284
8.17394
8.07401
7.97373
7.87129
1
1
1
1
1
1
1
1
1.00001
1.00003
1.00007
1.00011
1.00095
1.00115
1.00781
1.01913
1.02792
1.02345
1.29453
1.42059
2.82054
5.4144
10.5792
10.5406
10.2208
9.83087
9.66047
9.60373
9.56478
9.51572
9.45849
9.3972
9.33462
9.27054
9.20419
9.1354
9.06381
8.98967
8.91352
8.83602
8.75655
8.67435
8.58953
8.50266
8.41417
8.32436
8.23348
8.1418
8.04984
7.9561
1
1
1
1
1
1
1
1
1.00001
1.00001
1.00004
1.00005
1.0005
1.00061
1.00421
1.01008
1.01519
1.01887
1.20272
1.22596
2.57019
4.39266
10.1051
10.542
10.299
9.88061
9.67398
9.59897
9.55766
9.5106
9.45465
9.39398
9.33145
9.2679
9.2035
9.13705
9.06878
8.99918
8.92806
8.85482
8.77939
8.70185
8.6224
8.54136
8.459
8.3756
8.2914
8.20666
8.12184
8.03557
1
1
1
1
1
1
1
1
1
1.00002
1.00004
1.00015
1.00013
1.00187
1.00232
1.01438
1.03248
1.05725
1.06339
1.50225
1.84185
4.17462
8.68136
10.5129
10.3509
9.96104
9.69143
9.57832
9.53159
9.49138
9.4425
9.3868
9.32804
9.26781
9.20575
9.14251
9.07819
9.01228
8.94454
8.87486
8.8034
8.73023
8.65558
8.57971
8.50284
8.4252
8.34702
8.26849
8.19
8.11029
1
1
1
1
1
1
1
1
1
1.00002
1.00003
1.00009
1.00012
1.00121
1.00137
1.00961
1.02443
1.03527
1.02961
1.37253
1.57108
3.3053
6.69564
10.74
10.6058
10.1649
9.75872
9.58241
9.52577
9.49047
9.44605
9.39256
9.33451
9.27488
9.21532
9.1556
9.09462
9.03164
8.96674
8.90011
8.83198
8.7625
8.69186
8.62024
8.54789
8.47504
8.40188
8.32864
8.25559
8.1816
1
1
1
1
1
1
1
1
1
1
1.00003
1.00003
1.00022
1.00026
1.00192
1.00346
1.01001
1.01264
1.09302
1.09504
1.80317
2.38029
5.53526
10.7706
10.6113
10.1466
9.73732
9.55634
9.49933
9.47368
9.4375
9.39032
9.33708
9.28158
9.22545
9.16865
9.11041
9.05046
8.98886
8.92573
8.86122
8.79562
8.72903
8.66173
8.59382
8.52555
8.45698
8.38827
8.31977
8.25055
1
1
1
1
1
1
1
1
1
1.00001
1.00002
1.00002
1.00021
1.00026
1.00154
1.00335
1.00725
1.01264
1.07335
1.08842
1.65866
2.14155
5.02458
10.2116
10.428
10.1552
9.74159
9.54615
9.48637
9.46628
9.43877
9.39717
9.34812
9.29692
9.24497
9.1914
9.13593
9.07857
9.01951
8.95896
8.89716
8.83437
8.77083
8.70663
8.64195
8.5769
8.51178
8.44673
8.38199
8.31672
1
1
1
1
1
1
1
1
1
1.00001
1.00001
1.00003
1.00004
1.00039
1.00046
1.00312
1.00696
1.01502
1.01613
1.16901
1.17027
2.40463
3.88522
9.17643
10.44
10.233
9.81024
9.58143
9.5079
9.48396
9.45823
9.42083
9.37558
9.32684
9.27538
9.22186
9.16672
9.1102
9.05262
8.99395
8.93446
8.8742
8.81325
8.75176
8.68988
8.62775
8.56552
8.50334
8.44139
8.37893
1
1
1
1
1
1
1
1
1
1
1
1.00003
1.00005
1.00027
1.00028
1.00242
1.00435
1.01363
1.01482
1.1377
1.13278
2.19861
3.27183
7.95829
10.4422
10.271
9.86768
9.60918
9.52376
9.50254
9.48174
9.44726
9.40301
9.35413
9.30309
9.25063
9.19699
9.14227
9.08648
9.02992
8.97249
8.91433
8.85554
8.79627
8.73662
8.67675
8.61675
8.55673
8.49684
8.43628
1
1
1
1
1
1
1
1
1
1
1
1.00003
1.00004
1.0002
1.00025
1.00188
1.00308
1.01132
1.01875
1.1037
1.12113
2.01188
2.83255
6.95158
10.5471
10.3679
9.94509
9.65696
9.55152
9.52569
9.50638
9.47322
9.4291
9.38017
9.32964
9.27829
9.22614
9.173
9.11896
9.06409
9.00845
8.95212
8.89515
8.83764
8.77972
8.72153
8.66326
8.60493
8.54671
8.4878
1
1
1
1
1
1
1
1
1
1
1.00001
1.00002
1.00006
1.00008
1.00061
1.00072
1.00405
1.01027
1.01743
1.01401
1.24941
1.28349
2.75428
4.88214
10.607
10.5491
10.2302
9.80489
9.62426
9.57794
9.5544
9.51706
9.46827
9.41538
9.36199
9.30885
9.25572
9.20239
9.14869
9.09456
9.04001
8.98504
8.92969
8.87406
8.81818
8.76209
8.7058
8.6494
8.59291
8.53556
1
1
1
1
1
1
1
1
1
1
1.00001
1.00002
1.00008
1.00013
1.00065
1.00086
1.0058
1.01372
1.0171
1.02623
1.18535
1.2402
2.51085
4.27016
9.98988
10.55
10.2979
9.86972
9.66571
9.60426
9.57672
9.54017
9.49219
9.43956
9.38655
9.33393
9.28149
9.22893
9.17607
9.12291
9.06947
9.01579
8.96186
8.90769
8.85334
8.79882
8.74416
8.68941
8.63463
8.5791
1
1
1
1
1
1
1
1
1
1
1.00001
1.00001
1.00005
1.00006
1.0004
1.00041
1.00311
1.00629
1.01562
1.01635
1.16495
1.1641
2.37885
3.71728
8.97225
10.5719
10.3789
9.97299
9.73125
9.63979
9.60239
9.56596
9.51943
9.46689
9.41289
9.35934
9.30632
9.25354
9.20081
9.14806
9.09525
9.04233
8.98933
8.93626
8.88314
8.83003
8.77696
8.72394
8.67103
8.6176
1
1
1
1
1
1
1
1
1
1
1
1.00003
1.00006
1.00008
1.00007
1.00121
1.00132
1.01103
1.02578
1.04528
1.0509
1.42179
1.64838
3.68189
7.57354
10.7821
10.6145
10.1626
9.81663
9.67071
9.62057
9.58578
9.5415
9.48943
9.43519
9.38157
9.32893
9.27687
9.22513
9.17337
9.12154
9.06965
9.01771
8.96575
8.91382
8.86195
8.81018
8.75857
8.70721
8.65556
1
1
1
1
1
1
1
1
1
1
1
1.00001
1.00001
1.00013
1.00015
1.00126
1.00308
1.00594
1.01921
1.03136
1.03424
1.31356
1.43765
2.99101
5.8305
11.3152
11.051
10.3705
9.89272
9.70004
9.64251
9.61064
9.56876
9.51708
9.4624
9.40838
9.35568
9.30374
9.25198
9.20021
9.14843
9.09668
9.04506
8.9936
8.94235
8.89134
8.84059
8.79013
8.74005
8.68996
1
1
1
1
1
1
1
1
1
1
1
1.00001
1.00001
1.00004
1.00005
1.00042
1.0005
1.00297
1.00664
1.01968
1.01798
1.26113
1.29769
2.84596
5.13837
11.3066
11.0124
10.391
9.89922
9.69511
9.6397
9.61552
9.58084
9.53383
9.48177
9.42937
9.37792
9.32712
9.27647
9.22578
9.17495
9.12409
9.07319
9.02243
8.97186
8.92148
8.87136
8.82151
8.77201
8.72247
1
1
1
1
1
1
1
1
1
1
1
1.00001
1.00001
1.00005
1.00009
1.0005
1.00062
1.00419
1.00992
1.01442
1.02202
1.2132
1.24665
2.72731
4.75075
10.8939
10.7954
10.415
9.92313
9.70304
9.64582
9.62712
9.59778
9.55385
9.50339
9.45199
9.40134
9.35126
9.3013
9.25116
9.20089
9.15053
9.10022
9.04999
8.99984
8.94984
8.90004
8.85044
8.8011
8.75156
1
1
1
1
1
1
1
1
1
1
1
1.00001
1.00001
1.00009
1.00014
1.00078
1.00077
1.00658
1.01583
1.01882
1.01559
1.2111
1.21228
2.64535
4.48409
10.4196
10.705
10.4026
9.94223
9.72362
9.66329
9.64418
9.61538
9.5723
9.52269
9.47205
9.42203
9.37246
9.32295
9.2733
9.22353
9.17372
9.12395
9.07426
9.02466
8.97518
8.92581
8.87656
8.82742
8.77794
1
1
1
1
1
1
1
1
1
1
1
1.00001
1.00001
1.00006
1.00014
1.00058
1.00077
1.00551
1.01387
1.01613
1.01997
1.18659
1.191
2.55814
4.1973
9.97566
10.6846
10.4134
9.95717
9.73802
9.67679
9.65742
9.62947
9.5877
9.53928
9.4895
9.44005
9.3909
9.34176
9.2925
9.24315
9.19376
9.14439
9.09507
9.04582
8.99663
8.94752
8.89848
8.84955
8.80027
1
1
1
1
1
1
1
1
1
1
1
1.00001
1.00001
1.00004
1.00004
1.00043
1.00049
1.00358
1.0086
1.01618
1.02609
1.17293
1.2153
2.43618
3.99786
9.55836
10.68
10.4342
9.9766
9.75472
9.6912
9.67065
9.64272
9.60164
9.55404
9.50497
9.45613
9.40757
9.359
9.31031
9.2615
9.21262
9.16371
9.11479
9.06588
9.01699
8.96813
8.91929
8.87048
8.82125
1
1
1
1
1
1
1
1
1
1
1
1.00001
1.00001
1.00004
1.00004
1.00042
1.00044
1.00349
1.00792
1.01609
1.02257
1.16638
1.16121
2.41932
3.78593
9.17763
10.6867
10.4638
10.0196
9.7884
9.71512
9.68943
9.65923
9.61681
9.56803
9.51789
9.46821
9.41906
9.37016
9.32132
9.27249
9.22369
9.17491
9.12618
9.0775
9.02887
8.9803
8.9318
8.88344
8.83488
1
1
1
1
1
1
1
1
1
1
1
1.00002
1.00002
1.00013
1.0003
1.00041
1.00048
1.00331
1.00696
1.01564
1.02539
1.14695
1.17147
2.30472
3.63401
8.81455
10.7336
10.5154
10.0632
9.81109
9.72711
9.7009
9.67363
9.63348
9.58566
9.53578
9.48625
9.4373
9.38863
9.33998
9.29128
9.24253
9.19375
9.14497
9.09618
9.04742
8.99868
8.94996
8.90128
8.85225
1
1
1
1
1
1
1
1
1
1
1
1.00001
1.00002
1.00003
1.00022
1.00022
1.00194
1.00453
1.00866
1.02901
1.04612
1.0424
1.48812
1.72301
4.00185
8.29126
10.9192
10.6903
10.1667
9.84084
9.72243
9.69105
9.66737
9.62986
9.58248
9.53219
9.48234
9.43344
9.38512
9.33699
9.2889
9.2408
9.19271
9.14463
9.09653
9.04843
9.00034
8.95226
8.90425
8.85597
1
1
1
1
1
1
1
1
1
1
1
1
1.00001
1.00003
1.00016
1.00023
1.00159
1.00368
1.00743
1.02447
1.03853
1.03508
1.42022
1.60597
3.60764
7.39778
11.1856
10.9496
10.352
9.9345
9.77315
9.73079
9.70541
9.66655
9.61684
9.56382
9.51136
9.46018
9.40989
9.36006
9.31047
9.26105
9.21179
9.16266
9.11368
9.06481
9.01605
8.96737
8.91878
8.86988
1
1
1
1
1
1
1
1
1
1
1
1
1.00001
1.00004
1.00008
1.00028
1.00037
1.00255
1.00472
1.01433
1.01512
1.13653
1.12364
2.27267
3.44077
8.46129
10.9133
10.6224
10.0721
9.80902
9.73397
9.71375
9.68896
9.64957
9.60173
9.55156
9.50171
9.45256
9.40382
9.35523
9.30671
9.25826
9.20988
9.16157
9.11335
9.06515
9.01697
8.9688
8.92061
8.87204
1
1
1
1
1
1
1
1
1
1
1
1
1.00001
1.00001
1.00015
1.00015
1.00152
1.00356
1.00705
1.02338
1.03687
1.03345
1.40912
1.58815
3.55237
7.29397
11.271
10.9939
10.3377
9.92012
9.76877
9.73391
9.71261
9.67542
9.62592
9.57247
9.51942
9.4677
9.41693
9.3667
9.31683
9.2672
9.21773
9.16856
9.11963
9.07071
9.02201
8.97351
8.92524
8.87691
2.73183
2.64216
3.70642
3.94749
3.72672
3.66848
3.64946
3.65742
3.69356
3.73004
3.75667
3.78079
3.81539
3.86859
3.93662
4.01375
4.09556
4.17893
4.26241
4.34537
4.42601
4.50335
4.57654
4.64545
4.70894
4.77096
4.82431
4.87043
4.90975
4.94234
4.96927
4.99004
5.00532
5.01507
5.01947
5.01913
5.01632
5.00856
4.99305
4.97438
4.95282
4.92823
4.90074
4.87067
4.8383
4.80391
4.76774
4.73008
4.69117
4.65123
4.61047
4.56906
4.5272
4.48504
4.44275
4.40045
4.3583
4.31642
4.27494
4.23402
4.19375
4.15429
4.11575
4.07827
4.04199
4.00704
3.97356
3.94168
3.91156
3.88334
3.85718
3.83325
3.81171
3.79273
3.7765
3.76322
3.75303
3.74616
3.74314
3.74327
3.74395
3.74585
3.7502
3.75928
3.77283
3.7886
3.8057
3.82352
3.84166
3.85957
3.87682
3.89293
3.90756
3.92042
3.93137
3.94029
3.94737
3.95251
3.95591
3.95816
3.67943
3.66007
3.93332
3.87732
3.72628
3.65378
3.64313
3.66568
3.72326
3.7607
3.78026
3.78483
3.80501
3.85953
3.92551
4.00097
4.08202
4.16611
4.25092
4.33483
4.41611
4.49397
4.56761
4.63696
4.70172
4.7638
4.81762
4.86393
4.90341
4.93642
4.96338
4.98439
4.99971
5.00947
5.01375
5.01343
5.01121
5.00461
4.99018
4.96944
4.94742
4.92329
4.89631
4.86657
4.83442
4.80022
4.76426
4.72679
4.68803
4.64821
4.60754
4.56621
4.52442
4.48232
4.44008
4.39786
4.35578
4.31399
4.2726
4.23177
4.1916
4.15221
4.11374
4.07634
4.04014
4.00528
3.97188
3.9401
3.91007
3.88194
3.85587
3.83203
3.81057
3.79164
3.77545
3.76221
3.75207
3.74527
3.74262
3.7428
3.74357
3.7456
3.75003
3.75904
3.77221
3.78796
3.8052
3.82323
3.84152
3.85951
3.87675
3.89283
3.90739
3.92022
3.93111
3.93993
3.94696
3.95236
3.95596
3.96179
4.87005
4.40065
4.29393
4.07437
3.87447
3.7596
3.71038
3.70855
3.71642
3.73651
3.76116
3.78464
3.81865
3.87105
3.93773
4.01244
4.09167
4.17328
4.2555
4.33714
4.41685
4.49347
4.56632
4.63514
4.69935
4.75913
4.81258
4.85893
4.89837
4.93122
4.95787
4.97853
4.99336
5.00268
5.00645
5.00609
5.00416
4.99858
4.98609
4.96404
4.9407
4.9162
4.88945
4.86007
4.82822
4.79425
4.75848
4.72118
4.6826
4.64296
4.60248
4.56134
4.51974
4.47784
4.43579
4.39374
4.35183
4.3102
4.26898
4.22827
4.18824
4.14903
4.11076
4.07356
4.03756
4.0029
3.96971
3.93814
3.90833
3.88043
3.85456
3.83098
3.80967
3.7909
3.77491
3.76185
3.75188
3.74524
3.74297
3.7432
3.74411
3.74635
3.75106
3.76051
3.77306
3.78826
3.80524
3.82319
3.8414
3.85927
3.87631
3.89213
3.90638
3.91902
3.92952
3.93826
3.94496
3.95064
3.95412
3.96126
5.45872
4.92337
4.62717
4.36776
4.13769
3.96636
3.86054
3.81473
3.81487
3.82045
3.83547
3.86088
3.8829
3.91654
3.96855
4.03366
4.10585
4.18204
4.26029
4.33888
4.41643
4.49123
4.56277
4.62984
4.69256
4.75079
4.80342
4.8494
4.88856
4.9211
4.94735
4.96756
4.98201
4.99092
4.99416
4.99382
4.99215
4.98746
4.97687
4.95554
4.93106
4.90569
4.87882
4.84979
4.81842
4.78488
4.74946
4.71247
4.67416
4.63479
4.59457
4.5537
4.51236
4.47072
4.42893
4.38715
4.34552
4.30415
4.26321
4.2228
4.18307
4.14416
4.10619
4.0693
4.03364
3.99933
3.96651
3.93532
3.9059
3.8784
3.85296
3.82976
3.80891
3.79057
3.77496
3.76225
3.75261
3.74633
3.74445
3.74477
3.74588
3.74847
3.75382
3.76312
3.7753
3.7897
3.80586
3.82317
3.84088
3.85827
3.87486
3.89021
3.90403
3.91611
3.92633
3.93473
3.94143
3.94717
3.95088
3.95834
5.86345
5.37241
5.00953
4.70774
4.44596
4.23455
4.08371
3.99178
3.94618
3.92598
3.92611
3.92924
3.93962
3.96337
4.01097
4.06997
4.13593
4.20584
4.278
4.35103
4.42368
4.49463
4.56286
4.62776
4.68848
4.74461
4.79559
4.84051
4.87903
4.91116
4.93686
4.9565
4.97037
4.97871
4.98112
4.98072
4.97907
4.97469
4.96503
4.94545
4.92061
4.89432
4.86692
4.83786
4.80678
4.77365
4.73865
4.70204
4.66409
4.62507
4.5852
4.54469
4.50371
4.46244
4.42102
4.37961
4.33834
4.29734
4.25676
4.21673
4.17738
4.13887
4.10132
4.06489
4.02969
3.99589
3.96358
3.93293
3.90406
3.87712
3.85227
3.82964
3.80937
3.79163
3.77658
3.76439
3.75526
3.74942
3.74828
3.74864
3.74985
3.75264
3.75834
3.76791
3.77943
3.79301
3.80792
3.82415
3.8407
3.85712
3.87282
3.8873
3.90033
3.91168
3.9213
3.92929
3.93555
3.94136
3.94521
3.9531
6.19366
5.76735
5.40189
5.07394
4.78546
4.54297
4.3533
4.21747
4.12993
4.0788
4.05427
4.05166
4.05372
4.06174
4.08154
4.12216
4.17558
4.23602
4.29987
4.36545
4.43164
4.49738
4.5618
4.62336
4.6814
4.73524
4.78427
4.8279
4.86555
4.89714
4.92213
4.9412
4.95453
4.96235
4.96403
4.9636
4.96197
4.95783
4.94886
4.93077
4.90677
4.88034
4.85251
4.82326
4.79232
4.75954
4.725
4.68886
4.65139
4.61282
4.57339
4.53332
4.4928
4.45199
4.41104
4.3701
4.3293
4.2888
4.24871
4.20921
4.1704
4.13246
4.09549
4.05968
4.02513
3.99199
3.96038
3.93046
3.90236
3.87622
3.85215
3.83033
3.81088
3.79396
3.77971
3.76827
3.75986
3.75451
3.75416
3.75455
3.7558
3.75866
3.76447
3.77396
3.78478
3.79718
3.81077
3.82526
3.84022
3.85501
3.86928
3.88253
3.89452
3.90501
3.91395
3.92145
3.92737
3.93319
3.93729
3.94575
6.46689
6.10217
5.75734
5.42581
5.12377
4.86074
4.6424
4.47184
4.34723
4.26188
4.20759
4.17771
4.1652
4.16588
4.17059
4.18436
4.21446
4.2647
4.32178
4.38145
4.44194
4.5024
4.56203
4.61967
4.67441
4.72557
4.77245
4.81446
4.85098
4.88169
4.90638
4.92502
4.93744
4.94485
4.94595
4.94548
4.94382
4.93977
4.93115
4.91388
4.89116
4.86522
4.83728
4.8078
4.7768
4.74421
4.71004
4.67438
4.63743
4.5994
4.56051
4.52098
4.481
4.44074
4.40035
4.35997
4.31975
4.27983
4.24035
4.20147
4.16331
4.12605
4.08982
4.05476
4.021
3.98867
3.95793
3.92891
3.90174
3.87656
3.85348
3.83266
3.81421
3.79828
3.78499
3.77445
3.76685
3.76225
3.7623
3.76276
3.76408
3.76696
3.77277
3.78162
3.79162
3.80276
3.81465
3.82719
3.84008
3.8529
3.86535
3.87704
3.88774
3.89722
3.90538
3.91227
3.91784
3.92358
3.9279
3.93687
6.6969
6.3825
6.06767
5.74753
5.44312
5.16826
4.93138
4.73682
4.58339
4.46741
4.38404
4.32842
4.29453
4.27708
4.27487
4.27716
4.28587
4.3069
4.34943
4.40019
4.45452
4.50954
4.56403
4.61677
4.66733
4.715
4.7592
4.79911
4.83417
4.8638
4.88778
4.906
4.91819
4.92485
4.92544
4.92494
4.92326
4.91921
4.91068
4.89417
4.87269
4.84764
4.82005
4.79059
4.75958
4.72711
4.69324
4.65803
4.62162
4.58419
4.54591
4.50701
4.46766
4.42803
4.38828
4.34855
4.30901
4.26978
4.23104
4.1929
4.15553
4.1191
4.08375
4.0496
4.01681
3.98551
3.95582
3.92788
3.90181
3.87774
3.85582
3.8362
3.81897
3.80423
3.79207
3.78258
3.77585
3.77215
3.77223
3.77271
3.77402
3.77684
3.78255
3.79033
3.79904
3.80865
3.8186
3.82901
3.83957
3.85014
3.86049
3.87037
3.87957
3.88789
3.89516
3.90141
3.90661
3.9123
3.91677
3.92612
6.89563
6.62178
6.33639
6.03328
5.73517
5.45869
5.21286
5.00084
4.82446
4.68312
4.57391
4.49305
4.43575
4.39838
4.37697
4.36808
4.36904
4.37434
4.38893
4.41992
4.46516
4.51522
4.56528
4.6136
4.66007
4.70415
4.74527
4.78271
4.8159
4.84426
4.86738
4.88503
4.89694
4.90348
4.90354
4.90301
4.90127
4.89717
4.88859
4.87281
4.85238
4.8283
4.80134
4.77218
4.74131
4.70899
4.67538
4.64058
4.60472
4.56791
4.53032
4.49213
4.45349
4.41458
4.37557
4.3366
4.29784
4.25942
4.22151
4.18427
4.1479
4.11245
4.07813
4.04504
4.01333
3.98315
3.95462
3.92789
3.90306
3.88029
3.85972
3.84144
3.82556
3.81213
3.8012
3.7928
3.78699
3.78401
3.78409
3.78455
3.78577
3.78838
3.79357
3.8
3.8072
3.8149
3.82285
3.83097
3.83918
3.84743
3.85558
3.86348
3.87106
3.87808
3.88438
3.88998
3.8947
3.9003
3.90489
3.91451
7.07059
6.82904
6.5706
6.28713
6.00021
5.7267
5.47648
5.25433
5.06301
4.90277
4.77204
4.66836
4.58849
4.53076
4.49064
4.46512
4.45117
4.45096
4.45341
4.46224
4.48271
4.52274
4.56633
4.61003
4.65287
4.69366
4.73154
4.76607
4.79687
4.82348
4.8454
4.86222
4.87379
4.88009
4.88003
4.87942
4.87758
4.87337
4.86467
4.84953
4.82999
4.80685
4.7807
4.75212
4.72162
4.68958
4.65628
4.6219
4.58657
4.55041
4.51353
4.4761
4.43825
4.40014
4.36195
4.32382
4.28593
4.24844
4.21154
4.17535
4.14005
4.10572
4.07253
4.04062
4.01013
3.98122
3.95403
3.92866
3.90528
3.884
3.86493
3.84814
3.83371
3.82168
3.81202
3.80474
3.7998
3.79732
3.79739
3.79777
3.79877
3.80094
3.80506
3.81
3.81541
3.82106
3.82687
3.83272
3.83861
3.84455
3.85052
3.85644
3.86229
3.86791
3.87307
3.87797