/*--------------------------------*- C++ -*----------------------------------*\
| =========                 |                                                 |
| \\      /  F ield         | OpenFOAM: The Open Source CFD Toolbox           |
|  \\    /   O peration     | Version:  2112                                  |
|   \\  /    A nd           | Website:  www.openfoam.com                      |
|    \\/     M anipulation  |                                                 |
\*---------------------------------------------------------------------------*/
FoamFile
{
    version     2.0;
    format      ascii;
    arch        "LSB;label=32;scalar=64";
    class       surfaceScalarField;
    location    "8.5005";
    object      phi;
}
// * * * * * * * * * * * * * * * * * * * * * * * * * * * * * * * * * * * * * //

dimensions      [1 0 -1 0 0 0 0];

oriented        oriented;

internalField   nonuniform List<scalar> 
13790
(
0.00290515
5.73053e-09
0.00290514
2.75288e-09
0.00290514
1.25579e-09
0.00290514
-4.9958e-10
0.00290514
5.01079e-10
0.00290514
-9.78419e-10
0.00290514
1.01043e-09
0.00290513
1.11024e-08
0.00290506
5.36915e-08
0.00290494
1.16902e-07
0.00290452
3.17868e-07
0.00290403
5.59384e-07
0.00290193
8.38796e-07
0.00290588
-2.65122e-06
0.0028949
4.77561e-06
0.00288738
-4.67146e-06
0.00286169
-1.67058e-05
0.00275188
6.49634e-05
0.00262294
0.000126845
0.0025562
7.74211e-05
0.00250111
6.04885e-05
0.00244267
5.96102e-05
0.002366
7.28576e-05
0.00228492
7.77043e-05
0.00219924
8.19387e-05
0.00210927
8.66211e-05
0.00201493
9.14124e-05
0.00191764
9.56072e-05
0.00181885
9.85618e-05
0.00171975
9.94735e-05
0.0016237
9.78919e-05
0.00153265
9.38671e-05
0.00144811
8.7616e-05
0.00137083
8.00742e-05
0.00130024
7.20198e-05
0.00123643
6.45753e-05
0.00117835
5.86233e-05
0.00112472
5.4718e-05
0.00107335
5.32075e-05
0.00102165
5.41018e-05
0.000966959
5.73515e-05
0.000906948
6.26634e-05
0.000839587
6.98074e-05
0.000763371
7.84902e-05
0.000677369
8.85099e-05
0.000580193
9.99287e-05
0.000470069
0.000113076
0.000344835
0.000128507
0.000194103
0.000153702
0.000196009
0.00301309
6.49688e-09
0.00301309
4.86642e-09
0.00301309
3.17113e-09
0.00301309
1.39522e-09
0.00301309
2.34951e-09
0.00301308
1.52073e-09
0.00301307
9.53502e-09
0.00301305
3.12971e-08
0.00301299
9.96393e-08
0.00301287
2.34434e-07
0.00301256
5.48024e-07
0.00301185
1.31296e-06
0.00301024
1.2753e-06
0.00300962
-7.10522e-07
0.00300471
3.76943e-06
0.00299067
-4.32838e-06
0.00295246
-1.35029e-05
0.00284406
0.00012302
0.00272503
0.00024128
0.00264886
0.000157699
0.00258232
0.000129814
0.00251317
0.000129225
0.00243251
0.000149523
0.00234591
0.000160876
0.0022548
0.000169392
0.00216121
0.000177338
0.002065
0.000185205
0.00196767
0.000191448
0.00187107
0.000195058
0.00177639
0.000194795
0.00168645
0.000190126
0.00160201
0.000181439
0.00152354
0.000169273
0.00145072
0.000155461
0.00138247
0.000141451
0.00131869
0.000129204
0.00125812
0.000120265
0.00119912
0.000115458
0.00113948
0.000115156
0.00107684
0.000119306
0.00100933
0.000127458
0.000935388
0.000139161
0.000853817
0.000153682
0.000763971
0.000170519
0.000665411
0.000189579
0.000557215
0.000210916
0.000438054
0.000235254
0.000306062
0.000263884
0.000160012
0.000302558
0.000357924
0.00312505
6.80164e-09
0.00312504
6.39158e-09
0.00312504
4.91992e-09
0.00312504
3.46873e-09
0.00312504
4.0316e-09
0.00312503
4.89203e-09
0.00312502
1.8877e-08
0.003125
5.16578e-08
0.00312493
1.51741e-07
0.00312481
3.46814e-07
0.00312449
8.05202e-07
0.00312402
1.80549e-06
0.00312181
2.23978e-06
0.00312113
1.43319e-06
0.00311214
6.47339e-06
0.00309195
1.01862e-06
0.00304702
-3.32584e-06
0.00291097
0.00020464
0.00279658
0.000342659
0.0027365
0.000225655
0.00266651
0.000203362
0.00259096
0.00020583
0.00250926
0.000227305
0.0024215
0.000245319
0.00232982
0.000257849
0.00223677
0.000268344
0.00214221
0.000278186
0.00204739
0.000285447
0.00195372
0.000288697
0.00186275
0.000286576
0.00177668
0.000278891
0.00169529
0.000266278
0.00161824
0.000249772
0.0015443
0.000231719
0.0014726
0.000214116
0.00140316
0.000199442
0.00133496
0.000189521
0.00126702
0.000185307
0.00119744
0.000187352
0.00112431
0.000195367
0.00104588
0.000208794
0.000960919
0.000226786
0.000868533
0.00024842
0.000768431
0.00027284
0.00066074
0.000299829
0.000544936
0.00032954
0.000420521
0.000362696
0.000287445
0.000400386
0.000145521
0.000447094
0.000505214
0.00324116
6.62239e-09
0.00324116
6.67203e-09
0.00324116
5.99332e-09
0.00324115
4.95674e-09
0.00324115
5.85632e-09
0.00324115
8.73935e-09
0.00324113
2.83257e-08
0.00324111
7.28917e-08
0.00324103
2.05107e-07
0.00324091
4.63503e-07
0.00324052
1.09204e-06
0.00323986
2.4287e-06
0.00323741
3.24775e-06
0.00323472
4.76164e-06
0.00322773
7.47719e-06
0.00320586
7.98078e-06
0.00315455
1.69185e-05
0.00301579
0.000283355
0.00291301
0.000422512
0.00284249
0.000304608
0.00276245
0.000287218
0.00268017
0.000289561
0.00259484
0.000308917
0.00250353
0.000333563
0.00241107
0.000348042
0.00231898
0.000359758
0.00222642
0.000370073
0.00213481
0.000376747
0.0020452
0.000378457
0.00195892
0.000373783
0.00187766
0.000363102
0.00180012
0.000347331
0.00172536
0.000327926
0.00165142
0.000307786
0.0015773
0.000289064
0.00150291
0.000274739
0.00142741
0.000266456
0.00135004
0.000265319
0.00126907
0.000271517
0.00118321
0.000284455
0.00109145
0.000303401
0.000993681
0.000327047
0.000889654
0.000354793
0.000779439
0.000385365
0.000663387
0.000418545
0.000541148
0.000454672
0.000412927
0.00049398
0.000278748
0.000537967
0.000139624
0.000588544
0.000646515
0.00336158
6.37414e-09
0.00336158
6.63187e-09
0.00336158
6.58955e-09
0.00336158
6.34155e-09
0.00336158
7.02378e-09
0.00336157
1.18063e-08
0.00336156
3.70191e-08
0.00336154
9.31062e-08
0.00336145
2.58874e-07
0.00336132
5.79511e-07
0.00336089
1.39397e-06
0.00336017
3.02929e-06
0.00335725
4.39739e-06
0.00335341
8.15603e-06
0.00334418
1.00993e-05
0.00332254
1.9765e-05
0.0032681
3.86695e-05
0.00310322
0.000381756
0.00302433
0.000472519
0.00294775
0.000389637
0.00286311
0.00037499
0.0027757
0.000377717
0.0026875
0.000394509
0.00259658
0.000421617
0.00250518
0.000437891
0.00241481
0.00045044
0.00232494
0.000460101
0.00223694
0.000464963
0.00215182
0.000464179
0.00207055
0.00045665
0.00199385
0.000443239
0.00191966
0.000425174
0.00184636
0.000404391
0.00177178
0.000384027
0.00169519
0.000366528
0.00161618
0.000355015
0.00153379
0.000350818
0.00144727
0.000354962
0.00135513
0.000367147
0.00125655
0.000386347
0.00115137
0.000411417
0.00104007
0.000440828
0.000923473
0.000473695
0.000802136
0.000509113
0.000676424
0.000546941
0.000546757
0.000587173
0.000413115
0.000630593
0.000277346
0.000677115
0.000137736
0.000730129
0.000785662
0.00348648
6.08436e-09
0.00348648
6.26758e-09
0.00348648
6.72323e-09
0.00348648
6.92169e-09
0.00348648
7.60599e-09
0.00348648
1.40702e-08
0.00348646
4.40915e-08
0.00348645
1.09521e-07
0.00348637
3.01632e-07
0.00348626
6.70436e-07
0.00348586
1.63672e-06
0.00348532
3.37894e-06
0.00348193
5.66327e-06
0.00347838
1.06401e-05
0.00346693
1.44809e-05
0.00345198
2.65706e-05
0.00338509
7.03429e-05
0.00320755
0.000485285
0.00314239
0.00051324
0.00305595
0.00047989
0.00296861
0.000462349
0.00287673
0.000468591
0.00278562
0.000483385
0.00269727
0.000508009
0.00260857
0.000525989
0.00252165
0.000538644
0.0024361
0.000546427
0.00235354
0.000548394
0.00227454
0.000544616
0.00219928
0.000534268
0.00212747
0.000518883
0.002056
0.000499892
0.00198314
0.000479645
0.00190682
0.000461531
0.00182632
0.000447961
0.00174134
0.000441879
0.0016506
0.000444277
0.0015537
0.000455495
0.00144959
0.000474983
0.00133812
0.000501129
0.00121981
0.000532478
0.00109549
0.000567525
0.000966336
0.000604996
0.000833831
0.000643971
0.000698596
0.000684816
0.00056093
0.000727619
0.000421957
0.000772477
0.000280599
0.000821799
0.000139334
0.000872814
0.000926227
0.00361602
5.7781e-09
0.00361602
5.87726e-09
0.00361602
6.60695e-09
0.00361602
7.11202e-09
0.00361602
7.85038e-09
0.00361602
1.54355e-08
0.00361601
4.88203e-08
0.003616
1.20601e-07
0.00361592
3.35251e-07
0.00361583
7.43753e-07
0.00361544
1.86467e-06
0.00361478
3.79219e-06
0.00361122
6.66396e-06
0.0036077
1.29359e-05
0.00359476
1.83741e-05
0.00358754
3.13541e-05
0.00351277
0.00010208
0.00332622
0.000586188
0.00323912
0.000591807
0.00316097
0.000553407
0.00307684
0.000543063
0.00298631
0.000556329
0.00289593
0.000571593
0.00280911
0.000593658
0.00272419
0.00061121
0.00264237
0.000622276
0.00256308
0.00062689
0.00248804
0.000625447
0.00241668
0.000618718
0.00234815
0.000606255
0.0022806
0.000590336
0.00221053
0.000572253
0.00213649
0.000555111
0.00205671
0.000542024
0.00197087
0.000535257
0.00187824
0.000537296
0.00177789
0.000548221
0.00166919
0.000568228
0.00155221
0.000595648
0.00142726
0.000629217
0.00129579
0.000666557
0.00115907
0.000706612
0.00101812
0.00074808
0.000874412
0.00079001
0.000729002
0.000832752
0.000582785
0.000876402
0.000435665
0.00092218
0.000290324
0.000969951
0.000142903
0.00102118
0.00106992
0.00375038
5.45364e-09
0.00375038
5.51566e-09
0.00375038
6.26733e-09
0.00375038
6.79107e-09
0.00375038
7.74319e-09
0.00375038
1.54968e-08
0.00375037
4.91676e-08
0.00375037
1.20994e-07
0.00375033
3.42326e-07
0.00375029
7.61391e-07
0.0037501
1.96436e-06
0.00374969
3.95103e-06
0.0037465
7.12804e-06
0.00374549
1.3305e-05
0.00373221
2.16174e-05
0.00372841
3.63356e-05
0.0036455
0.000132837
0.00344845
0.000693965
0.00335062
0.000681746
0.00327152
0.000628011
0.00319139
0.000619017
0.00310601
0.00063829
0.00301931
0.000655951
0.00293571
0.000676552
0.00285613
0.000691279
0.00278173
0.000698635
0.00271133
0.000699434
0.00264592
0.000694716
0.00258326
0.000685888
0.00252051
0.000672919
0.00245528
0.00065836
0.00238424
0.000644108
0.00230691
0.000633069
0.00222166
0.000628299
0.00212811
0.000631108
0.00202535
0.000643492
0.00191301
0.000664494
0.00179162
0.000693954
0.00166133
0.000729821
0.00152333
0.000770398
0.00137858
0.000813817
0.00122909
0.000857973
0.00107673
0.00090227
0.000922463
0.000946536
0.000767009
0.000990659
0.00061114
0.00103477
0.000456853
0.00107901
0.000302033
0.00112762
0.000149688
0.00117391
0.00122014
0.00388972
5.11478e-09
0.00388972
5.22031e-09
0.00388972
5.76494e-09
0.00388972
6.05599e-09
0.00388972
7.5277e-09
0.00388972
1.32034e-08
0.00388973
3.95106e-08
0.00388976
9.52675e-08
0.00388982
2.79648e-07
0.00388996
6.13009e-07
0.00389034
1.67672e-06
0.00389089
3.17844e-06
0.0038892
6.44082e-06
0.00389179
1.15861e-05
0.00387858
2.3898e-05
0.00387643
4.08978e-05
0.00378999
0.000163493
0.00357891
0.000811118
0.00347356
0.000781647
0.00339632
0.00070327
0.00332018
0.000691424
0.00324036
0.000714572
0.00316029
0.000733825
0.00308322
0.000752807
0.00301187
0.000762854
0.00294783
0.000765465
0.00288879
0.000762639
0.00283325
0.000755854
0.0027776
0.000746666
0.00271769
0.000735808
0.00265143
0.000725748
0.00257647
0.000718891
0.00249235
0.000717453
0.00239818
0.000723855
0.00229362
0.000738689
0.00217894
0.000762625
0.00205362
0.000794706
0.00191857
0.000833637
0.0017746
0.000877618
0.00162378
0.000924294
0.00146721
0.00097267
0.00130599
0.00102075
0.00114235
0.00106744
0.000977621
0.00111324
0.000812273
0.00115817
0.000647
0.00120223
0.000481766
0.00124661
0.000320082
0.00129159
0.000156952
0.0013369
0.00137708
0.00403424
4.76121e-09
0.00403424
4.96261e-09
0.00403424
5.12e-09
0.00403425
4.99812e-09
0.00403425
7.26339e-09
0.00403425
8.33535e-09
0.00403428
1.70099e-08
0.00403434
3.29373e-08
0.00403458
1.03887e-07
0.00403497
1.67829e-07
0.00403646
6.78843e-07
0.00403865
3.08334e-07
0.0040387
5.84059e-06
0.0040466
7.63997e-06
0.00403301
2.52768e-05
0.00402656
4.79846e-05
0.00394183
0.000193463
0.00371818
0.000935291
0.00361221
0.000887078
0.00353888
0.00077792
0.00346973
0.000759661
0.003398
0.000783403
0.00332782
0.000802765
0.00326122
0.000818622
0.00320208
0.000823277
0.00315085
0.000821586
0.00310249
0.000816664
0.00305375
0.000810211
0.00300021
0.000804017
0.00293804
0.000798976
0.00286543
0.000797735
0.00278176
0.000801781
0.00268709
0.000813287
0.00258137
0.000832804
0.00246416
0.000860847
0.00233523
0.000896626
0.00219624
0.000938771
0.00204845
0.000986448
0.00189172
0.00103761
0.0017278
0.00108986
0.00155973
0.00114187
0.00138814
0.00119345
0.00121413
0.00124279
0.00103907
0.00129015
0.000863363
0.00133579
0.0006877
0.00137968
0.000513746
0.00142227
0.000338991
0.00146806
0.000168226
0.00150708
0.0015449
0.00418414
4.37364e-09
0.00418414
4.58298e-09
0.00418414
4.60335e-09
0.00418414
4.3389e-09
0.00418414
6.66568e-09
0.00418414
5.72656e-09
0.00418417
4.96342e-09
0.00418418
8.86851e-09
0.00418431
1.44073e-08
0.00418472
4.36474e-08
0.00418182
6.88674e-08
0.00418499
-5.82132e-07
0.00418625
2.67632e-06
0.00416492
3.68499e-06
0.00417005
2.365e-05
0.0041781
5.25477e-05
0.00409157
0.000227878
0.00384707
0.00106512
0.00375082
0.000990762
0.00369568
0.00084168
0.00364382
0.000815232
0.00358769
0.00083893
0.00353284
0.000858009
0.00348281
0.000870641
0.00343854
0.000871395
0.00339743
0.000867938
0.0033536
0.000864608
0.00330385
0.00086299
0.00324439
0.000864614
0.00317332
0.000870044
0.00308947
0.000881592
0.00299305
0.000899394
0.00288441
0.000925173
0.00276311
0.000958192
0.00263117
0.000998112
0.00248851
0.00104474
0.0023356
0.0010958
0.00217501
0.00115033
0.0020083
0.00120689
0.00183529
0.00126435
0.00165758
0.0013205
0.00147689
0.00137489
0.00129362
0.00142722
0.00110855
0.00147716
0.00092235
0.00152416
0.000735579
0.00156848
0.000548935
0.00161083
0.000365323
0.00165284
0.000178799
0.00169225
0.00172265
0.0043396
3.96155e-09
0.0043396
4.08067e-09
0.0043396
4.21042e-09
0.0043396
4.06536e-09
0.0043396
6.05977e-09
0.0043396
6.33875e-09
0.0043396
1.11305e-08
0.00433962
2.20671e-08
0.0043395
6.91744e-08
0.00433894
1.6044e-07
0.00433666
4.97821e-07
0.00434669
5.57045e-07
0.00433509
2.76024e-06
0.00434583
1.47509e-06
0.00433023
2.67676e-05
0.00433044
5.41042e-05
0.00422913
0.000257612
0.00397834
0.00118993
0.00391016
0.0010806
0.00388681
0.000882329
0.00386044
0.000850921
0.00382619
0.000877376
0.00379152
0.000898443
0.00375736
0.000909005
0.003721
0.000909822
0.00367977
0.00091078
0.00362986
0.000915457
0.00356957
0.000924559
0.00349629
0.000938831
0.00340925
0.000958175
0.00330824
0.000984054
0.00319435
0.00101578
0.0030699
0.00105428
0.00293406
0.00109901
0.00278848
0.00114872
0.00263456
0.00120355
0.00247259
0.00126171
0.00230302
0.00132267
0.00212695
0.00138434
0.00194639
0.00144547
0.00176107
0.00150621
0.00157225
0.00156428
0.00138111
0.00161961
0.00118696
0.00167274
0.000989861
0.00172267
0.000791076
0.00176847
0.000592081
0.00181106
0.000391668
0.00185413
0.000195211
0.00188671
0.0019165
0.00450084
3.53479e-09
0.00450084
3.58149e-09
0.00450084
3.92866e-09
0.00450084
4.1498e-09
0.00450084
4.95e-09
0.00450084
5.76644e-09
0.00450085
1.55266e-08
0.00450083
3.60643e-08
0.0045009
1.17394e-07
0.00450179
1.77377e-07
0.00450023
6.73723e-07
0.00450544
1.43334e-06
0.00448978
3.16885e-06
0.00453645
2.24305e-06
0.00448271
2.78653e-05
0.00444892
6.29308e-05
0.00440266
0.00027018
0.00416254
0.00127104
0.00413333
0.00114034
0.00414605
0.000897463
0.00414391
0.000870257
0.00412676
0.000902193
0.00410269
0.000927773
0.0040711
0.000940978
0.00402918
0.000951097
0.00397478
0.000965313
0.00390684
0.000984069
0.00382575
0.00100759
0.00373072
0.0010358
0.00362305
0.00106868
0.00350403
0.00110704
0.00337416
0.00115014
0.00323553
0.00119833
0.00308861
0.00125129
0.00293402
0.00130829
0.00277206
0.00136924
0.00260393
0.00143243
0.00243046
0.0014983
0.00224996
0.00156575
0.00206386
0.00163171
0.00187378
0.00169701
0.00167826
0.00176112
0.00147804
0.00182146
0.00127454
0.00187803
0.0010674
0.00193137
0.000856101
0.00198092
0.000642425
0.00202576
0.000429107
0.00206755
0.000210295
0.00210328
0.00212432
0.00466807
3.09719e-09
0.00466807
3.08238e-09
0.00466807
3.69606e-09
0.00466807
4.29586e-09
0.00466807
3.34281e-09
0.00466807
2.42287e-09
0.0046681
7.04105e-09
0.00466809
1.81718e-08
0.00466808
6.57759e-08
0.00466799
1.91217e-07
0.00466881
4.3839e-07
0.0046525
8.19367e-07
0.0046788
3.15216e-06
0.00454199
5.03576e-06
0.00465143
2.72495e-05
0.00465142
6.35289e-05
0.00457683
0.000274163
0.00441892
0.00122878
0.00447688
0.00113439
0.00451218
0.000905246
0.00449891
0.000899518
0.00446753
0.000937738
0.00443065
0.000965845
0.00438327
0.000990461
0.00431803
0.00101756
0.00423664
0.00104849
0.00414177
0.00108111
0.00403673
0.00111658
0.00392198
0.00115578
0.00379876
0.00119839
0.00366722
0.00124517
0.00352827
0.00129528
0.00338257
0.00134999
0.0032299
0.00140853
0.00307153
0.00147055
0.00290697
0.00153662
0.00273601
0.00160484
0.00256084
0.0016747
0.00238003
0.00174711
0.0021921
0.00181933
0.00199859
0.0018902
0.00179952
0.0019604
0.00159311
0.0020285
0.00137936
0.00209281
0.0011594
0.00215243
0.000934362
0.00220656
0.000703952
0.00225679
0.000468659
0.0023029
0.000234572
0.0023338
0.00235631
0.00484151
2.66021e-09
0.00484151
2.77311e-09
0.00484151
2.96804e-09
0.00484151
2.83335e-09
0.00484151
1.30674e-09
0.00484151
-5.64509e-10
0.00484151
5.26864e-09
0.00484156
7.83882e-09
0.0048414
5.6442e-08
0.0048419
6.39153e-08
0.00484076
2.53155e-07
0.00484067
-5.66201e-07
0.00484104
5.19499e-06
0.00485796
-1.39611e-06
0.00482188
4.09269e-05
0.00485556
3.70008e-05
0.00480085
0.000227821
0.0048543
0.000976476
0.00500522
0.00104971
0.0049626
0.000985304
0.0048695
0.00100289
0.00479058
0.00102389
0.00471638
0.00104631
0.00463374
0.00107872
0.00453661
0.00111925
0.00442935
0.0011613
0.00431543
0.0012016
0.00419704
0.0012437
0.00407182
0.00128875
0.00394034
0.00133652
0.00380275
0.00138809
0.00365967
0.00144247
0.00351302
0.00150077
0.00336109
0.00156355
0.00320444
0.00162962
0.00304302
0.00169997
0.00287429
0.001774
0.00269907
0.00184965
0.00251867
0.00192716
0.00233109
0.00200655
0.00213611
0.00208531
0.00193377
0.00216331
0.00172331
0.00223947
0.0015034
0.00231321
0.00127287
0.00238357
0.00103165
0.0024484
0.000782651
0.00250604
0.000526541
0.00255835
0.000260179
0.00259726
0.00261324
0.00502139
2.18889e-09
0.00502139
2.42584e-09
0.00502139
2.10015e-09
0.0050214
9.08584e-10
0.0050214
-1.53191e-09
0.00502141
-8.83502e-09
0.0050214
-9.05353e-09
0.00502144
-3.91487e-08
0.00502145
-1.65316e-08
0.00502009
-1.59463e-07
0.00502512
-8.56168e-08
0.00499177
-1.58064e-06
0.00502968
9.53613e-06
0.00492302
-1.715e-05
0.00495469
9.49676e-05
0.00509587
-9.41061e-05
0.00503426
0.00021558
0.00536848
0.000397056
0.00551618
0.000957048
0.00531061
0.00122199
0.00513964
0.00118752
0.00502359
0.00115114
0.00491989
0.00116117
0.00481349
0.00119304
0.0046973
0.00124201
0.00457782
0.00128868
0.00445527
0.00133162
0.00433055
0.00137615
0.00420114
0.00142426
0.0040675
0.00147495
0.00393002
0.00152952
0.00378757
0.00158707
0.00364221
0.00164817
0.00349391
0.00171364
0.00334099
0.00178337
0.00318478
0.00185682
0.00302396
0.00193522
0.00285531
0.00201776
0.00267942
0.00210223
0.00249612
0.00218923
0.00230301
0.00227821
0.00209937
0.00236712
0.00188409
0.00245527
0.00165629
0.00254152
0.00141512
0.00262497
0.0011592
0.00270394
0.000886695
0.00277836
0.000599398
0.00284465
0.000303178
0.00289003
0.00291323
0.00520796
1.69879e-09
0.00520796
1.58036e-09
0.00520797
1.57905e-09
0.00520797
4.50361e-10
0.00520797
-1.60552e-09
0.00520795
-2.29302e-09
0.00520797
-7.31919e-09
0.00520789
4.10948e-09
0.00520794
-1.56461e-08
0.00520738
5.40669e-08
0.00520758
1.22279e-07
0.00520439
-1.14515e-07
0.00521194
2.81566e-06
0.00518579
-2.04143e-06
0.00537206
1.56883e-05
0.0050951
6.25183e-06
0.00522116
9.36511e-05
0.00481679
0.000595671
0.00481571
0.00100048
0.00485239
0.00121764
0.00486005
0.00120903
0.0048429
0.001192
0.00481749
0.00120699
0.0047565
0.00126587
0.00467814
0.00132781
0.00459121
0.00138323
0.00449563
0.00143417
0.00439268
0.00148636
0.00428168
0.00154119
0.00416354
0.00159786
0.00403939
0.0016576
0.00390955
0.00171993
0.00377412
0.00178573
0.00363422
0.00185499
0.00348957
0.00192896
0.00333912
0.00200695
0.00318492
0.00208916
0.00302523
0.00217715
0.00285691
0.00226934
0.00268041
0.00236438
0.00249418
0.00246359
0.00229589
0.00256471
0.00208346
0.00266746
0.00185334
0.00277163
0.00160285
0.00287542
0.00133044
0.00297648
0.00103605
0.00307226
0.000713001
0.00316637
0.000360642
0.00323876
0.00327035
0.00540147
1.2137e-09
0.00540147
9.10292e-10
0.00540147
7.99526e-10
0.00540147
-1.14127e-10
0.00540147
3.21523e-10
0.00540146
4.3105e-10
0.00540145
1.2277e-08
0.00540141
1.65226e-08
0.00540152
5.60375e-08
0.0054007
1.231e-07
0.00540287
1.58195e-07
0.00540077
4.95472e-07
0.00543215
-3.40025e-08
0.00539585
3.06748e-06
0.00545157
1.19478e-06
0.00536415
4.07084e-05
0.00528726
8.9229e-05
0.00517323
0.0005292
0.00492692
0.00126009
0.00478784
0.00138733
0.00481434
0.00121967
0.0048041
0.00122576
0.00477703
0.00125222
0.00472629
0.00132344
0.00465795
0.00139545
0.00458527
0.00145636
0.00450891
0.00151425
0.00442712
0.00157388
0.00433717
0.001636
0.00423976
0.00169992
0.0041355
0.0017661
0.00402452
0.00183462
0.00390734
0.00190602
0.00378392
0.00198084
0.00365454
0.00205982
0.00351866
0.00214325
0.00337601
0.00223132
0.00322746
0.00232488
0.00307152
0.00242437
0.00290672
0.00252816
0.00273153
0.00263818
0.00254176
0.00275405
0.00233479
0.00287411
0.00210847
0.00299746
0.00185882
0.0031246
0.00157607
0.00325917
0.001255
0.00339326
0.00088987
0.00353096
0.000473639
0.00365203
0.00374026
0.00560216
5.99569e-10
0.00560216
5.11439e-10
0.00560216
4.49288e-10
0.00560216
9.97534e-10
0.00560215
3.37534e-09
0.00560215
9.92483e-09
0.00560209
3.00556e-08
0.00560215
3.95635e-08
0.00560206
1.55373e-07
0.00560157
1.17268e-07
0.00560132
3.46824e-07
0.00560312
6.16002e-07
0.00560899
6.26652e-08
0.00558765
6.13474e-06
0.00561523
-2.04005e-06
0.00558167
5.5715e-05
0.0055393
8.97005e-05
0.00554713
0.000433584
0.00520951
0.00150616
0.00508254
0.00150979
0.00501883
0.00131707
0.00496305
0.00129535
0.00488726
0.00133718
0.00482167
0.00139033
0.00475155
0.00146397
0.00467716
0.00153137
0.00459709
0.00159501
0.00451404
0.00165889
0.00442895
0.00172418
0.00434124
0.00179178
0.00424977
0.00186214
0.00415348
0.00193532
0.00405192
0.0020115
0.00394502
0.00209089
0.00383241
0.00217439
0.00371322
0.00226287
0.00358849
0.00235554
0.00345875
0.00245349
0.00332194
0.00255996
0.00317462
0.0026744
0.00301663
0.00279522
0.00284533
0.00292419
0.00265764
0.00306079
0.00244719
0.00320703
0.00220838
0.00336252
0.0019373
0.00352953
0.00161284
0.00371777
0.00121107
0.00393258
0.000694547
0.0041663
0.00443148
0.00581031
7.18717e-11
0.00581031
2.39013e-10
0.00581031
5.00536e-10
0.00581031
1.82361e-09
0.00581031
3.79831e-09
0.0058103
1.24876e-08
0.00581032
1.51177e-08
0.00581028
7.48873e-08
0.0058104
5.01006e-08
0.0058101
3.07057e-07
0.0058099
3.49407e-07
0.00581058
1.08805e-06
0.00583637
-1.64113e-06
0.005805
1.69931e-05
0.00582948
-2.15337e-05
0.00574774
0.000129403
0.00579884
2.12947e-05
0.00562649
0.000531694
0.00543082
0.00156089
0.00540435
0.00153308
0.00530384
0.00142587
0.00521393
0.00138933
0.00512522
0.00142591
0.00503732
0.0014774
0.00495612
0.00154414
0.00487471
0.00161305
0.00479065
0.00167943
0.00470332
0.00174668
0.0046131
0.0018152
0.00452203
0.00188506
0.00443091
0.00195715
0.00433918
0.00203163
0.00424604
0.00210947
0.00415026
0.002191
0.00405306
0.00227518
0.00395431
0.00236445
0.00384854
0.00246228
0.00373429
0.00256711
0.0036153
0.00267747
0.00349195
0.00279612
0.00336178
0.00292418
0.00322278
0.00306266
0.00306932
0.0032139
0.00289966
0.00337653
0.00270189
0.00356033
0.00246798
0.00376317
0.00218743
0.00399868
0.00181567
0.00430465
0.00129412
0.00468558
0.00572225
0.00840003
1.87159e-12
0.00840003
4.59572e-11
0.00840003
1.31829e-10
0.00840003
4.85887e-10
0.00840003
8.55676e-10
0.00840004
2.64136e-09
0.00840005
2.0208e-09
0.00840011
1.34162e-08
0.00840011
7.98685e-09
0.00840009
6.27026e-08
0.00840135
1.10625e-07
0.00839528
2.13919e-07
0.00840325
7.18149e-07
0.00830809
5.09415e-06
0.00837106
6.73763e-06
0.00844255
3.8654e-05
0.00834084
9.75591e-05
0.00850497
0.000298121
0.00835411
0.00153917
0.00815384
0.00172215
0.00795585
0.00162192
0.00776206
0.00158072
0.00759063
0.0015934
0.00742794
0.00163637
0.00727656
0.00169186
0.00713242
0.00175435
0.00699161
0.00181743
0.00685426
0.00188145
0.00671951
0.00194753
0.0065879
0.00201542
0.00646082
0.00208546
0.00633762
0.00215826
0.00621902
0.00223234
0.00610438
0.00230884
0.00598933
0.00239289
0.00587272
0.00248269
0.00575923
0.00257732
0.00565007
0.00267771
0.00554147
0.00278762
0.00543429
0.00290418
0.00532706
0.00303075
0.00522269
0.00316617
0.00512365
0.00331182
0.00502919
0.00346978
0.00495565
0.00363368
0.00490495
0.00381436
0.00491824
0.00398607
0.005094
0.00413127
0.00557998
0.00420069
0.00383134
0.00746915
0.00840003
5.29414e-12
0.00840003
1.62049e-11
0.00840003
8.60214e-11
0.00840003
1.53623e-10
0.00840003
6.12457e-10
0.00840005
7.35433e-10
0.00840002
5.89887e-09
0.00840001
1.0029e-08
0.0084003
1.31514e-08
0.0084001
3.50216e-08
0.00840126
-5.00118e-09
0.00839808
-3.522e-07
0.0084038
1.35681e-06
0.00842708
2.53798e-06
0.00839627
1.17576e-05
0.00842154
2.46564e-05
0.00837951
9.50764e-05
0.00833135
0.000270586
0.00820671
0.00151001
0.00809926
0.00182971
0.00793683
0.00178515
0.0077871
0.00172708
0.00763638
0.00173994
0.00749422
0.00177569
0.00736037
0.00182411
0.00723257
0.00188089
0.00710963
0.00193804
0.0069923
0.00199639
0.0068804
0.00205753
0.00677289
0.00212149
0.00667218
0.00218696
0.00657888
0.00225355
0.00648928
0.00232466
0.00640064
0.00240109
0.00631823
0.0024803
0.00624318
0.00256199
0.0061737
0.00264976
0.00611055
0.00274291
0.00605698
0.00284213
0.00601221
0.002949
0.00598412
0.00305887
0.00597151
0.00317884
0.00598564
0.00329759
0.00603323
0.00342148
0.00612847
0.00353783
0.00630629
0.00363622
0.00657763
0.00371525
0.0069989
0.00371133
0.00753648
0.00366631
0.0032559
0.00811533
0.00840003
2.58577e-12
0.00840003
8.88302e-12
0.00840003
4.86406e-11
0.00840003
1.22959e-10
0.00840003
4.10858e-10
0.00840004
7.46604e-10
0.00840003
5.41675e-09
0.00840004
7.26494e-09
0.00839993
5.52568e-08
0.00840016
1.05359e-07
0.00839879
3.09197e-07
0.00839765
8.30192e-07
0.00839244
3.86746e-07
0.00845629
-2.09567e-07
0.0084042
8.2161e-06
0.00839607
1.44885e-05
0.00839378
8.93569e-05
0.00834187
0.000270312
0.00816406
0.00153644
0.0079962
0.00200716
0.00783631
0.00194763
0.00769298
0.00186607
0.00757371
0.00185513
0.00747101
0.00187604
0.00737152
0.00192316
0.00727722
0.00197553
0.00718888
0.00202723
0.00710576
0.00208035
0.00702936
0.00213641
0.00695962
0.00219438
0.00689415
0.00225597
0.00682949
0.00232289
0.00676853
0.00239128
0.006716
0.00245932
0.00667245
0.00252988
0.00663596
0.00260373
0.0066106
0.00267946
0.00659578
0.00276066
0.00659695
0.00284292
0.00661497
0.00293166
0.00665347
0.00302085
0.00672234
0.00311065
0.00681946
0.00320155
0.00696311
0.00327901
0.00714728
0.00335461
0.00739367
0.00339086
0.00769519
0.00341498
0.00804111
0.00336723
0.00844032
0.00326966
0.00302427
0.00867541
0.00840003
4.02391e-12
0.00840003
1.54976e-11
0.00840003
6.97555e-11
0.00840003
1.20593e-10
0.00840003
3.94377e-10
0.00840004
9.50739e-10
0.0084
1.68707e-09
0.00840009
2.93489e-09
0.00840004
1.87624e-08
0.00840019
1.67352e-08
0.00839998
1.86133e-07
0.00839836
4.34548e-07
0.00839312
1.15669e-06
0.0084214
1.46386e-06
0.00836615
8.53e-06
0.00853776
8.81887e-06
0.00838554
0.000112763
0.00827617
0.000259645
0.00823411
0.00145144
0.00800216
0.00225339
0.00780749
0.00215911
0.00773136
0.0019603
0.00765182
0.00195144
0.00757617
0.00196774
0.00750166
0.00201264
0.00742941
0.00206226
0.00736182
0.00210907
0.00730087
0.00215532
0.00724785
0.00220286
0.00720134
0.00225466
0.00716094
0.00231253
0.00712679
0.00237254
0.0070973
0.0024333
0.00707153
0.00249527
0.00705313
0.00255701
0.00704419
0.00261917
0.00704758
0.00268143
0.00706717
0.00274455
0.00710452
0.00280834
0.007167
0.00287126
0.00725227
0.00293701
0.00736976
0.00299421
0.00751727
0.00305523
0.00770277
0.00309481
0.00792312
0.00313591
0.0081762
0.00313931
0.00845929
0.00313389
0.00875295
0.0030757
0.00906078
0.00296429
0.00284064
0.00924822
0.00840003
5.30265e-12
0.00840003
-1.30177e-13
0.00840003
6.71458e-11
0.00840003
9.64748e-12
0.00840003
4.45765e-10
0.00840003
4.63788e-11
0.00840002
4.55376e-09
0.00840005
-1.50122e-10
0.00839997
5.26358e-08
0.00839988
1.14428e-08
0.00839979
3.02197e-07
0.00840119
4.15941e-07
0.00839629
1.13353e-06
0.00846362
-7.27357e-07
0.00839646
1.9141e-05
0.00846837
-8.57427e-06
0.00837527
0.000159232
0.0084263
0.000125676
0.00884398
0.000864542
0.008449
0.00266071
0.00823228
0.00240495
0.0080943
0.00212435
0.00800138
0.00205895
0.00789695
0.0020793
0.00781356
0.00210247
0.00773658
0.00214533
0.00766596
0.00218549
0.00760398
0.00222296
0.0075511
0.00226187
0.00750896
0.00230435
0.00748088
0.0023503
0.00746318
0.00239999
0.00745556
0.0024514
0.00745642
0.00250454
0.00746347
0.00255775
0.00747919
0.00260924
0.0075047
0.00266061
0.00754487
0.00270849
0.00760091
0.00275588
0.00767865
0.0027972
0.00778094
0.0028385
0.00790976
0.00286874
0.00806796
0.00289969
0.00825374
0.00291126
0.00846949
0.00292211
0.00870576
0.00290503
0.00896194
0.00287969
0.00924389
0.00279623
0.00947246
0.00273832
0.00261804
0.00969823
0.00840003
1.52209e-12
0.00840003
6.04122e-13
0.00840003
1.51446e-11
0.00840003
-1.02686e-13
0.00840003
1.21229e-10
0.00840003
-8.26567e-11
0.00840004
7.39763e-10
0.00840004
9.44043e-10
0.00840012
1.24045e-08
0.00840007
1.23401e-08
0.00840027
8.8794e-08
0.00840027
8.6836e-08
0.00840172
-9.4712e-08
0.00839381
1.45557e-06
0.00842499
5.71135e-06
0.00836189
1.56016e-05
0.00849258
5.12058e-05
0.00840028
0.000172977
0.00868329
0.000500415
0.00881252
0.00241487
0.00872382
0.00249924
0.00851332
0.00235392
0.0083555
0.00222843
0.00824241
0.00219421
0.0081435
0.00220202
0.00805745
0.00222941
0.00798253
0.00225679
0.00791854
0.00228302
0.00786589
0.00231062
0.00782629
0.00234104
0.00780091
0.00237458
0.0077909
0.00241115
0.00779527
0.00245085
0.00781455
0.00249073
0.00784426
0.00253304
0.00788545
0.00257194
0.00793758
0.00261241
0.00800262
0.00264704
0.00808005
0.00268233
0.00817239
0.00270856
0.00828083
0.00273403
0.00840679
0.00274677
0.00855394
0.00275656
0.00871906
0.00275
0.00890733
0.00273706
0.00910899
0.00270597
0.00934018
0.00265062
0.0095414
0.00259735
0.00975873
0.00252335
0.0024198
0.00995936
0.00840003