/*--------------------------------*- C++ -*----------------------------------*\
| =========                 |                                                 |
| \\      /  F ield         | OpenFOAM: The Open Source CFD Toolbox           |
|  \\    /   O peration     | Version:  2112                                  |
|   \\  /    A nd           | Website:  www.openfoam.com                      |
|    \\/     M anipulation  |                                                 |
\*---------------------------------------------------------------------------*/
FoamFile
{
    version     2.0;
    format      ascii;
    arch        "LSB;label=32;scalar=64";
    class       volScalarField;
    location    "8.5005";
    object      T;
}
// * * * * * * * * * * * * * * * * * * * * * * * * * * * * * * * * * * * * * //

dimensions      [0 0 0 1 0 0 0];

internalField   nonuniform List<scalar> 
7000
(
1
1
1
1
1.00001
1.00007
1.00012
1.0008
1.00133
1.00504
1.00781
1.0236
1.05234
1.1203
1.37228
2.01122
2.51725
2.73295
2.71892
2.68752
2.68549
2.69098
2.70141
2.71097
2.72036
2.72918
2.73629
2.74382
2.74844
2.75349
2.75794
2.75944
2.76078
2.76017
2.76248
2.76612
2.77121
2.77643
2.77996
2.78242
2.78352
2.78459
2.7854
2.78731
2.78885
2.78869
2.78753
2.78462
2.775
2.79498
1
1
1
1
1.00001
1.00007
1.00012
1.00079
1.0013
1.00488
1.00762
1.02252
1.05077
1.1192
1.35667
1.99177
2.49539
2.72936
2.71179
2.69103
2.69157
2.69761
2.70733
2.71702
2.72649
2.73503
2.74124
2.74829
2.75267
2.75726
2.76096
2.76168
2.76292
2.76262
2.7657
2.7697
2.77411
2.77771
2.78013
2.78187
2.7835
2.78512
2.78661
2.78928
2.79103
2.79072
2.78911
2.78496
2.77651
2.79605
1
1
1
1
1.00001
1.00006
1.00012
1.00076
1.00125
1.0047
1.0074
1.02118
1.04993
1.11833
1.34954
1.98738
2.48183
2.72772
2.71023
2.69448
2.69369
2.69919
2.70808
2.71792
2.72779
2.73575
2.74164
2.74777
2.75191
2.75683
2.75965
2.76004
2.76097
2.7611
2.76531
2.76976
2.77465
2.77847
2.78046
2.78183
2.78262
2.78407
2.78557
2.78826
2.79024
2.79025
2.78905
2.7847
2.77714
2.79779
1
1
1
1
1.00001
1.00006
1.00012
1.00073
1.00119
1.00446
1.00709
1.0197
1.04847
1.11724
1.3389
1.97595
2.45855
2.72304
2.70732
2.6998
2.6964
2.70132
2.70993
2.71991
2.73002
2.73692
2.74205
2.74791
2.75175
2.75675
2.75921
2.75946
2.76073
2.76132
2.76629
2.77079
2.77579
2.77861
2.77962
2.78053
2.78128
2.78356
2.78534
2.78774
2.78932
2.78901
2.78782
2.78275
2.77729
2.79809
1
1
1
1
1.00001
1.00006
1.00011
1.00068
1.00111
1.00415
1.00669
1.01788
1.04695
1.11517
1.3309
1.96319
2.43618
2.72031
2.70744
2.70419
2.69814
2.70253
2.71137
2.72059
2.73047
2.73682
2.74161
2.7472
2.75091
2.75528
2.75677
2.75705
2.75843
2.76031
2.76606
2.7704
2.77522
2.77755
2.77842
2.77927
2.78044
2.78262
2.78483
2.78688
2.78738
2.78692
2.78547
2.7816
2.77696
2.79919
1
1
1
1
1.00001
1.00005
1.0001
1.00062
1.00101
1.00377
1.0062
1.01569
1.0452
1.11178
1.32443
1.93601
2.41644
2.7182
2.71031
2.70545
2.6998
2.7042
2.71334
2.72134
2.73061
2.73629
2.74076
2.74637
2.74947
2.75312
2.75383
2.75437
2.75687
2.75998
2.76605
2.77031
2.77401
2.77592
2.77669
2.77762
2.77927
2.78139
2.78384
2.78643
2.78677
2.78565
2.78401
2.77723
2.77714
2.79789
1
1
1
1
1.00001
1.00005
1.00009
1.00055
1.00089
1.00333
1.00562
1.01341
1.04311
1.10724
1.31806
1.90182
2.39625
2.71638
2.71482
2.70593
2.70209
2.70603
2.71484
2.72166
2.73027
2.73493
2.73981
2.74496
2.74709
2.74988
2.74975
2.75169
2.75533
2.75984
2.76608
2.76936
2.77251
2.77328
2.77471
2.77583
2.77824
2.78067
2.7826
2.7845
2.78475
2.78396
2.78148
2.7769
2.77544
2.79907
1
1
1
1
1
1.00004
1.00007
1.00047
1.00076
1.00282
1.00496
1.01082
1.04098
1.10159
1.31176
1.8587
2.3784
2.71455
2.7162
2.70973
2.70456
2.70748
2.71541
2.72134
2.72895
2.73365
2.73807
2.74247
2.74305
2.74502
2.74594
2.74939
2.75485
2.75938
2.76502
2.76739
2.77034
2.77131
2.77224
2.77364
2.77536
2.77875
2.78215
2.78357
2.78321
2.78201
2.78075
2.77268
2.77654
2.79579
1
1
1
1
1
1.00003
1.00006
1.00039
1.00062
1.00226
1.00426
1.00805
1.03881
1.0956
1.30393
1.81006
2.36015
2.71021
2.71938
2.7129
2.70594
2.70777
2.715
2.71989
2.72736
2.73164
2.73497
2.7376
2.73818
2.74025
2.74352
2.74811
2.75413
2.75892
2.76354
2.76606
2.76733
2.76813
2.76923
2.77161
2.77324
2.77586
2.77968
2.78144
2.78085
2.77902
2.7757
2.77087
2.77226
2.7971
1
1
1
1
1
1.00003
1.00004
1.00031
1.00049
1.00173
1.00362
1.0054
1.0363
1.08929
1.29338
1.75569
2.33972
2.70308
2.72267
2.71638
2.70621
2.7072
2.71352
2.7178
2.72479
2.72752
2.7293
2.7317
2.73329
2.73732
2.74216
2.74861
2.7538
2.7582
2.76029
2.76168
2.76368
2.76379
2.7639
2.76691
2.77135
2.77427
2.7776
2.77953
2.77912
2.77743
2.77462
2.76547
2.77326
2.7909
1
1
1
1
1
1.00002
1.00005
1.00028
1.0005
1.0015
1.00354
1.00607
1.03177
1.08336
1.27978
1.7009
2.30667
2.69797
2.7283
2.72006
2.70484
2.70537
2.71093
2.71432
2.71904
2.72076
2.72311
2.72713
2.73112
2.73723
2.74198
2.74784
2.75092
2.75402
2.75665
2.75691
2.75863
2.76089
2.76299
2.7644
2.76791
2.77147
2.77408
2.77546
2.77524
2.77349
2.77021
2.76405
2.76564
2.7923
1
1
1
1
1
1.00002
1.00005
1.00029
1.00047
1.00169
1.00352
1.00551
1.03158
1.07345
1.26229
1.63638
2.2714
2.6953
2.73385
2.72268
2.70212
2.70122
2.70479
2.70676
2.7118
2.7159
2.72041
2.72603
2.73077
2.73669
2.74069
2.74564
2.74827
2.74952
2.75182
2.75268
2.75386
2.75484
2.75776
2.76172
2.76428
2.76831
2.77126
2.77095
2.76954
2.76818
2.76526
2.75746
2.76687
2.78226
1
1
1
1
1
1.00002
1.00005
1.00027
1.00044
1.00142
1.0035
1.00354
1.03042
1.06732
1.24124
1.57607
2.21492
2.68367
2.73898
2.7243
2.69539
2.6934
2.69587
2.70206
2.71017
2.71529
2.72071
2.72565
2.73051
2.73562
2.73878
2.74167
2.74387
2.7452
2.74673
2.74784
2.75044
2.75162
2.75256
2.75686
2.7603
2.76214
2.7655
2.76783
2.76677
2.76357
2.75985
2.75341
2.75456
2.78191
1
1
1
1
1
1.00002
1.00004
1.00021
1.00041
1.00106
1.00327
1.00265
1.02715
1.06429
1.21543
1.51608
2.13875
2.67208
2.7424
2.71911
2.6873
2.68805
2.69532
2.7028
2.71092
2.71545
2.7204
2.72494
2.72864
2.7321
2.73362
2.73579
2.73647
2.73802
2.74015
2.74135
2.74422
2.7474
2.74795
2.75009
2.75339
2.75501
2.75563
2.7567
2.75747
2.75694
2.75226
2.74548
2.7541
2.76924
1
1
1
1
1
1.00002
1.00005
1.00019
1.00041
1.00092
1.0027
1.00245
1.02374
1.05564
1.19585
1.45314
2.0591
2.64478
2.74173
2.71928
2.69038
2.68859
2.69657
2.70262
2.70996
2.71263
2.71613
2.71812
2.72009
2.72304
2.7249
2.72816
2.73035
2.7315
2.73414
2.73521
2.73654
2.74046
2.74372
2.74572
2.74913
2.7514
2.75263
2.752
2.74977
2.74736
2.74435
2.73694
2.73844
2.76512
1
1
1
1
1
1.00002
1.00004
1.00016
1.00034
1.00089
1.00229
1.0029
1.02035
1.0473
1.17194
1.40739
1.95535
2.61478
2.75201
2.72722
2.69776
2.69064
2.6985
2.7026
2.7087
2.70956
2.71094
2.71242
2.71361
2.71645
2.71807
2.72062
2.72405
2.72609
2.72823
2.73099
2.73107
2.73141
2.73387
2.73513
2.73612
2.7381
2.73975
2.74108
2.74048
2.7372
2.73162
2.72599
2.73163
2.7459
1
1
1
1
1.00001
1.00002
1.00008
1.00015
1.00046
1.00112
1.00168
1.00875
1.00324
1.05739
1.12021
1.47708
2.12682
2.61185
2.74019
2.72108
2.69388
2.69017
2.69443
2.69915
2.70597
2.70862
2.71103
2.71274
2.71352
2.71496
2.71546
2.71649
2.71752
2.71995
2.72157
2.72425
2.72747
2.72767
2.72846
2.73046
2.73075
2.7304
2.7297
2.72831
2.72639
2.72535
2.72056
2.70844
2.70808
2.73437
1
1
1
1
1.00001
1.00003
1.00005
1.00018
1.00032
1.00098
1.00137
1.0077
1.00234
1.04918
1.1161
1.40833
2.05214
2.55865
2.71708
2.70171
2.67141
2.66983
2.6728
2.67769
2.68813
2.69844
2.70607
2.70999
2.71214
2.71397
2.7141
2.71389
2.71352
2.71338
2.7135
2.71395
2.71513
2.71658
2.71652
2.71721
2.71741
2.71762
2.71658
2.7152
2.7115
2.70352
2.7003
2.69135
2.69078
2.69923
1
1
1
1
1.00001
1.00002
1.00007
1.00015
1.0003
1.00092
1.00127
1.00696
1.00281
1.0441
1.11146
1.35744
1.98711
2.45406
2.70419
2.68594
2.6712
2.66366
2.66522
2.66993
2.67746
2.68444
2.69274
2.70114
2.7072
2.71051
2.71166
2.71158
2.7112
2.71065
2.7097
2.70926
2.70938
2.7092
2.70848
2.70724
2.70499
2.70206
2.7002
2.69577
2.69381
2.6861
2.672
2.65515
2.64658
2.6626
1
1
1
1
1.00001
1.00001
1.00003
1.00011
1.00018
1.00082
1.00101
1.00647
1.00225
1.03841
1.09725
1.31636
1.86637
2.37986
2.68954
2.68535
2.67535
2.66304
2.66333
2.66705
2.67249
2.67715
2.68179
2.68601
2.69144
2.69674
2.70028
2.70247
2.70291
2.7026
2.70176
2.69969
2.69767
2.69668
2.69595
2.69447
2.69254
2.68797
2.68199
2.6759
2.66381
2.65754
2.64214
2.61354
2.58551
2.51793
1
1
1
1
1
1
1.00002
1.00003
1.00018
1.0003
1.00155
1.00167
1.01107
1.01845
1.09231
1.2216
1.68974
2.48601
2.68855
2.69825
2.68831
2.67271
2.66926
2.67311
2.67668
2.67947
2.68156
2.68325
2.68513
2.68787
2.69006
2.69135
2.69163
2.69111
2.69037
2.68878
2.68651
2.68266
2.67825
2.67415
2.66846
2.66413
2.65451
2.64499
2.63007
2.60364
2.5812
2.53043
2.46618
2.37186
1
1
1
1
1
1
1.00002
1.00005
1.00018
1.00027
1.00145
1.0012
1.00983
1.01023
1.07834
1.18816
1.63282
2.42482
2.6677
2.71099
2.69722
2.68028
2.67456
2.67807
2.68003
2.68163
2.68193
2.68227
2.68275
2.68375
2.68486
2.68477
2.68412
2.68273
2.6789
2.67593
2.66958
2.66586
2.65818
2.65259
2.64504
2.63488
2.62642
2.6091
2.59476
2.56624
2.52689
2.48099
2.38603
2.31471
1
1
1
1
1
1
1.00002
1.00003
1.0002
1.00035
1.00177
1.00066
1.01071
1.00417
1.06756
1.16126
1.57278
2.31909
2.62271
2.70787
2.69386
2.67767
2.67361
2.67713
2.67912
2.68
2.6796
2.67878
2.6778
2.67674
2.67633
2.67575
2.67465
2.67313
2.67018
2.66529
2.66074
2.65168
2.64511
2.63153
2.62333
2.60673
2.59271
2.57435
2.54953
2.528
2.48385
2.449
2.37246
2.32322
1
1
1
1
1
1
1.00001
1.00002
1.00013
1.00019
1.00113
1.00142
1.0103
1.00394
1.06082
1.13149
1.50607
2.19308
2.56857
2.70568
2.6907
2.67228
2.66498
2.66723
2.66857
2.66875
2.66796
2.66633
2.66349
2.6608
2.65701
2.65332
2.651
2.64994
2.64931
2.6478
2.64558
2.64026
2.63348
2.62391
2.60845
2.59613
2.57202
2.55546
2.52193
2.5002
2.45804
2.42508
2.37264
2.33311
1
1
1
1
1
1
1.00001
1.00002
1.00012
1.00022
1.0011
1.00111
1.0084
1.00198
1.04734
1.11154
1.38523
1.99996
2.46862
2.6629
2.64365
2.63375
2.6292
2.63164
2.63659
2.64079
2.6422
2.64202
2.64121
2.63908
2.63544
2.6307
2.62666
2.62167
2.61859
2.61632
2.61436
2.61267
2.60877
2.60444
2.59379
2.58431
2.56334
2.54862
2.51792
2.4963
2.45832
2.42748
2.3819
2.34528
1
1
1
1
1
1
1
1.00002
1.00003
1.00019
1.00031
1.00184
1.00121
1.01308
1.02177
1.10417
1.24756
1.72662
2.52302
2.67475
2.6669
2.64565
2.62921
2.62497
2.62778
2.62932
2.63093
2.63089
2.63056
2.62861
2.62587
2.62153
2.61611
2.60971
2.602
2.59646
2.58915
2.58452
2.57701
2.57242
2.56299
2.5567
2.54244
2.53226
2.51031
2.49226
2.46266
2.43508
2.40238
2.37079
1
1
1
1
1
1
1
1.00003
1.00002
1.00025
1.00041
1.0021
1.00195
1.00919
1.0075
1.07914
1.19348
1.63933
2.41666
2.64776
2.68545
2.67173
2.65088
2.63801
2.6378
2.63684
2.63503
2.63357
2.63141
2.62793
2.62344
2.61986
2.61333
2.608
2.59837
2.59177
2.58076
2.57354
2.56093
2.55304
2.53949
2.5307
2.51676
2.50525
2.49025
2.47459
2.45727
2.43466
2.4112
2.38704
1
1
1
1
1
1
1
1.00001
1.00001
1.00014
1.00022
1.00126
1.00155
1.01122
1.00425
1.06607
1.15914
1.54201
2.26647
2.58103
2.6886
2.67344
2.66106
2.64977
2.64536
2.64244
2.63966
2.6369
2.63208
2.62868
2.62249
2.61881
2.61152
2.60651
2.5971
2.59048
2.5798
2.57157
2.55933
2.5487
2.5348
2.52192
2.50747
2.4929
2.4777
2.46134
2.4447
2.42728
2.40885
2.3904
1
1
1
1
1
1
1
1.00001
1.00001
1.00011
1.00016
1.00089
1.00123
1.00924
1.00367
1.05227
1.11637
1.42238
2.05428
2.49372
2.65337
2.63093
2.62453
2.61802
2.61947
2.62278
2.62516
2.62469
2.6226
2.62011
2.61409
2.61028
2.60252
2.59694
2.5889
2.5822
2.57382
2.56671
2.55697
2.547
2.5352
2.52211
2.50876
2.4937
2.47873
2.46243
2.44618
2.42933
2.41171
2.39544
1
1
1
1
1
1
1
1.00001
1.00004
1.00003
1.00038
1.00064
1.00317
1.00273
1.0121
1.01878
1.10432
1.25122
1.72846
2.50995
2.65276
2.64739
2.63148
2.61564
2.61044
2.61022
2.61073
2.61024
2.60908
2.60754
2.60398
2.59965
2.59313
2.58698
2.57914
2.57158
2.5633
2.55486
2.54718
2.53869
2.53024
2.52028
2.50873
2.4961
2.48251
2.4682
2.453
2.43747
2.42111
2.40618
1
1
1
1
1
1
1
1
1.00003
1.00003
1.00021
1.00036
1.0018
0.99938
1.00992
1.00678
1.07652
1.18612
1.63646
2.40442
2.62352
2.664
2.65272
2.629
2.61723
2.61347
2.61266
2.61035
2.60702
2.60422
2.60038
2.59577
2.58993
2.58389
2.57666
2.56893
2.56087
2.55216
2.54326
2.53425
2.52494
2.51554
2.50553
2.49517
2.48342
2.47136
2.45857
2.44504
2.43103
2.41786
1
1
1
1
1
1
1
1.00001
1.00001
1.00008
1.00006
1.00079
1.00132
1.00692
1.00661
1.02175
1.04691
1.1644
1.40841
1.90798
2.51347
2.68154
2.66199
2.65285
2.63385
2.6217
2.6159
2.61273
2.60683
2.60142
2.5961
2.59021
2.58392
2.5776
2.57134
2.56422
2.5567
2.54902
2.54094
2.53269
2.52412
2.5151
2.50586
2.49588
2.48579
2.4748
2.46349
2.45142
2.43895
2.42725
1
1
1
1
1
1
1
1
1.00001
1.00001
1.00012
1.00021
1.00117
1.00124
1.00853
1.00442
1.04573
1.11484
1.34494
1.95815
2.3589
2.63327
2.62787
2.62991
2.6251
2.61931
2.61431
2.61146
2.60623
2.60034
2.59402
2.58743
2.58038
2.57307
2.56557
2.55786
2.54997
2.54199
2.53411
2.5265
2.5191
2.51174
2.50403
2.49574
2.48733
2.47799
2.46827
2.45794
2.44705
2.43687
1
1
1
1
1
1
1
1
1.00001
1.00003
1.00003
1.00027
1.00043
1.00241
1.00134
1.01298
1.00615
1.08779
1.21401
1.68935
2.45359
2.6217
2.64359
2.63205
2.62039
2.61697
2.61634
2.61526
2.61286
2.60801
2.60145
2.59379
2.58612
2.57786
2.56885
2.5601
2.55136
2.5428
2.53422
2.5261
2.51809
2.51014
2.50304
2.49582
2.48816
2.4802
2.47165
2.46295
2.45352
2.445
1
1
1
1
1
1
1
1
1
1.00002
1.00002
1.00017
1.00026
1.00164
1.00181
1.01303
1.00598
1.07449
1.17293
1.58369
2.34608
2.56845
2.64777
2.63305
2.62136
2.61323
2.61349
2.61378
2.61298
2.61087
2.60632
2.60024
2.59308
2.58521
2.57653
2.56754
2.55803
2.54884
2.53948
2.53037
2.52179
2.51339
2.5055
2.49795
2.49056
2.4831
2.47528
2.46723
2.45873
2.45091
1
1
1
1
1
1
1
1
1.00001
1.00001
1.00006
1.00005
1.00057
1.00091
1.00516
1.00445
1.01751
1.0362
1.13946
1.34443
1.79928
2.47171
2.6678
2.6437
2.62524
2.60523
2.60027
2.60017
2.59966
2.59802
2.59418
2.58961
2.5839
2.57805
2.57144
2.56442
2.55708
2.5492
2.54151
2.53393
2.52664
2.5196
2.51248
2.50517
2.49797
2.49057
2.48312
2.47544
2.46737
2.45998
1
1
1
1
1
1
1
1
1
1.00001
1.00003
1.00002
1.00032
1.00048
1.00271
1.00249
1.01177
1.01191
1.09999
1.24818
1.73528
2.51052
2.66506
2.6621
2.64302
2.61896
2.60938
2.60643
2.60342
2.59946
2.59397
2.58808
2.58199
2.57553
2.56889
2.56189
2.55487
2.54781
2.54086
2.53393
2.52745
2.52113
2.51557
2.50971
2.50423
2.49832
2.49221
2.48581
2.47876
2.47234
1
1
1
1
1
1
1
1
1
1.00001
1.00002
1.00012
1.00009
1.00109
1.00179
1.01018
1.00483
1.03379
1.0751
1.24913
1.63447
2.22066
2.61155
2.67381
2.65631
2.63605
2.62107
2.61613
2.61336
2.60849
2.60183
2.59473
2.58756
2.57944
2.57123
2.5634
2.55594
2.54862
2.54154
2.53451
2.52815
2.52192
2.51641
2.51097
2.50575
2.50065
2.49533
2.49001
2.48419
2.47886
1
1
1
1
1
1
1
1
1
1.00001
1.00001
1.00008
1.00004
1.00074
1.00113
1.00684
1.00442
1.02135
1.0482
1.17918
1.44055
1.94821
2.50927
2.66752
2.64141
2.63029
2.61548
2.60967
2.60683
2.6027
2.59804
2.59256
2.58722
2.58131
2.5748
2.56758
2.55989
2.55216
2.54471
2.5373
2.53057
2.52413
2.51824
2.51279
2.50751
2.50245
2.49735
2.49215
2.48691
2.48191
1
1
1
1
1
1
1
1
1
1
1.00002
1.00001
1.00015
1.00021
1.00124
1.00146
1.00937
1.00325
1.05342
1.11701
1.3943
2.00543
2.42896
2.6558
2.6247
2.61865
2.61101
2.61036
2.61015
2.60811
2.60338
2.59737
2.59139
2.5869
2.58336
2.57928
2.57414
2.56708
2.55937
2.55111
2.54287
2.53522
2.5276
2.52046
2.5137
2.50752
2.50177
2.49608
2.49062
2.48548
1
1
1
1
1
1
1
1
1
1
1.00002
1.00001
1.00012
1.0002
1.00109
1.00128
1.00788
1.00328
1.04181
1.1053
1.32216
1.87634
2.36247
2.63533
2.62702
2.60884
2.5922
2.59075
2.59255
2.59368
2.5931
2.59103
2.58776
2.58556
2.58383
2.58167
2.57929
2.57499
2.5698
2.56304
2.55574
2.54818
2.5406
2.53363
2.52661
2.5197
2.51288
2.50618
2.4999
2.49377
1
1
1
1
1
1
1
1
1
1
1
1.00003
1.00002
1.00023
1.00036
1.0022
1.00224
1.01736
1.00275
1.09316
1.20716
1.67987
2.44072
2.63376
2.65047
2.63025
2.60443
2.59413
2.59274
2.59218
2.59058
2.58802
2.58504
2.58194
2.58009
2.57806
2.5763
2.57339
2.56947
2.56548
2.56009
2.5556
2.54985
2.54477
2.53923
2.53329
2.52782
2.52119
2.5154
2.50911
1
1
1
1
1
1
1
1
1
1
1
1.00002
1.00002
1.00019
1.00024
1.0015
1.00174
1.014
1.00256
1.08072
1.16663
1.59415
2.31858
2.59791
2.68072
2.65922
2.6364
2.61823
2.61063
2.60668
2.60261
2.59822
2.59375
2.58944
2.5859
2.58233
2.57887
2.57501
2.57091
2.56692
2.56238
2.55823
2.5538
2.54959
2.54546
2.54119
2.53708
2.53268
2.5281
2.5239
1
1
1
1
1
1
1
1
1
1
1
1.00002
1.00001
1.00015
1.00016
1.00112
1.00139
1.01088
1.00611
1.06483
1.1396
1.51584
2.22228
2.52675
2.66063
2.64261
2.62621
2.61255
2.60743
2.60509
2.60193
2.59761
2.59304
2.58847
2.58444
2.5804
2.57628
2.57178
2.56698
2.56228
2.55748
2.55311
2.54896
2.54527
2.54171
2.53848
2.53496
2.53173
2.52789
2.52455
1
1
1
1
1
1
1
1
1
1
1.00001
1.00001
1.00005
1.00004
1.00036
1.00055
1.00297
1.00274
1.01495
1.01686
1.11782
1.29833
1.79843
2.54436
2.66658
2.63918
2.62801
2.60724
2.60012
2.59689
2.59512
2.59107
2.58668
2.58268
2.57881
2.57498
2.5709
2.56621
2.56129
2.55573
2.55051
2.54519
2.54027
2.5359
2.53156
2.52816
2.52447
2.52143
2.51822
2.51541
1
1
1
1
1
1
1
1
1
1
1.00001
1.00001
1.00006
1.00005
1.00047
1.00061
1.00391
1.00229
1.02225
1.00703
1.09873
1.25701
1.72964
2.52033
2.67533
2.67081
2.65086
2.62645
2.61552
2.61049
2.60681
2.60227
2.5971
2.59203
2.58717
2.58251
2.57783
2.57274
2.56757
2.56184
2.55637
2.55081
2.54553
2.54071
2.53589
2.5317
2.52742
2.52352
2.51966
2.51619
1
1
1
1
1
1
1
1
1
1
1
1.00001
1.00003
1.00003
1.00024
1.00035
1.00214
1.00225
1.01681
1.00294
1.09432
1.20047
1.67174
2.43852
2.64171
2.68414
2.66767
2.64596
2.63232
2.62669
2.62309
2.6197
2.61582
2.61154
2.60789
2.60354
2.59923
2.59434
2.58875
2.58326
2.5771
2.57134
2.56546
2.55975
2.55449
2.549
2.54409
2.53888
2.53403
2.52945
1
1
1
1
1
1
1
1
1
1
1
1.00002
1.00001
1.00008
1.00005
1.00082
1.00118
1.00793
1.00667
1.02877
1.05496
1.20712
1.50926
2.09716
2.57514
2.68895
2.66449
2.645
2.62699
2.61918
2.616
2.61399
2.61161
2.60847
2.60577
2.60201
2.5984
2.59443
2.58969
2.58536
2.57995
2.57503
2.56976
2.56446
2.55964
2.55448
2.54997
2.54495
2.5403
2.53583
1
1
1
1
1
1
1
1
1
1
1
1.00001
1.00001
1.00009
1.00013
1.00081
1.00111
1.00583
1.00588
1.02046
1.039
1.15139
1.36913
1.8587
2.47213
2.69534
2.66965
2.6454
2.62053
2.61003
2.60565
2.60264
2.59971
2.59644
2.5938
2.59056
2.58768
2.58493
2.58176
2.57935
2.57635
2.57364
2.57022
2.5662
2.56217
2.55721
2.55276
2.54773
2.54307
2.5386
1
1
1
1
1
1
1
1
1
1
1
1
1.00001
1.00003
1.00003
1.00025
1.00037
1.00216
1.0024
1.01666
1.02039
1.12522
1.31669
1.82256
2.57591
2.70408
2.67317
2.64725
2.62359
2.61385
2.61011
2.60727
2.60371
2.59952
2.5956
2.59167
2.5882
2.58512
2.58222
2.57978
2.57735
2.57477
2.57221
2.56907
2.56579
2.56189
2.55781
2.55351
2.54912
2.54506
1
1
1
1
1
1
1
1
1
1
1
1
1.00001
1.00004
1.00004
1.00034
1.00045
1.00268
1.00223
1.0151
1.0122
1.11653
1.27965
1.80074
2.57279
2.70746
2.67051
2.65816
2.63315
2.62405
2.62185
2.6198
2.6157
2.61071
2.60561
2.60083
2.59672
2.59295
2.58971
2.58657
2.58361
2.58061
2.57751
2.5743
2.57078
2.56723
2.56348
2.55978
2.55604
2.55261
1
1
1
1
1
1
1
1
1
1
1
1.00001
1.00001
1.00006
1.00007
1.00052
1.0007
1.00434
1.0023
1.02476
1.00294
1.11051
1.26187
1.76722
2.56971
2.6904
2.68451
2.66389
2.6397
2.62874
2.62566
2.62351
2.6201
2.61611
2.61157
2.60731
2.60304
2.59899
2.59514
2.59125
2.58755
2.58381
2.58016
2.57649
2.57282
2.56916
2.56547
2.56178
2.55811
2.55473
1
1
1
1
1
1
1
1
1
1
1
1
1.00001
1.00004
1.00006
1.00043
1.00059
1.00365
1.00169
1.0223
1.00318
1.10551
1.23868
1.74277
2.52685
2.68254
2.68316
2.66673
2.64264
2.63217
2.62938
2.6274
2.62472
2.62073
2.6163
2.61198
2.60737
2.60317
2.59884
2.59475
2.59079
2.58678
2.58308
2.57921
2.57559
2.57184
2.56822
2.56457
2.56093
2.55761
1
1
1
1
1
1
1
1
1
1
1
1
1.00001
1.00003
1.00002
1.00029
1.00043
1.00263
1.00263
1.01946
1.00538
1.09854
1.2373
1.7035
2.50038
2.66888
2.68626
2.66974
2.64535
2.63458
2.63118
2.62933
2.62654
2.62262
2.61845
2.61394
2.6095
2.60514
2.60074
2.59655
2.59242
2.58845
2.58462
2.58083
2.5772
2.57355
2.57001
2.56644
2.56289
2.55961
1
1
1
1
1
1
1
1
1
1
1
1
1.00001
1.00003
1.00003
1.00027
1.00037
1.00248
1.00255
1.01875
1.00322
1.09716
1.2074
1.68776
2.4631
2.65626
2.68958
2.67271
2.64875
2.63692
2.63294
2.63074
2.62799
2.6242
2.62009
2.61557
2.61111
2.60646
2.60198
2.5975
2.59322
2.58911
2.58514
2.58146
2.57774
2.57439
2.5708
2.56759
2.56402
2.56104
1
1
1
1
1
1
1
1
1
1
1
1.00001
1.00001
1.00008
1.00007
1.00028
1.00035
1.0022
1.00243
1.01683
1.0082
1.08681
1.19828
1.65234
2.43416
2.64762
2.69739
2.67935
2.65525
2.64186
2.63717
2.63472
2.63185
2.62802
2.62406
2.61938
2.61508
2.61014
2.60551
2.60077
2.59612
2.59192
2.58767
2.58405
2.58027
2.57697
2.57346
2.57021
2.56667
2.56352
1
1
1
1
1
1
1
1
1
1
1
1
1.00002
1.00001
1.00014
1.00019
1.00127
1.00161
1.00869
1.00862
1.03075
1.05949
1.2363
1.58865
2.16356
2.61233
2.69409
2.67132
2.64691
2.63068
2.62465
2.62278
2.62029
2.61675
2.61349
2.60887
2.60546
2.60081
2.59695
2.59263
2.5882
2.58407
2.57937
2.57525
2.57078
2.56684
2.56298
2.55933
2.5561
2.55289
1
1
1
1
1
1
1
1
1
1
1
1
1.00001
1.00001
1.00013
1.00015
1.00105
1.00131
1.00726
1.00698
1.02616
1.04857
1.20194
1.49761
2.03952
2.57664
2.70215
2.66954
2.64228
2.61972
2.61036
2.60681
2.6032
2.59885
2.59436
2.5896
2.58597
2.58236
2.57925
2.57658
2.57405
2.572
2.57031
2.56806
2.56614
2.5629
2.55951
2.5552
2.55028
2.5457
1
1
1
1
1
1
1
1
1
1
1
1
1
1.00003
1.00003
1.00021
1.00026
1.00161
1.00185
1.01453
1.00139
1.08577
1.16773
1.63468
2.37802
2.65234
2.71048
2.69152
2.66111
2.64605
2.6403
2.63666
2.63291
2.62863
2.62426
2.62023
2.61604
2.61249
2.60868
2.6055
2.60205
2.59859
2.59505
2.5906
2.58651
2.58129
2.57657
2.57132
2.56618
2.56169
1
1
1
1
1
1
1
1
1
1
1
1
1.00001
1.00001
1.00011
1.00014
1.00099
1.00126
1.00694
1.00658
1.0253
1.04694
1.19666
1.48528
2.0233
2.58134
2.712
2.682
2.65275
2.63018
2.62129
2.61742
2.61374
2.60927
2.60436
2.59946
2.59535
2.59151
2.58876
2.58541
2.58316
2.58029
2.57882
2.57645
2.57505
2.57253
2.56986
2.5662
2.56089
2.55645
2.12468
2.62978
2.80629
3.12378
3.12824
3.07806
3.06521
3.06014
3.05969
3.05749
3.05443
3.0521
3.04989
3.04902
3.04629
3.04499
3.04116
3.03917
3.03557
3.0332
3.03043
3.02754
3.02375
3.0194
3.01488
3.01247
3.00628
2.99944
2.99574
2.98759
2.98235
2.97445
2.96703
2.95908
2.95081
2.94252
2.93402
2.92552
2.91566
2.90558
2.89571
2.886
2.87612
2.86611
2.85613
2.84607
2.83595
2.82593
2.8157
2.80571
2.796
2.78611
2.77664
2.76686
2.75745
2.74791
2.73859
2.72938
2.72022
2.71125
2.70217
2.69366
2.68517
2.67718
2.66975
2.66236
2.65589
2.64956
2.64381
2.63894
2.63405
2.63052
2.62716
2.6248
2.62309
2.62221
2.6224
2.62312
2.62522
2.6269
2.63047
2.63289
2.63766
2.64195
2.64916
2.6551
2.66369
2.67
2.67943
2.6858
2.69583
2.70182
2.71201
2.71759
2.7274
2.73262
2.74142
2.74667
2.75339
2.75882
2.15342
2.42146
2.57692
2.78765
2.95138
3.05472
3.12387
3.16856
3.21277
3.25209
3.2699
3.32207
3.31474
3.27946
3.24506
3.21084
3.16982
3.12392
3.07996
3.04265
3.00569
2.97298
2.94173
2.91502
2.88873
2.86658
2.84513
2.82623
2.80719
2.78947
2.77191
2.75556
2.73958
2.72459
2.71018
2.69653
2.68317
2.66955
2.65565
2.64137
2.62746
2.61367
2.5999
2.5862
2.57264
2.55927
2.54631
2.53376
2.52168
2.51018
2.49919
2.48875
2.47884
2.46936
2.46025
2.45154
2.44295
2.43469
2.42651
2.41885
2.41147
2.40471
2.39827
2.39232
2.38664
2.38108
2.37596
2.37062
2.3657
2.36104
2.3563
2.35196
2.34801
2.34446
2.3411
2.33781
2.33622
2.33371
2.33281
2.33134
2.33045
2.32972
2.32859
2.32902
2.32966
2.33085
2.33157
2.33304
2.33383
2.33516
2.33568
2.3365
2.33666
2.33689
2.33684
2.33673
2.3365
2.33619
2.33639
2.33489
2.2211
2.29441
2.38029
2.44699
2.50486
2.57784
2.64777
2.70598
2.75075
2.79084
2.81726
2.83643
2.83706
2.83399
2.82478
2.81297
2.79553
2.77726
2.75854
2.73908
2.72026
2.70187
2.68497
2.66836
2.6521
2.63596
2.62066
2.60548
2.59071
2.57627
2.5632
2.55161
2.54162
2.53224
2.52357
2.51475
2.50632
2.49697
2.48727
2.47683
2.46657
2.45641
2.44626
2.43597
2.42573
2.41515
2.40439
2.39336
2.38194
2.37033
2.35872
2.34699
2.33558
2.32462
2.31393
2.30439
2.29507
2.28744
2.2799
2.27438
2.26871
2.26487
2.26089
2.25796
2.25543
2.25316
2.25183
2.25017
2.2496
2.24884
2.24863
2.24853
2.24869
2.24912
2.2498
2.25076
2.25205
2.25388
2.25601
2.25845
2.26011
2.26257
2.26389
2.26671
2.26912
2.27158
2.2739
2.27611
2.27794
2.27921
2.28038
2.2809
2.28083
2.28042
2.27973
2.27802
2.27686
2.27377
2.27267
2.26564
2.2598
2.25625
2.28594
2.31394
2.33687
2.36173
2.38674
2.41349
2.43597
2.45465
2.46832
2.47665
2.47936
2.48047
2.48039
2.47979
2.47853
2.47607
2.47408
2.47102
2.46889
2.46595
2.46336
2.46063
2.45844
2.45638
2.45473
2.4528
2.45109
2.44899
2.44722
2.44479
2.44223
2.43856
2.4346
2.42975
2.42481
2.41873
2.4117
2.40355
2.3952
2.38673
2.37834
2.36987
2.36149
2.35294
2.34435
2.33532
2.32603
2.31605
2.30565
2.2946
2.28316
2.27142
2.25954
2.24781
2.23636
2.22544
2.21522
2.20571
2.19702
2.18907
2.18185
2.17523
2.16923
2.16377
2.15873
2.15405
2.14993
2.14632
2.14283
2.1399
2.1381
2.13642
2.13463
2.13413
2.1344
2.13521
2.13743
2.13951
2.1431
2.14671
2.15219
2.1579
2.1649
2.17178
2.17879
2.18534
2.19179
2.19737
2.20295
2.20735
2.21203
2.2148
2.21895
2.22076
2.22385
2.22494
2.22825
2.22738
2.27825
2.25773
2.25187
2.25271
2.25469
2.25762
2.26305
2.27015
2.27857
2.28576
2.29075
2.29332
2.29404
2.29571
2.29877
2.30206
2.30505
2.30828
2.31107
2.31379
2.31662
2.31876
2.32091
2.32212
2.32382
2.32428
2.32485
2.32471
2.32408
2.32296
2.32156
2.31961
2.31739
2.31481
2.31212
2.30963
2.30739
2.30521
2.30255
2.29944
2.29649
2.2935
2.29067
2.28749
2.28428
2.28064
2.27681
2.27256
2.26795
2.26269
2.25688
2.25009
2.24254
2.23401
2.22457
2.21466
2.20414
2.19374
2.1835
2.1736
2.16466
2.15605
2.14878
2.14182
2.13604
2.13047
2.12582
2.12138
2.11752
2.11397
2.11072
2.10786
2.10519
2.10304
2.10137
2.1001
2.09957
2.09959
2.09982
2.10028
2.10058
2.10106
2.10158
2.10254
2.10437
2.10551
2.10803
2.10953
2.11268
2.1143
2.11744
2.11896
2.1218
2.12303
2.12537
2.12643
2.12861
2.12956
2.13261
2.13221
2.30931
2.27597
2.25423
2.23722
2.22395
2.21319
2.2053
2.20062
2.19844
2.19777
2.19808
2.19859
2.19821
2.19719
2.198
2.20036
2.20432
2.20819
2.21301
2.2174
2.22213
2.22637
2.23064
2.23463
2.23811
2.24158
2.24389
2.24694
2.24816
2.24982
2.25055
2.25046
2.25012
2.24938
2.24834
2.24748
2.24655
2.24542
2.24346
2.24052
2.23727
2.23342
2.22966
2.22558
2.22177
2.21786
2.21393
2.21011
2.20614
2.20245
2.19849
2.19415
2.18922
2.18319
2.17662
2.16898
2.16118
2.15272
2.14459
2.1362
2.12859
2.12101
2.11434
2.10791
2.10222
2.09681
2.0919
2.08734
2.08306
2.07922
2.07568
2.07259
2.06989
2.06752
2.06569
2.06403
2.06306
2.06236
2.06236
2.06244
2.06268
2.06326
2.06447
2.0658
2.06854
2.07013
2.07335
2.07533
2.07871
2.08068
2.08385
2.08562
2.08829
2.08968
2.0918
2.09284
2.09462
2.09543
2.0981
2.09733
2.33893
2.30578
2.27765
2.25016
2.22576
2.20588
2.18952
2.17662
2.16692
2.15998
2.15509
2.15201
2.15017
2.14924
2.14876
2.14935
2.15245
2.15735
2.16248
2.16819
2.17314
2.17879
2.18347
2.18892
2.19279
2.19739
2.20057
2.20429
2.20608
2.20868
2.20939
2.21104
2.21089
2.21063
2.21013
2.20967
2.20923
2.2084
2.20686
2.2043
2.20163
2.19858
2.19555
2.19221
2.18889
2.18542
2.18191
2.17842
2.17492
2.17156
2.16816
2.16465
2.16089
2.15653
2.15174
2.14614
2.14009
2.13362
2.12673
2.12009
2.11328
2.10697
2.10095
2.09531
2.09007
2.08511
2.08048
2.07586
2.07161
2.06726
2.0633
2.05932
2.05586
2.05257
2.04986
2.04754
2.04579
2.04469
2.04413
2.04372
2.04375
2.04397
2.04477
2.04564
2.04745
2.04851
2.05068
2.05196
2.05419
2.05552
2.05762
2.05878
2.06052
2.06143
2.06271
2.06339
2.06444
2.06494
2.0669
2.06562
2.35077
2.32655
2.29858
2.27355
2.2466
2.22273
2.19927
2.17998
2.16506
2.15327
2.14468
2.13799
2.13389
2.1314
2.13042
2.13001
2.13013
2.13247
2.13777
2.1415
2.14773
2.15186
2.15829
2.1619
2.16757
2.17107
2.17571
2.17803
2.18158
2.18314
2.18512
2.18545
2.18622
2.18576
2.1852
2.18464
2.1841
2.18319
2.18162
2.17933
2.1766
2.17368
2.17044
2.16698
2.1632
2.15935
2.15528
2.15127
2.14731
2.14345
2.13991
2.13631
2.13288
2.12924
2.12538
2.12139
2.11691
2.11249
2.10766
2.10301
2.09822
2.09382
2.08937
2.08539
2.08141
2.07762
2.07387
2.06998
2.0661
2.06203
2.05791
2.05388
2.04982
2.04614
2.04261
2.03961
2.03696
2.03497
2.03352
2.03191
2.03112
2.02998
2.03006
2.03018
2.03057
2.03092
2.03173
2.03222
2.03325
2.03375
2.03476
2.0352
2.03606
2.03636
2.03701
2.03724
2.03778
2.03808
2.03973
2.03837
2.36063
2.33772
2.31314
2.28695
2.26213
2.237
2.21586
2.19585
2.17838
2.16298
2.15093
2.14117
2.13441
2.12903
2.12609
2.12342
2.12292
2.12183
2.12323
2.12634
2.13122
2.13588
2.14086
2.14562
2.15026
2.15412
2.1582
2.16102
2.16378
2.16528
2.16679
2.16726
2.16746
2.16694
2.16609
2.16525
2.16436
2.16324
2.16142
2.159
2.15621
2.15319
2.15003
2.14657
2.14298
2.13923
2.13537
2.13158
2.12776
2.12396
2.12034
2.11669
2.11321
2.10981
2.10623
2.10291
2.09924
2.09583
2.09219
2.08884
2.08536
2.0823
2.07918
2.07635
2.07359
2.07082
2.06805
2.06514
2.06202
2.05877
2.05538
2.05171
2.04825
2.04454
2.04108
2.03782
2.03484
2.03198
2.03014
2.02745
2.02576
2.02406
2.02296
2.02204
2.02138
2.02081
2.02025
2.01972
2.01928
2.01893
2.01868
2.01846
2.01834
2.01819
2.01823
2.0182
2.01836
2.01858
2.0201
2.01873
2.37499
2.35208
2.32779
2.30152
2.27543
2.25078
2.22705
2.20672
2.18762
2.17222
2.15839
2.14754
2.1379
2.13128
2.1255
2.12204
2.11922
2.11812
2.11714
2.1178
2.12053
2.12502
2.12941
2.1343
2.13841
2.14269
2.14615
2.14906
2.1513
2.15305
2.15412
2.1548
2.15472
2.15435
2.15341
2.15246
2.15147
2.15018
2.1483
2.14585
2.1431
2.14014
2.137
2.13371
2.13019
2.12668
2.12309
2.11939
2.11576
2.11183
2.10806
2.10422
2.10037
2.09668
2.09283
2.08918
2.08544
2.08199
2.07853
2.07544
2.0724
2.06975
2.06724
2.06498
2.06298
2.06094
2.05904
2.05698
2.05469
2.05227
2.04952
2.0465
2.0434
2.03995
2.03663
2.03324
2.0301
2.02707
2.02464
2.02196
2.01969
2.01798
2.01645
2.01514
2.0141
2.01317
2.01232
2.01147
2.01076
2.01019
2.0098
2.00951
2.00946
2.00941
2.00939
2.00944
2.00975
2.01008
2.01178
2.0105
2.38999
2.36872
2.34542
2.32013
2.29414
2.26885
2.24515
2.22261
2.203
2.18466
2.1696
2.15582
2.14517
2.13549
2.12885
2.12292
2.11945
2.11702
2.11595
2.11596
2.1164
2.1191
2.12229
2.12712
2.13074
2.13492
2.13792
2.14102
2.14301
2.1449
2.14597
2.14691
2.14686
2.14667
2.14584
2.14496
2.14408
2.14269
2.14078
2.1383