/*--------------------------------*- C++ -*----------------------------------*\
| =========                 |                                                 |
| \\      /  F ield         | OpenFOAM: The Open Source CFD Toolbox           |
|  \\    /   O peration     | Version:  2112                                  |
|   \\  /    A nd           | Website:  www.openfoam.com                      |
|    \\/     M anipulation  |                                                 |
\*---------------------------------------------------------------------------*/
FoamFile
{
    version     2.0;
    format      ascii;
    arch        "LSB;label=32;scalar=64";
    class       volVectorField;
    location    "8.5005";
    object      U;
}
// * * * * * * * * * * * * * * * * * * * * * * * * * * * * * * * * * * * * * //

dimensions      [0 1 -1 0 0 0 0];

internalField   nonuniform List<vector> 
7000
(
(3 -5.55222e-07 0.000805021)
(3 -1.41541e-06 0.000764325)
(3 -1.83309e-06 0.000723852)
(3 -2.28353e-06 0.000683651)
(2.99999 -1.97386e-06 0.00064376)
(2.99995 -2.5707e-06 0.000604659)
(2.99984 -2.81548e-06 0.000566535)
(2.99955 -3.53793e-06 0.000532331)
(2.99898 1.199e-06 0.000501353)
(2.99734 -3.51888e-06 0.000494955)
(2.99469 2.64104e-05 0.000491227)
(2.98378 -8.81766e-05 0.0007234)
(2.96934 -5.78416e-05 0.000830798)
(2.88988 -0.00248962 0.00308892)
(2.71642 -0.00179587 0.00543761)
(2.26862 -0.00907612 0.0158583)
(1.07236 -0.020679 0.0225167)
(0.461449 -0.0159284 0.00797014)
(0.590252 -0.00592801 -0.00110146)
(0.670827 -0.00643362 -0.00081712)
(0.674546 -0.00724561 1.81195e-05)
(0.655548 -0.00674323 0.000239394)
(0.62775 -0.00503082 0.000246351)
(0.597642 -0.00395231 0.000118039)
(0.571232 -0.00285118 -7.69583e-05)
(0.547116 -0.00163554 -0.000247019)
(0.522757 -0.000403647 -0.000385155)
(0.497098 0.000746773 -0.000511173)
(0.470435 0.00172929 -0.000638346)
(0.443544 0.00245954 -0.000770679)
(0.41711 0.00286403 -0.000905874)
(0.391809 0.00291524 -0.00104214)
(0.368138 0.00263564 -0.00117912)
(0.346491 0.0021281 -0.00131582)
(0.327022 0.0015147 -0.00145414)
(0.309593 0.000936475 -0.00159309)
(0.293951 0.000511651 -0.00173382)
(0.279652 0.000313668 -0.00187617)
(0.266168 0.000386208 -0.0020194)
(0.252916 0.000746266 -0.00216397)
(0.239315 0.00140024 -0.0023094)
(0.224823 0.00234 -0.0024564)
(0.208981 0.00355433 -0.00260455)
(0.191366 0.00503162 -0.00275497)
(0.171618 0.00676586 -0.0029063)
(0.149495 0.00877605 -0.00305737)
(0.124649 0.011154 -0.00320903)
(0.0968504 0.0140908 -0.00336054)
(0.0629255 0.0185574 -0.00350539)
(0.0335925 0.0274749 -0.00369192)
(3 -5.79092e-07 0.000777211)
(3 -1.41487e-06 0.000737869)
(3 -1.88974e-06 0.000698749)
(3 -2.44041e-06 0.000659894)
(2.99999 -1.6331e-06 0.000621348)
(2.99995 -1.87465e-06 0.00058356)
(2.99985 4.13921e-07 0.000546684)
(2.99956 7.65355e-06 0.000513504)
(2.99901 3.64597e-05 0.00048332)
(2.99741 8.5364e-05 0.000476324)
(2.99487 0.000243678 0.000470891)
(2.98417 0.00045866 0.000691208)
(2.96987 0.000752874 0.000796587)
(2.89348 -0.00086299 0.00287913)
(2.72635 0.0033353 0.00508166)
(2.29104 0.00157335 0.0149712)
(1.10379 0.00607593 0.021846)
(0.480311 0.0260995 0.00792435)
(0.5894 0.0373379 -0.000854641)
(0.664889 0.0279211 -0.000763202)
(0.670277 0.0234819 -7.48057e-06)
(0.652462 0.0226557 0.000211637)
(0.624236 0.0246941 0.000232353)
(0.592754 0.0254561 0.000121242)
(0.565471 0.0259729 -7.01832e-05)
(0.540899 0.0265608 -0.000235963)
(0.516535 0.0272228 -0.000369663)
(0.49139 0.0278102 -0.000491384)
(0.465815 0.0281747 -0.000613976)
(0.44058 0.0281795 -0.000741154)
(0.416269 0.027714 -0.000870718)
(0.393347 0.0267601 -0.00100103)
(0.372039 0.0253648 -0.00113209)
(0.352456 0.0236995 -0.00126308)
(0.334522 0.0219498 -0.00139604)
(0.317967 0.0203327 -0.00152964)
(0.30247 0.0190459 -0.00166452)
(0.287583 0.0182111 -0.00180042)
(0.272822 0.017908 -0.00193747)
(0.257704 0.0181728 -0.00207608)
(0.241785 0.0189997 -0.00221646)
(0.224701 0.0203627 -0.00235841)
(0.206184 0.0222062 -0.00250161)
(0.185993 0.0244805 -0.00264698)
(0.163927 0.0271554 -0.00279248)
(0.139877 0.0302795 -0.00293701)
(0.11356 0.0340173 -0.0030812)
(0.0851159 0.038624 -0.00322356)
(0.0515028 0.0451999 -0.00336027)
(0.0252928 0.0560738 -0.00352963)
(3 -4.46281e-08 0.000748287)
(3 7.1479e-09 0.000710359)
(3 -2.93027e-07 0.00067265)
(3 -7.25781e-07 0.000635198)
(2.99999 -1.66839e-07 0.000598054)
(2.99995 -1.37499e-07 0.000561629)
(2.99985 3.87535e-06 0.000526052)
(2.99958 1.51044e-05 0.000493931)
(2.99905 5.54503e-05 0.000464554)
(2.9975 0.000128362 0.000456972)
(2.99509 0.000341575 0.000449229)
(2.98446 0.000680214 0.000662536)
(2.97038 0.000934867 0.000760736)
(2.8954 -0.0001877 0.0027264)
(2.73108 0.00144565 0.00481756)
(2.30074 -0.00255903 0.014308)
(1.11616 -0.0077945 0.0210292)
(0.486706 0.0123932 0.00772404)
(0.582639 0.03087 -0.000681481)
(0.654657 0.0195453 -0.000698016)
(0.664614 0.0168755 -4.16715e-05)
(0.649577 0.0178861 0.000175271)
(0.622245 0.0219584 0.000210811)
(0.590406 0.0250452 0.000121847)
(0.563266 0.0275745 -6.48985e-05)
(0.53931 0.0299631 -0.000226644)
(0.515907 0.0322927 -0.000355753)
(0.49198 0.0342807 -0.000472422)
(0.467851 0.0356531 -0.000589811)
(0.444223 0.0362031 -0.000711291)
(0.421575 0.0358054 -0.00083436)
(0.400199 0.0345054 -0.000957991)
(0.380126 0.0324756 -0.00108234)
(0.361291 0.0300603 -0.00120711)
(0.3435 0.0276459 -0.00133438)
(0.326484 0.0256178 -0.00146253)
(0.309972 0.0243185 -0.00159227)
(0.293626 0.0239443 -0.00172301)
(0.277119 0.0245987 -0.00185452)
(0.260097 0.026281 -0.00198747)
(0.242231 0.0289066 -0.00212165)
(0.223239 0.0323617 -0.00225761)
(0.20292 0.0365001 -0.0023947)
(0.181111 0.0411975 -0.00253366)
(0.157707 0.0463888 -0.00267273)
(0.132714 0.0521249 -0.00281067)
(0.105911 0.058593 -0.00294781)
(0.0778858 0.0660241 -0.00308183)
(0.0458622 0.0753996 -0.00321076)
(0.0211128 0.0887923 -0.00336963)
(3 -7.73867e-09 0.000718202)
(3 1.29429e-07 0.000681749)
(3 -3.23664e-08 0.000645513)
(3 -2.96544e-07 0.000609524)
(2.99999 1.14022e-07 0.000573837)
(2.99995 8.23697e-07 0.000538825)
(2.99986 7.55402e-06 0.000504592)
(2.9996 2.4654e-05 0.000473542)
(2.9991 8.09434e-05 0.000444959)
(2.99762 0.000184996 0.000436617)
(2.99538 0.000481284 0.00042667)
(2.98491 0.000958064 0.000630374)
(2.97117 0.00151511 0.000722471)
(2.89821 0.00120898 0.00255304)
(2.73852 0.00331584 0.00450484)
(2.31798 0.00268328 0.0134943)
(1.14351 0.00439419 0.0201457)
(0.508364 0.0348906 0.00753912)
(0.581901 0.0539063 -0.000440822)
(0.647177 0.0408249 -0.000594112)
(0.661834 0.0387258 -8.39672e-05)
(0.648641 0.0393762 0.000143038)
(0.621737 0.0424936 0.000190937)
(0.589274 0.0456508 0.000123682)
(0.561918 0.0478826 -5.57256e-05)
(0.538472 0.0498661 -0.000213802)
(0.516084 0.0517945 -0.00033874)
(0.493491 0.0533564 -0.000450619)
(0.470966 0.0542552 -0.000563047)
(0.449118 0.0542934 -0.000679147)
(0.428291 0.0533781 -0.000796174)
(0.408599 0.0515943 -0.000913354)
(0.389895 0.0491664 -0.0010312)
(0.371969 0.0464676 -0.00114963)
(0.354513 0.0439044 -0.00127081)
(0.33722 0.0418538 -0.00139297)
(0.319818 0.0406385 -0.00151697)
(0.302036 0.0404523 -0.0016415)
(0.283666 0.0414122 -0.00176687)
(0.264504 0.0435367 -0.00189393)
(0.244405 0.0467783 -0.00202244)
(0.223261 0.0510385 -0.00215326)
(0.201024 0.0562005 -0.0022846)
(0.177652 0.0621425 -0.00241707)
(0.153114 0.0687912 -0.00254922)
(0.127482 0.0761639 -0.00267991)
(0.100529 0.0844013 -0.00280959)
(0.0731266 0.0936661 -0.00293491)
(0.0427202 0.104655 -0.00305785)
(0.0188355 0.119132 -0.00320698)
(3 1.66903e-08 0.000686907)
(3 2.4757e-07 0.000651993)
(3 3.80269e-07 0.000617291)
(3 4.39675e-07 0.00058283)
(2.99999 8.48266e-07 0.00054866)
(2.99995 2.33007e-06 0.000515113)
(2.99987 1.17596e-05 0.000482273)
(2.99962 3.44237e-05 0.000452313)
(2.99916 0.000106505 0.000424515)
(2.99777 0.000240913 0.000415185)
(2.99574 0.000626402 0.000402657)
(2.98546 0.00125851 0.000596932)
(2.97231 0.00203503 0.00067711)
(2.90088 0.00279431 0.00239617)
(2.74564 0.00381529 0.00420547)
(2.33364 0.00563647 0.0126998)
(1.16749 0.00512094 0.0191806)
(0.528281 0.0425235 0.00732421)
(0.578834 0.0583836 -0.000197279)
(0.638554 0.047295 -0.000483526)
(0.658792 0.0465811 -0.00012781)
(0.647803 0.047701 0.00010951)
(0.622334 0.0510682 0.000162426)
(0.590038 0.0555339 0.000116725)
(0.562638 0.0586972 -4.89998e-05)
(0.539932 0.0614181 -0.0002029)
(0.518727 0.0638554 -0.000323302)
(0.497538 0.0656819 -0.000429727)
(0.476592 0.0666138 -0.000536603)
(0.45642 0.0664835 -0.000646616)
(0.437246 0.0652621 -0.000756966)
(0.419027 0.0631268 -0.000867293)
(0.401485 0.0604072 -0.000978169)
(0.384302 0.0575794 -0.00109022)
(0.367106 0.0551382 -0.00120509)
(0.349569 0.053525 -0.00132095)
(0.331416 0.0530797 -0.00143887)
(0.312409 0.0539765 -0.0015573)
(0.292412 0.0562674 -0.00167681)
(0.271328 0.0598754 -0.00179799)
(0.249143 0.0646654 -0.00192083)
(0.225906 0.0704554 -0.00204547)
(0.20172 0.077088 -0.00217091)
(0.176678 0.0844354 -0.00229661)
(0.150866 0.092447 -0.00242112)
(0.124428 0.10116 -0.00254466)
(0.097166 0.110724 -0.00266669)
(0.070136 0.12122 -0.00278555)
(0.0408863 0.133199 -0.00290157)
(0.0174305 0.148083 -0.00304323)
(3 1.5056e-08 0.00065435)
(3 2.38883e-07 0.00062104)
(3 4.58378e-07 0.00058794)
(3 6.16771e-07 0.000555072)
(2.99999 9.87809e-07 0.000522482)
(2.99996 3.18204e-06 0.000490456)
(2.99988 1.51187e-05 0.000459064)
(2.99966 4.29041e-05 0.000430211)
(2.99924 0.000129541 0.000403197)
(2.99796 0.000291381 0.000392607)
(2.99617 0.000762584 0.000377268)
(2.98614 0.00148876 0.000561197)
(2.97388 0.00265403 0.000623416)
(2.90379 0.00424157 0.0022464)
(2.75403 0.00549289 0.00388121)
(2.35149 0.00982343 0.0118574)
(1.19571 0.0127076 0.0182014)
(0.55138 0.0576744 0.00709805)
(0.575986 0.0656508 4.6501e-05)
(0.632075 0.0601502 -0.000376964)
(0.656441 0.0604124 -0.00016161)
(0.647167 0.0620913 8.23644e-05)
(0.623382 0.0653205 0.000132269)
(0.591684 0.0697528 0.000105138)
(0.56449 0.0730682 -4.07932e-05)
(0.54282 0.0758546 -0.000190622)
(0.523092 0.0781424 -0.000306273)
(0.503602 0.0796735 -0.000407245)
(0.484482 0.0802397 -0.000508438)
(0.466137 0.0797437 -0.000612327)
(0.448651 0.0782376 -0.000716132)
(0.431824 0.0759852 -0.000819783)
(0.415256 0.0733813 -0.000924079)
(0.398551 0.0709286 -0.00102972)
(0.381299 0.0691217 -0.00113801)
(0.363184 0.0683731 -0.00124745)
(0.343983 0.0689767 -0.00135862)
(0.323546 0.0710557 -0.00147076)
(0.301851 0.0746125 -0.00158415)
(0.278924 0.0795192 -0.00169923)
(0.254861 0.0855947 -0.00181609)
(0.229804 0.0926302 -0.00193426)
(0.203935 0.100438 -0.00205333)
(0.177426 0.108867 -0.00217278)
(0.150455 0.117877 -0.00229039)
(0.123235 0.127529 -0.00240641)
(0.0955368 0.137961 -0.00252098)
(0.0685861 0.149254 -0.00262977)
(0.0399789 0.161819 -0.00274279)
(0.0166139 0.176823 -0.00287434)
(3 1.94694e-08 0.000620474)
(3 2.07e-07 0.00058884)
(3 5.5525e-07 0.00055741)
(3 8.66157e-07 0.000526205)
(2.99999 1.29227e-06 0.00049526)
(2.99996 4.10852e-06 0.000464819)
(2.9999 1.80464e-05 0.000434936)
(2.9997 4.97258e-05 0.000407235)
(2.99933 0.000148159 0.000381048)
(2.99818 0.000331833 0.00036907)
(2.99665 0.000879341 0.000351461)
(2.98699 0.00167084 0.000522316)
(2.9758 0.00323252 0.000565755)
(2.90713 0.00543846 0.00209547)
(2.76301 0.00737482 0.00355474)
(2.37113 0.0123072 0.0109753)
(1.23005 0.0206149 0.0171695)
(0.576598 0.0723608 0.00692687)
(0.573017 0.073724 0.00027754)
(0.627763 0.0715531 -0.000333561)
(0.654452 0.072429 -0.000168278)
(0.647077 0.0752026 6.19933e-05)
(0.62492 0.0785911 0.00010869)
(0.594315 0.0827663 9.08359e-05)
(0.5679 0.0862481 -3.75806e-05)
(0.54759 0.0890583 -0.00017957)
(0.529637 0.0911276 -0.000289217)
(0.512136 0.0923044 -0.000384223)
(0.495044 0.0924834 -0.000479223)
(0.47859 0.0916652 -0.000576624)
(0.462706 0.0900161 -0.000673721)
(0.447052 0.0878782 -0.000770957)
(0.431144 0.0857067 -0.000868712)
(0.414554 0.0840114 -0.000968011)
(0.396885 0.0832628 -0.0010697)
(0.377874 0.0838252 -0.00117235)
(0.357372 0.0859193 -0.00127697)
(0.335344 0.0895956 -0.00138232)
(0.31189 0.0947697 -0.00148972)
(0.287157 0.101243 -0.00159843)
(0.26135 0.108753 -0.00170911)
(0.234679 0.117061 -0.0018207)
(0.20735 0.125978 -0.0019325)
(0.17956 0.135358 -0.0020444)
(0.15153 0.145172 -0.0021549)
(0.123505 0.155486 -0.00226406)
(0.095264 0.166469 -0.00237073)
(0.0681297 0.178184 -0.00247431)
(0.0397597 0.191077 -0.00257882)
(0.0161444 0.206085 -0.00270486)
(3 1.95673e-08 0.000585223)
(3 1.841e-07 0.000555338)
(3 5.49051e-07 0.000525651)
(3 8.84091e-07 0.000496182)
(2.99999 1.32366e-06 0.000466953)
(2.99997 4.43233e-06 0.000438163)
(2.99991 1.93825e-05 0.000409859)
(2.99974 5.29383e-05 0.000383357)
(2.99943 0.000158862 0.000358044)
(2.99844 0.000357065 0.000344487)
(2.9972 0.000967248 0.000324645)
(2.98798 0.00183159 0.00048116)
(2.97807 0.00365477 0.000503497)
(2.91087 0.00619488 0.00194204)
(2.77244 0.00901151 0.0032419)
(2.39325 0.0143983 0.0100229)
(1.27148 0.0289088 0.0161179)
(0.604845 0.0879273 0.0067755)
(0.568854 0.0852278 0.000513141)
(0.623711 0.0820247 -0.000314176)
(0.653556 0.0837334 -0.000180847)
(0.648178 0.0877467 4.41199e-05)
(0.627514 0.0915555 9.23218e-05)
(0.598459 0.0955702 7.73338e-05)
(0.573459 0.098928 -3.74746e-05)
(0.554928 0.10145 -0.000169404)
(0.539099 0.103092 -0.000271909)
(0.523846 0.103815 -0.000360396)
(0.508885 0.103626 -0.000448659)
(0.494244 0.102649 -0.00053933)
(0.479697 0.101165 -0.000630072)
(0.464812 0.0995678 -0.000721016)
(0.449075 0.0983271 -0.000812596)
(0.432082 0.0979127 -0.000905243)
(0.4135 0.0987167 -0.00100009)
(0.393168 0.101021 -0.00109591)
(0.371066 0.104939 -0.00119398)
(0.347298 0.110423 -0.00129298)
(0.322087 0.117305 -0.00139356)
(0.295654 0.125349 -0.00149555)
(0.268267 0.134259 -0.00159875)
(0.240183 0.143769 -0.00170371)
(0.211608 0.153688 -0.00180915)
(0.182738 0.163887 -0.00191345)
(0.153782 0.174354 -0.00201625)
(0.124992 0.185169 -0.00211788)
(0.0961174 0.196483 -0.00221825)
(0.0685867 0.208426 -0.00231201)
(0.0401087 0.221424 -0.00241388)
(0.0160408 0.236308 -0.00252781)
(3 2.05844e-08 0.000548536)
(3 1.75596e-07 0.000520477)
(3 5.13741e-07 0.00049261)
(3 8.17898e-07 0.000464951)
(2.99999 1.36312e-06 0.000437514)
(2.99997 4.30603e-06 0.000410453)
(2.99993 1.8338e-05 0.000383808)
(2.99979 4.96971e-05 0.000358588)
(2.99953 0.00015153 0.000334248)
(2.99871 0.000342697 0.000319118)
(2.99778 0.000955222 0.000297315)
(2.98907 0.00177815 0.000438865)
(2.98046 0.00373008 0.000443017)
(2.91507 0.00594715 0.00178049)
(2.78276 0.010379 0.00292995)
(2.41813 0.0165513 0.00903697)
(1.32147 0.0377602 0.0150222)
(0.637649 0.105777 0.0066264)
(0.564189 0.0982249 0.000754186)
(0.620232 0.0925401 -0.000306907)
(0.654497 0.0945699 -0.000203013)
(0.651487 0.0995521 2.65065e-05)
(0.63245 0.103832 8.02727e-05)
(0.605343 0.107751 6.66777e-05)
(0.582289 0.110671 -3.75289e-05)
(0.565968 0.112618 -0.000159534)
(0.552538 0.11371 -0.000254397)
(0.539598 0.114018 -0.000335721)
(0.526587 0.11366 -0.000417014)
(0.513356 0.112868 -0.000500915)
(0.49957 0.112 -0.000585579)
(0.484765 0.111472 -0.000670277)
(0.46848 0.111705 -0.000755517)
(0.450398 0.113092 -0.000841715)
(0.430343 0.115902 -0.00092972)
(0.408304 0.120288 -0.00101911)
(0.3844 0.126251 -0.00110991)
(0.35885 0.133656 -0.00120202)
(0.331982 0.142267 -0.00129569)
(0.304064 0.151813 -0.00139099)
(0.275363 0.162022 -0.00148674)
(0.246133 0.172641 -0.00158367)
(0.216543 0.183484 -0.00168165)
(0.186766 0.194423 -0.00177851)
(0.157 0.205444 -0.00187366)
(0.127458 0.216639 -0.00196736)
(0.0978881 0.228177 -0.0020589)
(0.0697562 0.240179 -0.00214812)
(0.0408413 0.253215 -0.00224075)
(0.0160672 0.267957 -0.00235112)
(3 2.21374e-08 0.000510349)
(3 1.92464e-07 0.000484198)
(3 4.22773e-07 0.00045823)
(3 5.87106e-07 0.000432462)
(2.99999 1.36896e-06 0.000406896)
(2.99998 2.74433e-06 0.000381654)
(2.99994 1.02654e-05 0.000356768)
(2.99983 2.67181e-05 0.000332967)
(2.99963 8.82659e-05 0.000309793)
(2.99898 0.000176173 0.00029344)
(2.99832 0.000599451 0.000270538)
(2.99016 0.000813126 0.000396147)
(2.9827 0.003335 0.000387179)
(2.91971 0.0046823 0.00160686)
(2.79441 0.0114071 0.00261294)
(2.44614 0.0189261 0.00803097)
(1.38034 0.0468926 0.0138675)
(0.675424 0.125834 0.00648023)
(0.558537 0.111849 0.000997345)
(0.617642 0.103052 -0.000312164)
(0.658139 0.105001 -0.000232223)
(0.658299 0.110572 8.77671e-06)
(0.641315 0.115072 7.12211e-05)
(0.61657 0.118687 5.94669e-05)
(0.595847 0.120875 -3.58788e-05)
(0.582002 0.122103 -0.000149226)
(0.570958 0.122721 -0.000236516)
(0.559978 0.122897 -0.000310473)
(0.548274 0.122815 -0.000384643)
(0.535589 0.122778 -0.000461935)
(0.521594 0.123151 -0.000540397)
(0.505891 0.124317 -0.000619162)
(0.48818 0.126584 -0.000697962)
(0.468326 0.130209 -0.000777734)
(0.446331 0.135327 -0.000858452)
(0.42236 0.141952 -0.000940776)
(0.396654 0.149989 -0.00102495)
(0.369503 0.159253 -0.00110969)
(0.341245 0.169509 -0.00119548)
(0.312148 0.180487 -0.00128334)
(0.282448 0.191925 -0.00137259)
(0.252364 0.203592 -0.00146176)
(0.222018 0.215317 -0.00155151)
(0.191517 0.226981 -0.00164057)
(0.161026 0.238555 -0.0017281)
(0.130759 0.250116 -0.00181437)
(0.100436 0.261817 -0.00189888)
(0.0715752 0.273864 -0.00197812)
(0.0420296 0.28685 -0.00206802)
(0.0164133 0.301417 -0.00216463)
(3 2.19733e-08 0.000470595)
(3 2.05122e-07 0.000446438)
(3 3.34495e-07 0.000422455)
(3 3.74265e-07 0.000398657)
(2.99999 1.29182e-06 0.000375055)
(2.99998 1.20105e-06 0.000351744)
(2.99994 1.71676e-06 0.000328756)
(2.99984 3.97719e-06 0.000306684)
(2.99964 1.3926e-05 0.000285332)
(2.99907 1.75401e-05 0.000269736)
(2.99839 7.79391e-05 0.000250394)
(2.99127 -0.000364079 0.000344801)
(2.98495 0.00207124 0.000339109)
(2.92489 0.00227835 0.00141303)
(2.80766 0.0111425 0.00227672)
(2.47643 0.0212113 0.00705435)
(1.44762 0.0572738 0.0126175)
(0.716184 0.148995 0.00635149)
(0.547828 0.125801 0.00123993)
(0.613971 0.112792 -0.000329492)
(0.664284 0.114351 -0.000267074)
(0.669602 0.120226 -8.76949e-06)
(0.655721 0.12472 6.47613e-05)
(0.633834 0.127798 5.62179e-05)
(0.615591 0.129172 -3.15321e-05)
(0.60402 0.129859 -0.000137876)
(0.594719 0.13042 -0.00021823)
(0.584662 0.131055 -0.000284992)
(0.572973 0.131952 -0.00035216)
(0.559466 0.133396 -0.000422945)
(0.543972 0.135688 -0.00049505)
(0.52629 0.139096 -0.000567443)
(0.50635 0.14379 -0.000639496)
(0.48425 0.149873 -0.000712536)
(0.460164 0.157358 -0.000786759)
(0.434376 0.16617 -0.000861836)
(0.407171 0.176171 -0.000938652)
(0.378838 0.187153 -0.00101671)
(0.349675 0.198895 -0.00109565)
(0.319878 0.211182 -0.00117495)
(0.289595 0.223775 -0.00125559)
(0.258974 0.236468 -0.00133677)
(0.228102 0.249101 -0.00141782)
(0.197043 0.261558 -0.00149839)
(0.165915 0.273774 -0.00157802)
(0.134901 0.285801 -0.00165643)
(0.103749 0.297755 -0.00173315)
(0.0739819 0.309817 -0.00180723)
(0.0434985 0.322797 -0.00188542)
(0.0167923 0.33721 -0.00197992)
(3 1.70241e-08 0.000429205)
(3 1.70434e-07 0.000407131)
(3 3.03937e-07 0.000385221)
(3 3.58378e-07 0.000363482)
(3 1.19748e-06 0.000341932)
(2.99998 1.10502e-06 0.000320655)
(2.99994 1.38629e-06 0.000299658)
(2.99984 3.6833e-06 0.000279542)
(2.99965 1.15312e-05 0.000260091)
(2.99904 3.51522e-05 0.000246271)
(2.99824 6.71987e-05 0.000228517)
(2.99186 -0.000154036 0.000304689)
(2.98632 0.0013392 0.000287984)
(2.9298 0.000513428 0.00121909)
(2.8233 0.0114592 0.00194416)
(2.51148 0.0225097 0.00604011)
(1.5266 0.0685155 0.0113118)
(0.761553 0.17557 0.00624443)
(0.533282 0.139112 0.00147697)
(0.61205 0.120071 -0.000361885)
(0.676046 0.121059 -0.000308254)
(0.688067 0.127311 -2.57196e-05)
(0.677654 0.131873 6.11437e-05)
(0.658345 0.134478 5.66539e-05)
(0.641855 0.135454 -2.47845e-05)
(0.631382 0.136336 -0.000125639)
(0.622228 0.137737 -0.00019972)
(0.611263 0.139755 -0.000259575)
(0.597778 0.142494 -0.000319804)
(0.581876 0.146141 -0.000383823)
(0.56369 0.150866 -0.000449383)
(0.543307 0.15679 -0.000515325)
(0.520876 0.163961 -0.000580962)
(0.496659 0.17238 -0.000647048)
(0.470898 0.182003 -0.000714317)
(0.443874 0.192729 -0.000782394)
(0.415822 0.204434 -0.000851524)
(0.38693 0.216947 -0.000921264)
(0.357413 0.230061 -0.000992333)
(0.327381 0.243594 -0.00106428)
(0.296915 0.257344 -0.00113616)
(0.266103 0.271121 -0.00120907)
(0.23496 0.284758 -0.00128183)
(0.203494 0.298128 -0.00135322)
(0.171785 0.311149 -0.00142399)
(0.140012 0.323821 -0.00149457)
(0.107905 0.336207 -0.00156371)
(0.0770535 0.348504 -0.00162965)
(0.0454734 0.36151 -0.00170487)
(0.0175316 0.375805 -0.00178366)
(3 1.25167e-08 0.000386103)
(3 1.34702e-07 0.000366207)
(3 2.88346e-07 0.000346464)
(3 3.761e-07 0.000326877)
(3 1.04014e-06 0.000307465)
(2.99998 1.69663e-06 0.000288298)
(2.99995 5.75131e-06 0.000269381)
(2.99985 1.47117e-05 0.000251167)
(2.99968 5.10537e-05 0.000233336)
(2.99914 9.36497e-05 0.00022018)
(2.99844 0.000339221 0.000206337)
(2.99249 0.000611368 0.000265022)
(2.98713 0.00178816 0.000252789)
(2.93566 0.000785438 0.00101268)
(2.83936 0.0130723 0.00162151)
(2.5502 0.0251366 0.0050546)
(1.62355 0.0780038 0.0098784)
(0.817655 0.202762 0.00614191)
(0.520086 0.149606 0.00168987)
(0.616664 0.123745 -0.000412987)
(0.697187 0.124715 -0.000357004)
(0.71607 0.131706 -4.21489e-05)
(0.707906 0.136741 6.06678e-05)
(0.689248 0.13942 5.98967e-05)
(0.672303 0.141054 -1.7123e-05)
(0.660486 0.143367 -0.000112967)
(0.648999 0.146723 -0.000180824)
(0.634946 0.151009 -0.000233917)
(0.618049 0.156194 -0.000287474)
(0.598808 0.162346 -0.000344793)
(0.57763 0.169526 -0.000403698)
(0.554767 0.177765 -0.000462743)
(0.530439 0.187065 -0.000521644)
(0.504905 0.197408 -0.000580891)
(0.478351 0.208763 -0.000640826)
(0.450957 0.221056 -0.000701491)
(0.422855 0.23419 -0.000763246)
(0.394115 0.248053 -0.00082504)
(0.364857 0.262482 -0.000887219)
(0.335099 0.277313 -0.00095077)
(0.304833 0.29236 -0.00101431)
(0.274102 0.307425 -0.00107764)
(0.242882 0.32233 -0.00114183)
(0.21114 0.336903 -0.00120582)
(0.178918 0.351012 -0.00126843)
(0.146359 0.364614 -0.00132999)
(0.113219 0.377686 -0.00139087)
(0.0810377 0.390371 -0.00145004)
(0.0478797 0.40363 -0.00151276)
(0.0183018 0.417894 -0.00158955)
(3 9.60704e-09 0.000341213)
(3 1.00802e-07 0.000323595)
(3 3.44652e-07 0.000306115)
(3 6.10166e-07 0.000288777)
(3 6.11386e-07 0.000271596)
(2.99998 5.23166e-07 0.000254621)
(2.99996 3.30953e-06 0.000237855)
(2.99988 9.82872e-06 0.000221641)
(2.99972 3.99079e-05 0.000206016)
(2.99929 7.87069e-05 0.000192932)
(2.99879 0.000281866 0.000179838)
(2.99325 0.000516988 0.000227482)
(2.98807 0.00170413 0.000232118)
(2.94173 0.00154887 0.000812501)
(2.85713 0.0130537 0.0012772)
(2.59192 0.027228 0.00416341)
(1.73576 0.0836535 0.00831637)
(0.886031 0.222548 0.00603767)
(0.513745 0.153324 0.0018667)
(0.633248 0.122786 -0.000475421)
(0.730636 0.125408 -0.000408234)
(0.753175 0.134231 -5.55478e-05)
(0.74262 0.140752 6.31899e-05)
(0.720002 0.145049 6.44908e-05)
(0.698859 0.149081 -1.00185e-05)
(0.682795 0.154135 -9.99954e-05)
(0.667078 0.16013 -0.00016122)
(0.649106 0.166844 -0.000208027)
(0.628889 0.174274 -0.00025508)
(0.607064 0.182481 -0.000305497)
(0.584043 0.191511 -0.000357351)
(0.560016 0.20142 -0.000409315)
(0.535112 0.212252 -0.0004609)
(0.509484 0.224025 -0.000512919)
(0.48321 0.236739 -0.00056548)
(0.456358 0.250354 -0.000618422)
(0.428975 0.264789 -0.000672263)
(0.401036 0.279957 -0.000726442)
(0.372564 0.295728 -0.00078019)
(0.343538 0.311953 -0.000834551)
(0.313869 0.328475 -0.00088935)
(0.283531 0.345086 -0.000943823)
(0.252465 0.3616 -0.000998142)
(0.220565 0.377817 -0.00105272)
(0.187839 0.393516 -0.00110731)
(0.154394 0.40854 -0.00116149)
(0.119978 0.422783 -0.0012138)
(0.0861732 0.436312 -0.00126518)
(0.0511839 0.450033 -0.00132338)
(0.0196208 0.464484 -0.00138506)
(3 9.99106e-09 0.000294452)
(3 8.08061e-08 0.000279216)
(3 3.27805e-07 0.000264103)
(3 6.1198e-07 0.000249118)
(3 3.63984e-07 0.000234271)
(2.99998 2.51246e-07 0.000219599)
(2.99996 2.7899e-06 0.000205102)
(2.99988 9.16039e-06 0.000191043)
(2.99975 3.27152e-05 0.000177339)
(2.99935 7.71715e-05 0.000166077)
(2.99893 0.00021411 0.000152384)
(2.99389 0.000160757 0.000191183)
(2.98946 0.00208574 0.000179202)
(2.94798 0.00229468 0.000647702)
(2.87448 0.0136271 0.000992363)
(2.63378 0.0273638 0.00329093)
(1.86441 0.0826448 0.00675237)
(0.975885 0.220509 0.00586113)
(0.529916 0.156289 0.00196087)
(0.663306 0.133125 -0.000524331)
(0.769697 0.136389 -0.00045116)
(0.788062 0.143573 -6.84485e-05)
(0.769103 0.14958 6.01544e-05)
(0.738959 0.155234 6.15165e-05)
(0.71196 0.161855 -6.8688e-06)
(0.691359 0.16944 -8.69245e-05)
(0.672171 0.177486 -0.000140152)
(0.651772 0.185913 -0.000180559)
(0.630068 0.19488 -0.000221325)
(0.607489 0.204509 -0.000264798)
(0.584305 0.214863 -0.000309321)
(0.56061 0.226017 -0.000354132)
(0.536418 0.238044 -0.000398659)
(0.511782 0.250995 -0.000443202)
(0.486693 0.264898 -0.000488244)
(0.461122 0.279756 -0.000533301)
(0.435056 0.295513 -0.000578685)
(0.408433 0.312104 -0.000624748)
(0.38119 0.329423 -0.000670761)
(0.353276 0.347321 -0.00071658)
(0.324569 0.36565 -0.000762791)
(0.294957 0.384205 -0.000808781)
(0.264325 0.402762 -0.000854575)
(0.232504 0.421106 -0.000899837)
(0.199398 0.438981 -0.000944591)
(0.16505 0.456118 -0.000989366)
(0.129177 0.472253 -0.00103391)
(0.0932712 0.487294 -0.00107701)
(0.0556196 0.502109 -0.00112374)
(0.0212463 0.517014 -0.00118112)
(3 1.49144e-08 0.000245734)
(3 1.54042e-07 0.000232991)
(3 1.54064e-07 0.000220354)
(3 -9.39556e-08 0.000207828)
(3 -8.40217e-07 0.000195417)
(2.99999 -2.9797e-06 0.000183149)
(2.99997 -1.2303e-06 0.000171026)
(2.99991 -8.81353e-06 0.000159235)
(2.99979 8.60528e-06 0.000147897)
(2.99945 -3.63421e-05 0.000137997)
(2.99901 2.14733e-05 0.000128914)
(2.99505 -0.000636423 0.000148533)
(2.99124 0.00405991 0.000149793)
(2.9544 -0.00495911 0.000481646)
(2.89134 0.034949 0.000725829)
(2.67359 -0.0137787 0.002514)
(1.99399 0.0806353 0.0051816)
(1.08066 0.132823 0.00550428)
(0.564354 0.122049 0.00192958)
(0.689187 0.143926 -0.000482203)
(0.790901 0.158627 -0.000415135)
(0.801991 0.164923 -6.45107e-05)
(0.777041 0.169415 4.81008e-05)
(0.743227 0.174799 4.71622e-05)
(0.713765 0.182267 -9.50633e-06)
(0.69113 0.190486 -7.41081e-05)
(0.670538 0.198911 -0.000117918)
(0.649475 0.20778 -0.000152172)
(0.627691 0.217337 -0.000186504)
(0.60545 0.227675 -0.000222783)
(0.582933 0.238832 -0.0002598)
(0.560195 0.250852 -0.000296958)
(0.537217 0.263808 -0.000334077)
(0.513991 0.277756 -0.000371124)
(0.490474 0.292735 -0.000408385)
(0.466575 0.30878 -0.000445892)
(0.442211 0.325873 -0.000483056)
(0.417289 0.343973 -0.00052024)
(0.391685 0.363016 -0.000557705)
(0.365269 0.382872 -0.000594828)
(0.337892 0.403398 -0.000631785)
(0.30936 0.424406 -0.000668863)
(0.279481 0.445666 -0.000705852)
(0.248008 0.466934 -0.000742761)
(0.214713 0.487863 -0.000779133)
(0.179507 0.508082 -0.000814836)
(0.141993 0.527253 -0.000849912)
(0.103451 0.544959 -0.000885296)
(0.0623316 0.56176 -0.000924722)
(0.0240219 0.577849 -0.000968078)
(3 1.05525e-08 0.000194968)
(3 9.49947e-08 0.000184835)
(3 9.78671e-08 0.000174789)
(3 -3.00293e-07 0.000164834)
(2.99999 -1.64454e-06 0.000154978)
(2.99998 -3.56798e-06 0.000145226)
(2.99995 -6.72133e-06 0.000135645)
(2.9999 -1.23416e-05 0.00012622)
(2.99973 -2.06691e-05 0.000117446)
(2.99938 -5.18622e-05 0.000109487)
(2.99854 -4.84636e-05 0.00010391)
(2.99758 -0.000499 9.79058e-05)
(2.98681 0.00296625 0.000164786)
(2.9768 -0.00535293 0.000166492)
(2.87617 0.0251801 0.000947)
(2.66545 -0.0271281 0.00157832)
(2.14309 0.0453801 0.00444305)
(0.970826 0.0761589 0.0047522)
(0.434855 0.101696 0.00152372)
(0.603099 0.15328 -0.000364899)
(0.718732 0.171811 -0.00026824)
(0.741086 0.177125 -3.09016e-05)
(0.728618 0.18155 3.72707e-05)
(0.706171 0.189351 3.22024e-05)
(0.685575 0.199259 -1.13652e-05)
(0.669035 0.209094 -5.87159e-05)
(0.653282 0.218719 -9.36285e-05)
(0.636401 0.228673 -0.000122178)
(0.618169 0.239226 -0.000150071)
(0.598923 0.250458 -0.000178871)
(0.578998 0.262445 -0.000208107)
(0.558598 0.275276 -0.000237395)
(0.537814 0.289071 -0.00026656)
(0.516695 0.303942 -0.00029585)
(0.495241 0.319962 -0.00032516)
(0.473409 0.337194 -0.000354684)
(0.451105 0.355669 -0.000384266)
(0.428236 0.375373 -0.000413372)
(0.404672 0.39628 -0.000442406)
(0.380229 0.418337 -0.000471417)
(0.354693 0.441451 -0.000499916)
(0.327805 0.465388 -0.000528087)
(0.299293 0.489973 -0.00055601)
(0.268744 0.515105 -0.000583556)
(0.235698 0.540352 -0.000610748)
(0.199963 0.565241 -0.000638099)
(0.16082 0.589253 -0.000664626)
(0.119019 0.611606 -0.0006897)
(0.0728739 0.632531 -0.000718299)
(0.0283664 0.651297 -0.000755157)
(3 2.26365e-08 0.000142059)
(3 -2.88645e-08 0.000134658)
(3 2.84265e-08 0.000127323)
(3 -3.78953e-07 0.000120057)
(2.99999 -7.86312e-07 0.000112861)
(2.99998 -6.90396e-07 0.000105751)
(2.99996 2.92371e-07 9.87302e-05)
(2.9999 8.54376e-06 9.18896e-05)
(2.99977 1.02769e-05 8.53251e-05)
(2.99946 6.99646e-05 7.93196e-05)
(2.99868 0.000105991 7.53493e-05)
(2.99806 0.000306609 6.71653e-05)
(2.98765 0.000326467 0.000117796)
(2.97848 0.0015477 0.000113983)
(2.89102 0.000382196 0.000615539)
(2.70775 0.0206816 0.00101529)
(2.24294 0.0435273 0.00297474)
(1.04166 0.140677 0.00371501)
(0.450857 0.161493 0.00125418)
(0.581947 0.186546 -0.000213619)
(0.678267 0.183441 -0.000164156)
(0.69788 0.182982 -2.43818e-05)
(0.690139 0.186901 1.47881e-05)
(0.673865 0.197901 1.24233e-05)
(0.657008 0.210342 -1.11721e-05)
(0.6437 0.221964 -4.29659e-05)
(0.631833 0.233335 -6.93157e-05)
(0.619183 0.245071 -9.1053e-05)
(0.605039 0.257327 -0.000111574)
(0.589588 0.270106 -0.000132485)
(0.573169 0.28347 -0.000153655)
(0.556013 0.297542 -0.000174829)
(0.538267 0.312491 -0.000195958)
(0.520005 0.32849 -0.000217089)
(0.501261 0.345682 -0.000238233)
(0.482045 0.364201 -0.00025941)
(0.462314 0.38415 -0.000280588)
(0.441986 0.405623 -0.000301641)
(0.420969 0.428601 -0.000322406)
(0.399128 0.45304 -0.00034312)
(0.37608 0.479055 -0.00036331)
(0.351497 0.506549 -0.000383198)
(0.325289 0.535373 -0.000402976)
(0.296782 0.565404 -0.000422309)
(0.265075 0.59645 -0.000440745)
(0.229748 0.628109 -0.000458271)
(0.189531 0.659885 -0.000476249)
(0.144342 0.690718 -0.000493359)
(0.0917149 0.720155 -0.000512551)
(0.0370684 0.746135 -0.000535187)