# Field minima and maxima
# Time         	field          	min            	location(min)  	max            	location(max)  
5.00000000e-04	p              	0.00000000e+00	(-5.25000000e-04 0.00000000e+00 2.16000000e-01)	7.06271901e+02	(-1.43951156e-04 1.45036143e-03 1.50000000e-03)
5.00000000e-04	U              	(-9.55270920e-03 -4.13761444e-04 3.50530130e-01)	(1.45036143e-03 -1.43951156e-04 1.50000000e-03)	(2.00781899e-04 2.84892284e-02 8.32810332e-01)	(-1.15389170e-04 -1.20807294e-03 1.50000000e-03)
1.00000000e-03	p              	0.00000000e+00	(-5.25000000e-04 0.00000000e+00 2.16000000e-01)	2.91736713e+01	(9.21183639e-04 1.12275892e-03 1.50000000e-03)
1.00000000e-03	U              	(-1.43533591e-03 -1.25617620e-02 3.23325063e-01)	(1.43951156e-04 1.45036143e-03 1.50000000e-03)	(4.42152479e-03 4.31099553e-02 1.03052701e+00)	(-1.15389170e-04 -1.20807294e-03 1.50000000e-03)
1.50000000e-03	p              	0.00000000e+00	(-5.25000000e-04 0.00000000e+00 2.16000000e-01)	3.59060889e+01	(1.43951156e-04 -1.45036143e-03 1.50000000e-03)
1.50000000e-03	U              	(-1.39453333e-03 1.30530117e-02 3.11058752e-01)	(1.43951156e-04 -1.45036143e-03 1.50000000e-03)	(5.43586840e-03 5.10481613e-02 1.10118254e+00)	(-1.15389170e-04 -1.20807294e-03 1.50000000e-03)
2.00000000e-03	p              	0.00000000e+00	(-5.25000000e-04 0.00000000e+00 2.16000000e-01)	3.10198209e+01	(1.43951156e-04 1.45036143e-03 1.50000000e-03)
2.00000000e-03	U              	(-1.56839753e-04 -1.55281551e-04 2.15503707e-01)	(-1.43951156e-04 -1.45036143e-03 7.50000000e-03)	(6.09705489e-03 5.64122936e-02 1.21971426e+00)	(-1.04101859e-04 -1.11232386e-03 1.50000000e-03)
2.50000000e-03	p              	0.00000000e+00	(-5.25000000e-04 0.00000000e+00 2.16000000e-01)	2.83728133e+01	(1.43951156e-04 -1.45036143e-03 1.50000000e-03)
2.50000000e-03	U              	(-1.36698385e-04 -1.41955782e-04 1.95709506e-01)	(-1.43951156e-04 -1.45036143e-03 7.50000000e-03)	(6.52576650e-03 6.08626854e-02 1.25102873e+00)	(-1.04101859e-04 -1.11232386e-03 1.50000000e-03)
3.00000000e-03	p              	0.00000000e+00	(-5.25000000e-04 0.00000000e+00 2.16000000e-01)	2.65560650e+01	(1.45036143e-03 -1.43951156e-04 1.50000000e-03)
3.00000000e-03	U              	(-1.20643736e-04 -1.20458333e-04 1.82776733e-01)	(-1.43951156e-04 -1.45036143e-03 7.50000000e-03)	(6.80783376e-03 6.40042837e-02 1.27122847e+00)	(-1.04101859e-04 -1.11232386e-03 1.50000000e-03)
3.50000000e-03	p              	0.00000000e+00	(-5.25000000e-04 0.00000000e+00 2.16000000e-01)	2.52290575e+01	(-1.43951156e-04 1.45036143e-03 1.50000000e-03)
3.50000000e-03	U              	(-1.08575169e-04 -9.73119970e-05 1.73716099e-01)	(-1.43951156e-04 -1.45036143e-03 7.50000000e-03)	(6.99581233e-03 6.62118390e-02 1.28547206e+00)	(-1.04101859e-04 -1.11232386e-03 1.50000000e-03)
4.00000000e-03	p              	0.00000000e+00	(-5.25000000e-04 0.00000000e+00 2.16000000e-01)	2.42144984e+01	(-1.43951156e-04 -1.45036143e-03 1.50000000e-03)
4.00000000e-03	U              	(-9.97141537e-05 -7.46271624e-05 1.67124564e-01)	(-1.43951156e-04 -1.45036143e-03 7.50000000e-03)	(7.12118533e-03 6.77509683e-02 1.29628390e+00)	(-1.04101859e-04 -1.11232386e-03 1.50000000e-03)
4.50000000e-03	p              	0.00000000e+00	(-5.25000000e-04 0.00000000e+00 2.16000000e-01)	2.34139299e+01	(1.43951156e-04 -1.45036143e-03 1.50000000e-03)
4.50000000e-03	U              	(-9.30558416e-05 -5.37816598e-05 1.62239367e-01)	(-1.43951156e-04 -1.45036143e-03 7.50000000e-03)	(7.20480452e-03 6.88144396e-02 1.30493583e+00)	(-1.04101859e-04 -1.11232386e-03 1.50000000e-03)
5.00000000e-03	p              	0.00000000e+00	(-5.25000000e-04 0.00000000e+00 2.16000000e-01)	2.27671157e+01	(1.45036143e-03 -1.43951156e-04 1.50000000e-03)
5.00000000e-03	U              	(-8.83598554e-05 -3.67206895e-05 1.58600590e-01)	(-1.43951156e-04 -1.45036143e-03 7.50000000e-03)	(7.26062047e-03 6.95418016e-02 1.31205975e+00)	(-1.04101859e-04 -1.11232386e-03 1.50000000e-03)
5.50000000e-03	p              	0.00000000e+00	(-5.25000000e-04 0.00000000e+00 2.16000000e-01)	2.22347874e+01	(-1.43951156e-04 1.45036143e-03 1.50000000e-03)
5.50000000e-03	U              	(-8.51620287e-05 -2.13324563e-05 1.55903504e-01)	(-1.43951156e-04 -1.45036143e-03 7.50000000e-03)	(7.29797765e-03 7.00339565e-02 1.31797563e+00)	(-1.04101859e-04 -1.11232386e-03 1.50000000e-03)
6.00000000e-03	p              	0.00000000e+00	(-5.25000000e-04 0.00000000e+00 2.16000000e-01)	2.17901588e+01	(-1.43951156e-04 1.45036143e-03 1.50000000e-03)
6.00000000e-03	U              	(-8.27191628e-05 -7.12855477e-06 1.53930672e-01)	(-1.43951156e-04 -1.45036143e-03 7.50000000e-03)	(7.32316647e-03 7.03634135e-02 1.32286151e+00)	(-1.04101859e-04 -1.11232386e-03 1.50000000e-03)
6.50000000e-03	p              	0.00000000e+00	(-5.25000000e-04 0.00000000e+00 2.16000000e-01)	2.14142796e+01	(1.43951156e-04 -1.45036143e-03 1.50000000e-03)
6.50000000e-03	U              	(-8.07739141e-05 6.25441116e-06 1.52517715e-01)	(-1.43951156e-04 -1.45036143e-03 7.50000000e-03)	(7.34032329e-03 7.05821014e-02 1.32683829e+00)	(-1.04101859e-04 -1.11232386e-03 1.50000000e-03)
7.00000000e-03	p              	0.00000000e+00	(-5.25000000e-04 0.00000000e+00 2.16000000e-01)	2.10933449e+01	(1.45036143e-03 1.43951156e-04 1.50000000e-03)
7.00000000e-03	U              	(-7.95537635e-05 1.68901531e-05 1.51535715e-01)	(-1.43951156e-04 -1.45036143e-03 7.50000000e-03)	(7.35227621e-03 7.07267451e-02 1.33000927e+00)	(-1.04101859e-04 -1.11232386e-03 1.50000000e-03)
7.50000000e-03	p              	0.00000000e+00	(-5.25000000e-04 0.00000000e+00 2.16000000e-01)	2.08170397e+01	(1.45036143e-03 1.43951156e-04 1.50000000e-03)
7.50000000e-03	U              	(-7.88441690e-05 2.53456139e-05 1.50881481e-01)	(-1.43951156e-04 -1.45036143e-03 7.50000000e-03)	(7.36087270e-03 7.08229315e-02 1.33247556e+00)	(-1.04101859e-04 -1.11232386e-03 1.50000000e-03)
8.00000000e-03	p              	0.00000000e+00	(-5.25000000e-04 0.00000000e+00 2.16000000e-01)	2.05774914e+01	(1.45036143e-03 1.43951156e-04 1.50000000e-03)
8.00000000e-03	U              	(-7.84901967e-05 3.19675841e-05 1.50471836e-01)	(-1.43951156e-04 -1.45036143e-03 7.50000000e-03)	(7.36730774e-03 7.08882209e-02 1.33433935e+00)	(-1.04101859e-04 -1.11232386e-03 1.50000000e-03)
8.50000000e-03	p              	0.00000000e+00	(-5.25000000e-04 0.00000000e+00 2.16000000e-01)	2.03685758e+01	(-1.43951156e-04 -1.45036143e-03 1.50000000e-03)
8.50000000e-03	U              	(-7.83809756e-05 3.70446717e-05 1.50240051e-01)	(-1.43951156e-04 -1.45036143e-03 7.50000000e-03)	(7.37232125e-03 7.09343759e-02 1.33570187e+00)	(-1.04101859e-04 -1.11232386e-03 1.50000000e-03)
9.00000000e-03	p              	0.00000000e+00	(-5.25000000e-04 0.00000000e+00 2.16000000e-01)	2.01854499e+01	(1.43951156e-04 1.45036143e-03 1.50000000e-03)
9.00000000e-03	U              	(-7.84392134e-05 4.08407869e-05 1.50133226e-01)	(-1.43951156e-04 -1.45036143e-03 7.50000000e-03)	(7.37638756e-03 7.09690452e-02 1.33665975e+00)	(-1.04101859e-04 -1.11232386e-03 1.50000000e-03)
9.50000000e-03	p              	0.00000000e+00	(-5.25000000e-04 0.00000000e+00 2.16000000e-01)	2.00242281e+01	(1.43951156e-04 1.45036143e-03 1.50000000e-03)
9.50000000e-03	U              	(-7.85930398e-05 4.35998400e-05 1.50110211e-01)	(-1.43951156e-04 -1.45036143e-03 7.50000000e-03)	(7.37979989e-03 7.09970131e-02 1.33730150e+00)	(-1.04101859e-04 -1.11232386e-03 1.50000000e-03)
1.00000000e-02	p              	0.00000000e+00	(-5.25000000e-04 0.00000000e+00 2.16000000e-01)	1.98817527e+01	(-1.43951156e-04 -1.45036143e-03 1.50000000e-03)
1.00000000e-02	U              	(-7.87964835e-05 4.55397113e-05 1.50139753e-01)	(-1.43951156e-04 -1.45036143e-03 7.50000000e-03)	(7.38273689e-03 7.10211136e-02 1.33770488e+00)	(-1.04101859e-04 -1.11232386e-03 1.50000000e-03)
1.05000000e-02	p              	0.00000000e+00	(-5.25000000e-04 0.00000000e+00 2.16000000e-01)	1.97554247e+01	(-1.43951156e-04 1.45036143e-03 1.50000000e-03)
1.05000000e-02	U              	(-7.90143562e-05 4.68501740e-05 1.50198830e-01)	(-1.43951156e-04 -1.45036143e-03 7.50000000e-03)	(7.38530686e-03 7.10428920e-02 1.33793564e+00)	(-1.04101859e-04 -1.11232386e-03 1.50000000e-03)
1.10000000e-02	p              	0.00000000e+00	(-5.25000000e-04 0.00000000e+00 2.16000000e-01)	1.96430891e+01	(-1.45036143e-03 1.43951156e-04 1.50000000e-03)
1.10000000e-02	U              	(-7.92230392e-05 4.76930428e-05 1.50271096e-01)	(-1.43951156e-04 -1.45036143e-03 7.50000000e-03)	(7.38757302e-03 7.10631108e-02 1.33804736e+00)	(-1.04101859e-04 -1.11232386e-03 1.50000000e-03)
1.15000000e-02	p              	0.00000000e+00	(-5.25000000e-04 0.00000000e+00 2.16000000e-01)	1.95429399e+01	(-1.45036143e-03 1.43951156e-04 1.50000000e-03)
1.15000000e-02	U              	(-7.94026117e-05 4.82000343e-05 1.50345518e-01)	(-1.43951156e-04 -1.45036143e-03 7.50000000e-03)	(7.38957525e-03 7.10820570e-02 1.33808194e+00)	(-1.04101859e-04 -1.11232386e-03 1.50000000e-03)
1.20000000e-02	p              	0.00000000e+00	(-5.25000000e-04 0.00000000e+00 2.16000000e-01)	1.94534522e+01	(1.43951156e-04 1.45036143e-03 1.50000000e-03)
1.20000000e-02	U              	(-7.95544261e-05 4.84771350e-05 1.50415157e-01)	(-1.43951156e-04 -1.45036143e-03 7.50000000e-03)	(7.39132631e-03 7.10997524e-02 1.33807087e+00)	(-1.04101859e-04 -1.11232386e-03 1.50000000e-03)
1.25000000e-02	p              	0.00000000e+00	(-5.25000000e-04 0.00000000e+00 2.16000000e-01)	1.93733303e+01	(1.45036143e-03 -1.43951156e-04 1.50000000e-03)
1.25000000e-02	U              	(-7.96670542e-05 4.86045494e-05 1.50476113e-01)	(-1.43951156e-04 -1.45036143e-03 7.50000000e-03)	(7.39285374e-03 7.11161194e-02 1.33803676e+00)	(-1.04101859e-04 -1.11232386e-03 1.50000000e-03)
1.30000000e-02	p              	0.00000000e+00	(-5.25000000e-04 0.00000000e+00 2.16000000e-01)	1.93014653e+01	(1.43951156e-04 -1.45036143e-03 1.50000000e-03)
1.30000000e-02	U              	(-7.97439125e-05 4.86417177e-05 1.50526687e-01)	(-1.43951156e-04 -1.45036143e-03 7.50000000e-03)	(7.39417475e-03 7.11310579e-02 1.33799492e+00)	(-1.04101859e-04 -1.11232386e-03 1.50000000e-03)
1.35000000e-02	p              	0.00000000e+00	(-5.25000000e-04 0.00000000e+00 2.16000000e-01)	1.92369035e+01	(1.43951156e-04 1.45036143e-03 1.50000000e-03)
1.35000000e-02	U              	(-7.97894920e-05 4.86320173e-05 1.50566665e-01)	(-1.43951156e-04 -1.45036143e-03 7.50000000e-03)	(7.39530642e-03 7.11444839e-02 1.33795496e+00)	(-1.04101859e-04 -1.11232386e-03 1.50000000e-03)
1.40000000e-02	p              	0.00000000e+00	(-5.25000000e-04 0.00000000e+00 2.16000000e-01)	1.91788213e+01	(-1.43951156e-04 1.45036143e-03 1.50000000e-03)
1.40000000e-02	U              	(-7.98090359e-05 4.86042350e-05 1.50596788e-01)	(-1.43951156e-04 -1.45036143e-03 7.50000000e-03)	(7.39626575e-03 7.11563609e-02 1.33792221e+00)	(-1.04101859e-04 -1.11232386e-03 1.50000000e-03)
1.45000000e-02	p              	0.00000000e+00	(-5.25000000e-04 0.00000000e+00 2.16000000e-01)	1.91265019e+01	(-1.43951156e-04 1.45036143e-03 1.50000000e-03)
1.45000000e-02	U              	(-7.98076858e-05 4.85763924e-05 1.50618318e-01)	(-1.43951156e-04 -1.45036143e-03 7.50000000e-03)	(7.39707029e-03 7.11667054e-02 1.33789897e+00)	(-1.04101859e-04 -1.11232386e-03 1.50000000e-03)
1.50000000e-02	p              	0.00000000e+00	(-5.25000000e-04 0.00000000e+00 2.16000000e-01)	1.90793215e+01	(-1.43951156e-04 1.45036143e-03 1.50000000e-03)
1.50000000e-02	U              	(-7.97928736e-05 4.85585683e-05 1.50632762e-01)	(-1.43951156e-04 -1.45036143e-03 7.50000000e-03)	(7.39774246e-03 7.11755776e-02 1.33788547e+00)	(-1.04101859e-04 -1.11232386e-03 1.50000000e-03)
1.55000000e-02	p              	0.00000000e+00	(-5.25000000e-04 0.00000000e+00 2.16000000e-01)	1.90367329e+01	(-1.43951156e-04 1.45036143e-03 1.50000000e-03)
1.55000000e-02	U              	(-7.97661523e-05 4.85554650e-05 1.50641646e-01)	(-1.43951156e-04 -1.45036143e-03 7.50000000e-03)	(7.39829514e-03 7.11830847e-02 1.33788078e+00)	(-1.04101859e-04 -1.11232386e-03 1.50000000e-03)
1.60000000e-02	p              	0.00000000e+00	(-5.25000000e-04 0.00000000e+00 2.16000000e-01)	1.89982571e+01	(-1.43951156e-04 1.45036143e-03 1.50000000e-03)
1.60000000e-02	U              	(-7.97321841e-05 4.85673977e-05 1.50646399e-01)	(-1.43951156e-04 -1.45036143e-03 7.50000000e-03)	(7.39874626e-03 7.11893515e-02 1.33788318e+00)	(-1.04101859e-04 -1.11232386e-03 1.50000000e-03)
1.65000000e-02	p              	0.00000000e+00	(-5.25000000e-04 0.00000000e+00 2.16000000e-01)	1.89634679e+01	(1.45036143e-03 -1.43951156e-04 1.50000000e-03)
1.65000000e-02	U              	(-7.96968809e-05 4.85927078e-05 1.50648265e-01)	(-1.43951156e-04 -1.45036143e-03 7.50000000e-03)	(7.39911412e-03 7.11945211e-02 1.33789084e+00)	(-1.04101859e-04 -1.11232386e-03 1.50000000e-03)
1.70000000e-02	p              	0.00000000e+00	(-5.25000000e-04 0.00000000e+00 2.16000000e-01)	1.89319922e+01	(1.43951156e-04 1.45036143e-03 1.50000000e-03)
1.70000000e-02	U              	(-7.96634466e-05 4.86286025e-05 1.50648266e-01)	(-1.43951156e-04 -1.45036143e-03 7.50000000e-03)	(7.39941118e-03 7.11987411e-02 1.33790194e+00)	(-1.04101859e-04 -1.11232386e-03 1.50000000e-03)
1.75000000e-02	p              	0.00000000e+00	(-5.25000000e-04 0.00000000e+00 2.16000000e-01)	1.89034966e+01	(-1.43951156e-04 1.45036143e-03 1.50000000e-03)
1.75000000e-02	U              	(-7.96300859e-05 4.86711017e-05 1.50647209e-01)	(-1.43951156e-04 -1.45036143e-03 7.50000000e-03)	(7.39965250e-03 7.12021564e-02 1.33791488e+00)	(-1.04101859e-04 -1.11232386e-03 1.50000000e-03)
1.80000000e-02	p              	0.00000000e+00	(-5.25000000e-04 0.00000000e+00 2.16000000e-01)	1.88776862e+01	(1.43951156e-04 -1.45036143e-03 1.50000000e-03)
1.80000000e-02	U              	(-7.96009642e-05 4.87173605e-05 1.50645686e-01)	(-1.43951156e-04 -1.45036143e-03 7.50000000e-03)	(7.39984661e-03 7.12049031e-02 1.33792838e+00)	(-1.04101859e-04 -1.11232386e-03 1.50000000e-03)
1.85000000e-02	p              	0.00000000e+00	(-5.25000000e-04 0.00000000e+00 2.16000000e-01)	1.88542973e+01	(1.45036143e-03 -1.43951156e-04 1.50000000e-03)
1.85000000e-02	U              	(-7.95762344e-05 4.87642110e-05 1.50644102e-01)	(-1.43951156e-04 -1.45036143e-03 7.50000000e-03)	(7.40000596e-03 7.12071031e-02 1.33794148e+00)	(-1.04101859e-04 -1.11232386e-03 1.50000000e-03)
1.90000000e-02	p              	0.00000000e+00	(-5.25000000e-04 0.00000000e+00 2.16000000e-01)	1.88330941e+01	(-1.43951156e-04 1.45036143e-03 1.50000000e-03)
1.90000000e-02	U              	(-7.95545029e-05 4.88092220e-05 1.50642717e-01)	(-1.43951156e-04 -1.45036143e-03 7.50000000e-03)	(7.40013823e-03 7.12088642e-02 1.33795353e+00)	(-1.04101859e-04 -1.11232386e-03 1.50000000e-03)
1.95000000e-02	p              	0.00000000e+00	(-5.25000000e-04 0.00000000e+00 2.16000000e-01)	1.88138665e+01	(1.43951156e-04 -1.45036143e-03 1.50000000e-03)
1.95000000e-02	U              	(-7.95408562e-05 4.88512189e-05 1.50641671e-01)	(-1.43951156e-04 -1.45036143e-03 7.50000000e-03)	(7.40024468e-03 7.12102774e-02 1.33796416e+00)	(-1.04101859e-04 -1.11232386e-03 1.50000000e-03)
2.00000000e-02	p              	0.00000000e+00	(-5.25000000e-04 0.00000000e+00 2.16000000e-01)	1.87964246e+01	(1.43951156e-04 -1.45036143e-03 1.50000000e-03)
2.00000000e-02	U              	(-7.95284241e-05 4.88885740e-05 1.50641011e-01)	(-1.43951156e-04 -1.45036143e-03 7.50000000e-03)	(7.40033474e-03 7.12114184e-02 1.33797320e+00)	(-1.04101859e-04 -1.11232386e-03 1.50000000e-03)
2.05000000e-02	p              	0.00000000e+00	(-5.25000000e-04 0.00000000e+00 2.16000000e-01)	1.87805987e+01	(-1.43951156e-04 -1.45036143e-03 1.50000000e-03)
2.05000000e-02	U              	(-7.95202528e-05 4.89210439e-05 1.50640726e-01)	(-1.43951156e-04 -1.45036143e-03 7.50000000e-03)	(7.40041117e-03 7.12123491e-02 1.33798065e+00)	(-1.04101859e-04 -1.11232386e-03 1.50000000e-03)
2.10000000e-02	p              	0.00000000e+00	(-5.25000000e-04 0.00000000e+00 2.16000000e-01)	1.87662363e+01	(-1.43951156e-04 -1.45036143e-03 1.50000000e-03)
2.10000000e-02	U              	(-7.95142319e-05 4.89482868e-05 1.50640770e-01)	(-1.43951156e-04 -1.45036143e-03 7.50000000e-03)	(7.40047623e-03 7.12131156e-02 1.33798662e+00)	(-1.04101859e-04 -1.11232386e-03 1.50000000e-03)
2.15000000e-02	p              	0.00000000e+00	(-5.25000000e-04 0.00000000e+00 2.16000000e-01)	1.87531991e+01	(-1.43951156e-04 -1.45036143e-03 1.50000000e-03)
2.15000000e-02	U              	(-7.95107943e-05 -4.89707909e-05 1.50641068e-01)	(-1.43951156e-04 1.45036143e-03 7.50000000e-03)	(7.40053385e-03 7.12137550e-02 1.33799128e+00)	(-1.04101859e-04 -1.11232386e-03 1.50000000e-03)
2.20000000e-02	p              	0.00000000e+00	(-5.25000000e-04 0.00000000e+00 2.16000000e-01)	1.87413632e+01	(-1.43951156e-04 1.45036143e-03 1.50000000e-03)
2.20000000e-02	U              	(-7.95100784e-05 -4.89889458e-05 1.50641554e-01)	(-1.43951156e-04 1.45036143e-03 7.50000000e-03)	(7.40058064e-03 7.12142942e-02 1.33799485e+00)	(-1.04101859e-04 -1.11232386e-03 1.50000000e-03)
2.25000000e-02	p              	0.00000000e+00	(-5.25000000e-04 0.00000000e+00 2.16000000e-01)	1.87306172e+01	(1.43951156e-04 -1.45036143e-03 1.50000000e-03)
2.25000000e-02	U              	(-7.95069185e-05 -4.90027867e-05 1.50642157e-01)	(-1.43951156e-04 1.45036143e-03 7.50000000e-03)	(7.40062126e-03 7.12147599e-02 1.33799755e+00)	(-1.04101859e-04 -1.11232386e-03 1.50000000e-03)
2.30000000e-02	p              	0.00000000e+00	(-5.25000000e-04 0.00000000e+00 2.16000000e-01)	1.87208581e+01	(1.43951156e-04 1.45036143e-03 1.50000000e-03)
2.30000000e-02	U              	(-7.95073149e-05 4.90136456e-05 1.50642818e-01)	(-1.43951156e-04 -1.45036143e-03 7.50000000e-03)	(7.40065778e-03 7.12151611e-02 1.33799957e+00)	(-1.04101859e-04 -1.11232386e-03 1.50000000e-03)
2.35000000e-02	p              	0.00000000e+00	(-5.25000000e-04 0.00000000e+00 2.16000000e-01)	1.87119949e+01	(-1.45036143e-03 -1.43951156e-04 1.50000000e-03)
2.35000000e-02	U              	(-7.95084121e-05 -4.90219059e-05 1.50643470e-01)	(-1.43951156e-04 1.45036143e-03 7.50000000e-03)	(7.40068948e-03 7.12155119e-02 1.33800110e+00)	(-1.04101859e-04 -1.11232386e-03 1.50000000e-03)
2.40000000e-02	p              	0.00000000e+00	(-5.25000000e-04 0.00000000e+00 2.16000000e-01)	1.87039446e+01	(1.43951156e-04 1.45036143e-03 1.50000000e-03)
2.40000000e-02	U              	(-7.95077992e-05 4.90280035e-05 1.50644104e-01)	(-1.43951156e-04 -1.45036143e-03 7.50000000e-03)	(7.40071769e-03 7.12158203e-02 1.33800225e+00)	(-1.04101859e-04 -1.11232386e-03 1.50000000e-03)
2.45000000e-02	p              	0.00000000e+00	(-5.25000000e-04 0.00000000e+00 2.16000000e-01)	1.86966322e+01	(-1.45036143e-03 1.43951156e-04 1.50000000e-03)
2.45000000e-02	U              	(-7.95078134e-05 -4.90325392e-05 1.50644676e-01)	(-1.43951156e-04 1.45036143e-03 7.50000000e-03)	(7.40074121e-03 7.12160915e-02 1.33800315e+00)	(-1.04101859e-04 -1.11232386e-03 1.50000000e-03)
2.50000000e-02	p              	0.00000000e+00	(-5.25000000e-04 0.00000000e+00 2.16000000e-01)	1.86899901e+01	(-1.43951156e-04 -1.45036143e-03 1.50000000e-03)
2.50000000e-02	U              	(-7.95086657e-05 4.90361098e-05 1.50645177e-01)	(-1.43951156e-04 -1.45036143e-03 7.50000000e-03)	(7.40076391e-03 7.12163284e-02 1.33800391e+00)	(-1.04101859e-04 -1.11232386e-03 1.50000000e-03)
2.55000000e-02	p              	0.00000000e+00	(-5.25000000e-04 0.00000000e+00 2.16000000e-01)	1.86839559e+01	(-1.43951156e-04 1.45036143e-03 1.50000000e-03)
2.55000000e-02	U              	(-7.95087748e-05 4.90386777e-05 1.50645601e-01)	(-1.43951156e-04 -1.45036143e-03 7.50000000e-03)	(7.40078000e-03 7.12165372e-02 1.33800456e+00)	(-1.04101859e-04 -1.11232386e-03 1.50000000e-03)
2.60000000e-02	p              	0.00000000e+00	(-5.25000000e-04 0.00000000e+00 2.16000000e-01)	1.86784741e+01	(-1.45036143e-03 -1.43951156e-04 1.50000000e-03)
2.60000000e-02	U              	(-7.95093979e-05 -4.90407801e-05 1.50645947e-01)	(-1.43951156e-04 1.45036143e-03 7.50000000e-03)	(7.40079475e-03 7.12167186e-02 1.33800516e+00)	(-1.04101859e-04 -1.11232386e-03 1.50000000e-03)
2.65000000e-02	p              	0.00000000e+00	(-5.25000000e-04 0.00000000e+00 2.16000000e-01)	1.86734939e+01	(1.43951156e-04 -1.45036143e-03 1.50000000e-03)
2.65000000e-02	U              	(-7.95082964e-05 4.90424718e-05 1.50646230e-01)	(-1.43951156e-04 -1.45036143e-03 7.50000000e-03)	(7.40080632e-03 7.12168769e-02 1.33800572e+00)	(-1.04101859e-04 -1.11232386e-03 1.50000000e-03)
2.70000000e-02	p              	0.00000000e+00	(-5.25000000e-04 0.00000000e+00 2.16000000e-01)	1.86689695e+01	(-1.45036143e-03 -1.43951156e-04 1.50000000e-03)
2.70000000e-02	U              	(-7.95086543e-05 -4.90439703e-05 1.50646449e-01)	(-1.43951156e-04 1.45036143e-03 7.50000000e-03)	(7.40082033e-03 7.12170161e-02 1.33800624e+00)	(-1.04101859e-04 -1.11232386e-03 1.50000000e-03)
2.75000000e-02	p              	0.00000000e+00	(-5.25000000e-04 0.00000000e+00 2.16000000e-01)	1.86648593e+01	(-1.43951156e-04 1.45036143e-03 1.50000000e-03)
2.75000000e-02	U              	(-7.95069653e-05 -4.90452670e-05 1.50646625e-01)	(-1.43951156e-04 1.45036143e-03 7.50000000e-03)	(7.40082745e-03 7.12171326e-02 1.33800675e+00)	(-1.04101859e-04 -1.11232386e-03 1.50000000e-03)
2.80000000e-02	p              	0.00000000e+00	(-5.25000000e-04 0.00000000e+00 2.16000000e-01)	1.86611252e+01	(1.45036143e-03 -1.43951156e-04 1.50000000e-03)
2.80000000e-02	U              	(-7.95079385e-05 -4.90469151e-05 1.50646754e-01)	(-1.43951156e-04 1.45036143e-03 7.50000000e-03)	(7.40083540e-03 7.12172342e-02 1.33800724e+00)	(-1.04101859e-04 -1.11232386e-03 1.50000000e-03)
2.85000000e-02	p              	0.00000000e+00	(-5.25000000e-04 0.00000000e+00 2.16000000e-01)	1.86577324e+01	(-1.43951156e-04 -1.45036143e-03 1.50000000e-03)
2.85000000e-02	U              	(-7.95076493e-05 4.90478726e-05 1.50646850e-01)	(-1.43951156e-04 -1.45036143e-03 7.50000000e-03)	(7.40084050e-03 7.12173230e-02 1.33800769e+00)	(-1.04101859e-04 -1.11232386e-03 1.50000000e-03)
2.90000000e-02	p              	0.00000000e+00	(-5.25000000e-04 0.00000000e+00 2.16000000e-01)	1.86546925e+01	(-1.45036143e-03 1.43951156e-04 1.50000000e-03)
2.90000000e-02	U              	(-7.95073711e-05 -4.90490853e-05 1.50646941e-01)	(-1.43951156e-04 1.45036143e-03 7.50000000e-03)	(7.40084993e-03 7.12173955e-02 1.33800811e+00)	(-1.04101859e-04 -1.11232386e-03 1.50000000e-03)
2.95000000e-02	p              	0.00000000e+00	(-5.25000000e-04 0.00000000e+00 2.16000000e-01)	1.86518353e+01	(1.45036143e-03 1.43951156e-04 1.50000000e-03)
2.95000000e-02	U              	(-7.95062597e-05 4.90502268e-05 1.50646980e-01)	(-1.43951156e-04 -1.45036143e-03 7.50000000e-03)	(7.40085351e-03 7.12174584e-02 1.33800848e+00)	(-1.04101859e-04 -1.11232386e-03 1.50000000e-03)
3.00000000e-02	p              	0.00000000e+00	(-5.25000000e-04 0.00000000e+00 2.16000000e-01)	1.86493071e+01	(-1.43951156e-04 1.45036143e-03 1.50000000e-03)
3.00000000e-02	U              	(-7.95046137e-05 4.90512145e-05 1.50647022e-01)	(-1.43951156e-04 -1.45036143e-03 7.50000000e-03)	(7.40085755e-03 7.12175119e-02 1.33800882e+00)	(-1.04101859e-04 -1.11232386e-03 1.50000000e-03)
3.05000000e-02	p              	0.00000000e+00	(-5.25000000e-04 0.00000000e+00 2.16000000e-01)	1.86469961e+01	(-1.45036143e-03 -1.43951156e-04 1.50000000e-03)
3.05000000e-02	U              	(-7.95055810e-05 -4.90518464e-05 1.50647062e-01)	(-1.43951156e-04 1.45036143e-03 7.50000000e-03)	(7.40086270e-03 7.12175577e-02 1.33800912e+00)	(-1.04101859e-04 -1.11232386e-03 1.50000000e-03)
3.10000000e-02	p              	0.00000000e+00	(-5.25000000e-04 0.00000000e+00 2.16000000e-01)	1.86448975e+01	(1.45036143e-03 1.43951156e-04 1.50000000e-03)
3.10000000e-02	U              	(-7.95046655e-05 4.90529826e-05 1.50647098e-01)	(-1.43951156e-04 -1.45036143e-03 7.50000000e-03)	(7.40086301e-03 7.12175956e-02 1.33800940e+00)	(-1.04101859e-04 -1.11232386e-03 1.50000000e-03)
3.15000000e-02	p              	0.00000000e+00	(-5.25000000e-04 0.00000000e+00 2.16000000e-01)	1.86429902e+01	(-1.43951156e-04 1.45036143e-03 1.50000000e-03)
3.15000000e-02	U              	(-7.95047846e-05 4.90536423e-05 1.50647122e-01)	(-1.43951156e-04 -1.45036143e-03 7.50000000e-03)	(7.40086324e-03 7.12176284e-02 1.33800964e+00)	(-1.04101859e-04 -1.11232386e-03 1.50000000e-03)
3.20000000e-02	p              	0.00000000e+00	(-5.25000000e-04 0.00000000e+00 2.16000000e-01)	1.86412584e+01	(1.43951156e-04 1.45036143e-03 1.50000000e-03)
3.20000000e-02	U              	(-7.95049315e-05 4.90543408e-05 1.50647151e-01)	(-1.43951156e-04 -1.45036143e-03 7.50000000e-03)	(7.40086884e-03 7.12176580e-02 1.33800985e+00)	(-1.04101859e-04 -1.11232386e-03 1.50000000e-03)
3.25000000e-02	p              	0.00000000e+00	(-5.25000000e-04 0.00000000e+00 2.16000000e-01)	1.86396849e+01	(-1.43951156e-04 1.45036143e-03 1.50000000e-03)
3.25000000e-02	U              	(-7.95059680e-05 -4.90548625e-05 1.50647178e-01)	(-1.43951156e-04 1.45036143e-03 7.50000000e-03)	(7.40087031e-03 7.12176813e-02 1.33801000e+00)	(-1.04101859e-04 -1.11232386e-03 1.50000000e-03)
3.30000000e-02	p              	0.00000000e+00	(-5.25000000e-04 0.00000000e+00 2.16000000e-01)	1.86382558e+01	(-1.45036143e-03 -1.43951156e-04 1.50000000e-03)
3.30000000e-02	U              	(-7.95046291e-05 4.90554166e-05 1.50647202e-01)	(-1.43951156e-04 -1.45036143e-03 7.50000000e-03)	(7.40087286e-03 7.12177020e-02 1.33801014e+00)	(-1.04101859e-04 -1.11232386e-03 1.50000000e-03)
3.35000000e-02	p              	0.00000000e+00	(-5.25000000e-04 0.00000000e+00 2.16000000e-01)	1.86369585e+01	(1.45036143e-03 1.43951156e-04 1.50000000e-03)
3.35000000e-02	U              	(-7.95040614e-05 -4.90558124e-05 1.50647225e-01)	(-1.43951156e-04 1.45036143e-03 7.50000000e-03)	(7.40087426e-03 7.12177226e-02 1.33801026e+00)	(-1.04101859e-04 -1.11232386e-03 1.50000000e-03)
3.40000000e-02	p              	0.00000000e+00	(-5.25000000e-04 0.00000000e+00 2.16000000e-01)	1.86357794e+01	(1.45036143e-03 -1.43951156e-04 1.50000000e-03)
3.40000000e-02	U              	(-7.95037600e-05 4.90562099e-05 1.50647246e-01)	(-1.43951156e-04 -1.45036143e-03 7.50000000e-03)	(7.40087581e-03 7.12177367e-02 1.33801037e+00)	(-1.04101859e-04 -1.11232386e-03 1.50000000e-03)
3.45000000e-02	p              	0.00000000e+00	(-5.25000000e-04 0.00000000e+00 2.16000000e-01)	1.86347096e+01	(-1.45036143e-03 -1.43951156e-04 1.50000000e-03)
3.45000000e-02	U              	(-7.95039540e-05 4.90565687e-05 1.50647270e-01)	(-1.43951156e-04 -1.45036143e-03 7.50000000e-03)	(7.40087742e-03 7.12177501e-02 1.33801046e+00)	(-1.04101859e-04 -1.11232386e-03 1.50000000e-03)
3.50000000e-02	p              	0.00000000e+00	(-5.25000000e-04 0.00000000e+00 2.16000000e-01)	1.86337387e+01	(-1.43951156e-04 1.45036143e-03 1.50000000e-03)
3.50000000e-02	U              	(-7.95039762e-05 4.90567330e-05 1.50647296e-01)	(-1.43951156e-04 -1.45036143e-03 7.50000000e-03)	(7.40087831e-03 7.12177621e-02 1.33801055e+00)	(-1.04101859e-04 -1.11232386e-03 1.50000000e-03)
3.55000000e-02	p              	0.00000000e+00	(-5.25000000e-04 0.00000000e+00 2.16000000e-01)	1.86328559e+01	(1.45036143e-03 1.43951156e-04 1.50000000e-03)
3.55000000e-02	U              	(-7.95042139e-05 -4.90569382e-05 1.50647296e-01)	(-1.43951156e-04 1.45036143e-03 7.50000000e-03)	(7.40087853e-03 7.12177734e-02 1.33801059e+00)	(-1.04101859e-04 -1.11232386e-03 1.50000000e-03)
3.60000000e-02	p              	0.00000000e+00	(-5.25000000e-04 0.00000000e+00 2.16000000e-01)	1.86320550e+01	(1.45036143e-03 -1.43951156e-04 1.50000000e-03)
3.60000000e-02	U              	(-7.95043044e-05 4.90570945e-05 1.50647322e-01)	(-1.43951156e-04 -1.45036143e-03 7.50000000e-03)	(7.40087960e-03 7.12177830e-02 1.33801065e+00)	(-1.04101859e-04 -1.11232386e-03 1.50000000e-03)
3.65000000e-02	p              	0.00000000e+00	(-5.25000000e-04 0.00000000e+00 2.16000000e-01)	1.86313271e+01	(1.43951156e-04 -1.45036143e-03 1.50000000e-03)
3.65000000e-02	U              	(-7.95053517e-05 4.90574873e-05 1.50647330e-01)	(-1.43951156e-04 -1.45036143e-03 7.50000000e-03)	(7.40087909e-03 7.12177916e-02 1.33801069e+00)	(-1.04101859e-04 -1.11232386e-03 1.50000000e-03)
3.70000000e-02	p              	0.00000000e+00	(-5.25000000e-04 0.00000000e+00 2.16000000e-01)	1.86306666e+01	(1.45036143e-03 -1.43951156e-04 1.50000000e-03)
3.70000000e-02	U              	(-7.95032804e-05 4.90573309e-05 1.50647341e-01)	(-1.43951156e-04 -1.45036143e-03 7.50000000e-03)	(7.40088028e-03 7.12177983e-02 1.33801072e+00)	(-1.04101859e-04 -1.11232386e-03 1.50000000e-03)
3.75000000e-02	p              	0.00000000e+00	(-5.25000000e-04 0.00000000e+00 2.16000000e-01)	1.86300670e+01	(1.45036143e-03 1.43951156e-04 1.50000000e-03)
3.75000000e-02	U              	(-7.95035322e-05 4.90574752e-05 1.50647355e-01)	(-1.43951156e-04 -1.45036143e-03 7.50000000e-03)	(7.40087983e-03 7.12178038e-02 1.33801076e+00)	(-1.04101859e-04 -1.11232386e-03 1.50000000e-03)
3.80000000e-02	p              	0.00000000e+00	(-5.25000000e-04 0.00000000e+00 2.16000000e-01)	1.86295226e+01	(1.45036143e-03 1.43951156e-04 1.50000000e-03)
3.80000000e-02	U              	(-7.95041286e-05 4.90576349e-05 1.50647361e-01)	(-1.43951156e-04 -1.45036143e-03 7.50000000e-03)	(7.40088145e-03 7.12178094e-02 1.33801080e+00)	(-1.04101859e-04 -1.11232386e-03 1.50000000e-03)
3.85000000e-02	p              	0.00000000e+00	(-5.25000000e-04 0.00000000e+00 2.16000000e-01)	1.86290279e+01	(1.45036143e-03 -1.43951156e-04 1.50000000e-03)
3.85000000e-02	U              	(-7.95035213e-05 4.90576436e-05 1.50647372e-01)	(-1.43951156e-04 -1.45036143e-03 7.50000000e-03)	(7.40087935e-03 7.12178143e-02 1.33801083e+00)	(-1.04101859e-04 -1.11232386e-03 1.50000000e-03)
3.90000000e-02	p              	0.00000000e+00	(-5.25000000e-04 0.00000000e+00 2.16000000e-01)	1.86285796e+01	(-1.43951156e-04 1.45036143e-03 1.50000000e-03)
3.90000000e-02	U              	(-7.95035252e-05 4.90576167e-05 1.50647367e-01)	(-1.43951156e-04 -1.45036143e-03 7.50000000e-03)	(7.40088113e-03 7.12178207e-02 1.33801085e+00)	(-1.04101859e-04 -1.11232386e-03 1.50000000e-03)
3.95000000e-02	p              	0.00000000e+00	(-5.25000000e-04 0.00000000e+00 2.16000000e-01)	1.86281730e+01	(1.45036143e-03 -1.43951156e-04 1.50000000e-03)