/*--------------------------------*- C++ -*----------------------------------*\
| =========                 |                                                 |
| \\      /  F ield         | OpenFOAM: The Open Source CFD Toolbox           |
|  \\    /   O peration     | Version:  2112                                  |
|   \\  /    A nd           | Website:  www.openfoam.com                      |
|    \\/     M anipulation  |                                                 |
\*---------------------------------------------------------------------------*/
FoamFile
{
    version     2.0;
    format      ascii;
    arch        "LSB;label=32;scalar=64";
    class       surfaceScalarField;
    location    "48.5";
    object      phi;
}
// * * * * * * * * * * * * * * * * * * * * * * * * * * * * * * * * * * * * * //

dimensions      [0 3 -1 0 0 0 0];

oriented        oriented;

internalField   nonuniform List<scalar> 
17370
(
-0.0916071
0.0960092
0.284609
-0.0775945
0.0594198
0.36495
-0.0430427
0.0316238
0.427587
-0.0223204
0.016268
0.505304
-0.0116746
0.00880034
0.602276
-0.00658903
0.0051051
0.720541
-0.00387058
0.00299252
0.863785
-0.00222114
0.00164351
1.03603
-0.00111229
0.000691714
1.24292
-0.000281476
-0.000110645
1.49158
0.000497675
-0.000909076
1.4916
0.0013117
-0.00181537
1.24319
0.0023664
-0.00311175
1.03638
0.00397228
-0.00519484
0.864129
0.00667178
-0.00887537
0.721261
0.0117395
-0.0163179
0.603793
0.0223552
-0.0316425
0.508727
0.0430448
-0.0594118
0.432535
0.0775898
-0.0960043
0.36519
0.0916205
0.19739
-0.127089
0.0880194
0.0390696
-0.364353
0.354027
-0.0714785
0.0818051
-0.446654
0.454251
-0.0791734
0.0715771
-0.521011
0.529106
-0.0637271
0.0556314
-0.61299
0.620758
-0.0482459
0.0404776
-0.727162
0.733682
-0.0338664
0.0273469
-0.86758
0.872429
-0.0221453
0.0172966
-1.03856
1.0419
-0.0136009
0.0102628
-1.24472
1.24712
-0.0077126
0.00530744
-1.49284
1.49485
-0.00334386
0.00132979
-1.49269
1.49451
0.000489832
-0.00230894
-1.24411
1.24602
0.00428088
-0.00619104
-1.03761
1.04009
0.00852663
-0.0110076
-0.866187
0.869821
0.0142699
-0.0179033
-0.724595
0.729753
0.0226951
-0.0278535
-0.609065
0.615636
0.0343299
-0.0409006
-0.515124
0.522461
0.0486213
-0.055958
-0.43988
0.44766
0.0639825
-0.0717633
-0.374709
0.377356
0.0792632
-0.0819095
-0.2569
0.22444
0.0715599
-0.0390999
-0.0688062
0.0591921
0.0096141
-0.0521194
0.0589499
-0.374834
0.368003
-0.0581053
0.0542658
-0.453943
0.457783
-0.0487813
0.0442244
-0.527614
0.532171
-0.0396771
0.0357835
-0.620798
0.624691
-0.0315734
0.0275815
-0.734656
0.738648
-0.0232285
0.0193438
-0.873951
0.877835
-0.0153003
0.0118439
-1.04336
1.04681
-0.00832511
0.00529317
-1.24865
1.25168
-0.00208606
-0.000894405
-1.49694
1.49992
0.00385308
-0.00699962
-1.49742
1.50057
0.00994396
-0.0133456
-1.25007
1.25347
0.0166849
-0.0205977
-1.04565
1.04957
0.0243706
-0.0286152
-0.877139
0.881384
0.0325203
-0.0366435
-0.738985
0.743108
0.040463
-0.0449363
-0.625974
0.630447
0.0494314
-0.0548556
-0.535019
0.540443
0.0586261
-0.0593886
-0.458079
0.458841
0.0524457
-0.0320607
-0.336769
0.316384
0.0096722
-0.0686664
0.0589942
-0.0534019
0.0492884
0.00411351
-0.0332561
0.0436855
-0.358554
0.348124
-0.0473667
0.0467842
-0.459574
0.460157
-0.0438606
0.0406525
-0.536127
0.539335
-0.0369801
0.033629
-0.628388
0.63174
-0.0299987
0.0267606
-0.742025
0.745263
-0.0233111
0.0201158
-0.881326
0.884521
-0.016525
0.0131756
-1.05024
1.05358
-0.00947949
0.00607698
-1.25494
1.25834
-0.00228772
-0.00132775
-1.50327
1.50689
0.00491255
-0.00861297
-1.50407
1.50777
0.0118944
-0.0154281
-1.25703
1.26057
0.0186142
-0.0220196
-1.05327
1.05668
0.0250526
-0.0283418
-0.884989
0.888278
0.0314506
-0.0349542
-0.74679
0.750293
0.0381972
-0.0417565
-0.634569
0.638129
0.0448663
-0.0476797
-0.544588
0.547402
0.0481484
-0.0443091
-0.45696
0.453121
0.0336855
-0.0163756
-0.29707
0.279761
0.00417756
-0.0531456
0.0489681
-0.0461178
0.0435601
0.00255779
-0.0230623
0.0334196
-0.337528
0.327171
-0.0391613
0.0401161
-0.459905
0.45895
-0.0388709
0.0365474
-0.54199
0.544314
-0.0339099
0.0313673
-0.634704
0.637246
-0.0283944
0.0255505
-0.748344
0.751188
-0.022317
0.0193066
-0.887571
0.890582
-0.015959
0.0128284
-1.05675
1.05988
-0.0092765
0.00588129
-1.26173
1.26513
-0.0019758
-0.00181815
-1.51062
1.51441
0.00557336
-0.00936193
-1.51155
1.51534
0.0126002
-0.015942
-1.26403
1.26737
0.0188602
-0.0219653
-1.05988
1.06299
0.0247583
-0.0277697
-0.891474
0.894485
0.0304321
-0.0332279
-0.753472
0.756268
0.0356223
-0.0381095
-0.641084
0.643571
0.0403049
-0.0413804
-0.54924
0.550316
0.0402501
-0.0342518
-0.448001
0.442003
0.0236124
-0.0103696
-0.264579
0.251336
0.00263708
-0.045726
0.0430889
-0.0414402
0.0396376
0.0018026
-0.0169606
0.0262549
-0.317296
0.308002
-0.0328608
0.0349891
-0.457387
0.455259
-0.034562
0.0328687
-0.546342
0.548035
-0.0306462
0.0285221
-0.639554
0.641678
-0.0260885
0.0237138
-0.753782
0.756157
-0.0209031
0.0181606
-0.893431
0.896174
-0.0149816
0.0119532
-1.06292
1.06595
-0.00849516
0.0051859
-1.26844
1.27175
-0.00135204
-0.00239111
-1.51818
1.52192
0.00608484
-0.0097713
-1.51908
1.52277
0.0128808
-0.0160714
-1.27065
1.27384
0.0188302
-0.0217004
-1.06601
1.06888
0.0241642
-0.0266883
-0.897271
0.899795
0.0288277
-0.0310323
-0.75871
0.760915
0.0329664
-0.034995
-0.6458
0.647829
0.0365012
-0.0366972
-0.550901
0.551097
0.0342989
-0.0273181
-0.435419
0.428438
0.0176466
-0.00746741
-0.239768
0.229589
0.00189973
-0.0408817
0.0389819
-0.0380862
0.0367321
0.0013541
-0.0129638
0.0209731
-0.299355
0.291345
-0.0277525
0.0306841
-0.4527
0.449769
-0.0308993
0.0297808
-0.54947
0.550588
-0.027786
0.0258628
-0.64373
0.645653
-0.0236544
0.0215169
-0.758393
0.760531
-0.0190146
0.016553
-0.898715
0.901176
-0.0136424
0.0107969
-1.06884
1.07169
-0.00747807
0.00427122
-1.27497
1.27818
-0.000548608
-0.00307309
-1.52558
1.5292
0.006633
-0.0101711
-1.52638
1.52992
0.0131298
-0.0161171
-1.27696
1.27995
0.0186272
-0.021152
-1.0716
1.07413
0.0232637
-0.0254035
-0.902111
0.90425
0.0272405
-0.0291553
-0.762961
0.764876
0.0308392
-0.0326039
-0.649699
0.651464
0.0334505
-0.0329116
-0.550931
0.550393
0.0295935
-0.0223008
-0.421246
0.413953
0.0138081
-0.00576298
-0.220579
0.212534
0.00147252
-0.0373241
0.0358515
-0.0355491
0.0345052
0.00104397
-0.0101414
0.0169274
-0.283973
0.277187
-0.0234607
0.0268594
-0.446587
0.443188
-0.0276574
0.0269751
-0.551483
0.552165
-0.0252186
0.0234428
-0.64754
0.649316
-0.0213889
0.0193908
-0.762593
0.764591
-0.0170393
0.0147313
-0.903493
0.905801
-0.0120166
0.00935492
-1.07437
1.07703
-0.00622265
0.00316353
-1.28127
1.28433
0.00041281
-0.00389335
-1.53273
1.53621
0.00729855
-0.0106468
-1.53336
1.53671
0.0133992
-0.0161212
-1.28282
1.28554
0.0183691
-0.020608
-1.07652
1.07876
0.0224828
-0.0243836
-0.906281
0.908182
0.0260079
-0.0276967
-0.766671
0.76836
0.0291747
-0.0306111
-0.653079
0.654516
0.0309499
-0.0297007
-0.54951
0.548261
0.0257707
-0.0185644
-0.406681
0.399475
0.0111733
-0.00463009
-0.205312
0.198768
0.00118771
-0.0345392
0.0333515
-0.0335877
0.032773
0.000814703
-0.00805072
0.0137653
-0.270968
0.265253
-0.019826
0.0234342
-0.439678
0.43607
-0.0247199
0.0242903
-0.552755
0.553184
-0.0228118
0.0211508
-0.651082
0.652743
-0.0191985
0.0172949
-0.766536
0.768439
-0.0150511
0.0128461
-0.90799
0.910195
-0.0102493
0.00771031
-1.07956
1.0821
-0.00473385
0.00182532
-1.28727
1.29018
0.00157747
-0.00488767
-1.53958
1.54289
0.00810579
-0.0112312
-1.53994
1.54307
0.0137641
-0.0162393
-1.28816
1.29063
0.0182704
-0.0202824
-1.08091
1.08292
0.0219551
-0.0236433
-0.909994
0.911682
0.0250837
-0.0265815
-0.769954
0.771451
0.0278704
-0.0289401
-0.655742
0.656812
0.0289191
-0.027012
-0.546688
0.544781
0.0226984
-0.0157772
-0.392407
0.385485
0.00931237
-0.00384289
-0.192813
0.187344
0.000989777
-0.0322765
0.0312867
-0.0320558
0.031418
0.000637865
-0.00644154
0.0112405
-0.260025
0.255226
-0.0167206
0.0203414
-0.432457
0.428836
-0.0219626
0.0217665
-0.553536
0.553732
-0.0205296
0.0189366
-0.654419
0.656012
-0.0170499
0.0152058
-0.770307
0.772151
-0.013033
0.0108984
-0.912287
0.914421
-0.00838438
0.00592866
-1.08451
1.08697
-0.00305809
0.000272574
-1.29297
1.29575
0.00296878
-0.00609763
-1.54607
1.5492
0.00911299
-0.0120143
-1.54607
1.54897
0.0143471
-0.0166089
-1.29302
1.29528
0.0184462
-0.0202469
-1.08485
1.08665
0.0217296
-0.0232211
-0.913295
0.914786
0.0244968
-0.0258232
-0.772878
0.774204
0.0269684
-0.0276371
-0.657661
0.658329
0.0272578
-0.0248092
-0.54262
0.540171
0.0202698
-0.0137049
-0.378753
0.372188
0.00798103
-0.00328747
-0.182303
0.177609
0.000850869
-0.0303787
0.0295279
-0.030859
0.0303637
0.000495288
-0.00514912
0.00915821
-0.250848
0.246839
-0.0140104
0.0174936
-0.425291
0.421808
-0.0193126
0.0193211
-0.553871
0.553862
-0.0182981
0.0167543
-0.657651
0.659195
-0.0149051
0.0130877
-0.773973
0.775791
-0.0109444
0.00884353
-0.916451
0.918552
-0.00637903
0.0039827
-1.08931
1.0917
-0.00119284
-0.00149939
-1.29842
1.30112
0.00460596
-0.00757509
-1.55221
1.55518
0.0104063
-0.0131002
-1.55175
1.55445
0.0152396
-0.0172861
-1.29746
1.29951
0.0189283
-0.0205211
-1.08839
1.08998
0.021825
-0.023138
-0.916215
0.917528
0.0242651
-0.0254301
-0.775463
0.776628
0.0263876
-0.0266907
-0.658785
0.659088
0.0259357
-0.0230396
-0.53751
0.534614
0.0183822
-0.012176
-0.365823
0.359617
0.00702904
-0.00289698
-0.173231
0.169099
0.000754607
-0.0287371
0.0279825
-0.0299355
0.0295601
0.000375407
-0.00406943
0.00738547
-0.243199
0.239883
-0.0115985
0.0148349
-0.418462
0.415225
-0.0167249
0.0168971
-0.553828
0.553656
-0.0159656
0.0145008
-0.660781
0.662246
-0.0126552
0.0108318
-0.777599
0.779423
-0.00868615
0.00659307
-0.920548
0.922641
-0.00415146
0.00178909
-1.09398
1.09634
0.000941123
-0.00356131
-1.3037
1.30632
0.00655427
-0.00937817
-1.55803
1.56085
0.0120355
-0.0145284
-1.55702
1.55951
0.0164778
-0.0183137
-1.30147
1.3033
0.0197657
-0.0211549
-1.09152
1.09291
0.0222799
-0.0234126
-0.918789
0.919922
0.0243917
-0.0253932
-0.777742
0.778743
0.0261046
-0.0261161
-0.659244
0.659256
0.0249694
-0.02169
-0.531533
0.528254
0.0169695
-0.0110773
-0.353597
0.347705
0.00636431
-0.00263099
-0.1652
0.161467
0.000691091
-0.0272723
0.0265812
-0.0292446
0.0289761
0.000268508
-0.00312344
0.0058141
-0.2369
0.234209
-0.00938815
0.0122961
-0.412173
0.409265
-0.0141484
0.0144212
-0.553498
0.553225
-0.0135516
0.0121489
-0.663772
0.665175
-0.0102956
0.00844391
-0.781242
0.783093
-0.00626192
0.00413888
-0.924632
0.926755
-0.0016747
-0.000687089
-1.09859
1.10095
0.00340188
-0.00597555
-1.30884
1.31141
0.00888089
-0.0115832
-1.56356
1.56626
0.014083
-0.0163809
-1.56188
1.56418
0.0181403
-0.0197622
-1.30506
1.30668
0.0210203
-0.0222023
-1.09425
1.09544
0.0231465
-0.0241023
-0.92101
0.921966
0.0249372
-0.0257694
-0.779674
0.780506
0.02622
-0.0259745
-0.659129
0.658883
0.0244066
-0.020758
-0.524812
0.521163
0.0159823
-0.0103317
-0.341974
0.336323
0.00592728
-0.00246331
-0.157903
0.154439
0.000653693
-0.025923
0.0252693
-0.028764
0.028597
0.000166927
-0.00224776
0.00435142
-0.23183
0.229727
-0.00727989
0.00978555
-0.406584
0.404078
-0.0114867
0.0117772
-0.553018
0.552727
-0.0109343
0.00955572
-0.66667
0.668049
-0.00766918
0.00576133
-0.784944
0.786852
-0.00351181
0.00133243
-0.928774
0.930953
0.00117827
-0.00357219
-1.10321
1.10561
0.00629155
-0.00884369
-1.31388
1.31644
0.011685
-0.0142813
-1.56885
1.57145
0.016632
-0.0187388
-1.56635
1.56846
0.0203096
-0.0217157
-1.30822
1.30962
0.0227739
-0.0237332
-1.09659
1.09754
0.0244728
-0.0252194
-0.922874
0.923621
0.0258836
-0.0265584
-0.781248
0.781923
0.0267151
-0.0261355
-0.658413
0.657834
0.0241611
-0.0201811
-0.517395
0.513415
0.0153485
-0.00986528
-0.330808
0.325325
0.00566559
-0.00237018
-0.151097
0.147801
0.000635671
-0.0246405
0.0240049
-0.0284856
0.0284207
6.48431e-05
-0.00139531
0.00292591
-0.227927
0.226397
-0.00519311
0.00723239
-0.401833
0.399794
-0.00867987
0.00890653
-0.55256
0.552333
-0.0080416
0.00664679
-0.669563
0.670958
-0.00468421
0.0026885
-0.788764
0.79076
-0.00033765
-0.00192874
-0.933022
0.935288
0.00452261
-0.0069759
-1.10789
1.11035
0.00973573
-0.0122901
-1.31889
1.32144
0.0150818
-0.0175719
-1.57392
1.57641
0.0197647
-0.0216661
-1.57043
1.57233
0.0230317
-0.0242022
-1.31093
1.3121
0.0250417
-0.0257609
-1.09847
1.09919
0.0262819
-0.0268119
-0.924343
0.924873
0.0273127
-0.027804
-0.782464
0.782955
0.0276763
-0.0267133
-0.656989
0.656026
0.0243189
-0.0199872
-0.509331
0.504999
0.0150565
-0.00965047
-0.319946
0.31454
0.00555864
-0.00234364
-0.144589
0.141374
0.000635718
-0.0233873
0.0227516
-0.0284122
0.0284558
-4.36503e-05
-0.000516633
0.00146642
-0.225172
0.224222
-0.00304226
0.00454964
-0.398048
0.39654
-0.00564412
0.00573154
-0.552287
0.5522
-0.00480392
0.0033556
-0.672531
0.673979
-0.00130188
-0.000810591
-0.792757
0.79487
0.00330581
-0.00570221
-0.937446
0.939842
0.00843047
-0.0109865
-1.1127
1.11526
0.0138268
-0.0164147
-1.3239
1.32649
0.0191872
-0.0215952
-1.57879
1.5812
0.0236433
-0.0253396
-1.57408
1.57578
0.026494
-0.027419
-1.31317
1.31409
0.028027
-0.028484
-1.09989
1.10034
0.0287647
-0.0290492
-0.925379
0.925663
0.0293493
-0.0295632
-0.783184
0.783398
0.0291716
-0.0277343
-0.654772
0.653335
0.0248802
-0.0201682
-0.500586
0.495874
0.0150882
-0.00966681
-0.309207
0.303786
0.00559184
-0.00237708
-0.138208
0.134993
0.000651889
-0.0221282
0.0214763
-0.0285551
0.0287149
-0.000159755
0.000412474
-7.56639e-05
-0.223593
0.223256
-0.000757765
0.0016493
-0.395359
0.394467
-0.00227824
0.00213221
-0.552367
0.552513
-0.00107679
-0.000495178
-0.675664
0.677236
0.00269589
-0.00497406
-0.796989
0.799267
0.00765988
-0.0102241
-0.942128
0.944692
0.0131197
-0.0158066
-1.11771
1.1204
0.0187571
-0.0214033
-1.32899
1.33163
0.0241757
-0.0265043
-1.58349
1.58581
0.0283955
-0.0298597
-1.57732
1.57878
0.030775
-0.0314094
-1.31488
1.31552
0.0317506
-0.0319261
-1.10077
1.10095
0.0319515
-0.0319705
-0.92592
0.925939
0.0320513
-0.0319463
-0.783259
0.783154
0.0312248
-0.0292422
-0.651628
0.649645
0.0258859
-0.0207449
-0.491097
0.485956
0.0154438
-0.00990469
-0.298401
0.292862
0.00575663
-0.00246629
-0.131796
0.128505
0.000682923
-0.0208317
0.0201488
-0.0289541
0.029254
-0.000299823
0.0014139
-0.00173074
-0.223279
0.223596
0.00174624
-0.00157912
-0.393899
0.393732
0.00154563
-0.00203031
-0.553026
0.55351
0.00330275
-0.00505824
-0.679111
0.680867
0.00747339
-0.00996417
-0.801547
0.804038
0.0128866
-0.0156596
-0.947139
0.949912
0.0187709
-0.0216335
-1.12299
1.12585
0.0247374
-0.0274684
-1.33419
1.33692
0.0302483
-0.0324873
-1.58801
1.59025
0.0341967
-0.0353913
-1.58006
1.58125
0.0360417
-0.0363531
-1.31599
1.31631
0.0363949
-0.0362513
-1.10105
1.1009
0.0359865
-0.0357054
-0.925904
0.925623
0.0355603
-0.0350425
-0.782597
0.782079
0.0339232
-0.0313113
-0.647457
0.644845
0.0273905
-0.0217405
-0.480753
0.475103
0.0161282
-0.0103618
-0.287323
0.281556
0.00605025
-0.00260988
-0.125202
0.121762
0.000728547
-0.0194686
0.0187401
-0.0296261
0.0301037
-0.000477566
0.0027092
-0.0037811
-0.224301
0.225373
0.00467066
-0.00530147
-0.393891
0.394522
0.00598007
-0.00689847
-0.554497
0.555415
0.00844624
-0.0104329
-0.68298
0.684966
0.013123
-0.0158865
-0.806528
0.809292
0.0191213
-0.0221775
-0.952579
0.955635
0.0255815
-0.0286773
-1.12863
1.13173
0.0319801
-0.0348237
-1.33956
1.3424
0.0376302
-0.0397795
-1.59235
1.59449
0.0412884
-0.0421799
-1.58224
1.58313
0.0425009
-0.0424479
-1.31642
1.31637
0.0421532
-0.0416543
-1.10061
1.10011
0.0410671
-0.0404434
-0.925231
0.924607
0.0399847
-0.0389905
-0.781039
0.780044
0.0373533
-0.0340172
-0.642092
0.638756
0.0294391
-0.0231801
-0.469393
0.463134
0.0171518
-0.0110385
-0.275752
0.269639
0.00646959
-0.00280487
-0.118282
0.114617
0.000787223
-0.0180111
0.0172239
-0.0306525
0.0313473
-0.000694843
0.00419965
-0.00616188
-0.226867
0.228829
0.00813557
-0.00966886
-0.395555
0.397088
0.0111723
-0.0126645
-0.557007
0.558499
0.0146365
-0.0169548
-0.687386
0.689704
0.0200219
-0.0231437
-0.812058
0.81518
0.026773
-0.0301748
-0.958596
0.961998
0.0339273
-0.0372981
-1.13474
1.13811
0.0408334
-0.0438031
-1.34514
1.34811
0.0466252
-0.0486494
-1.59647
1.5985
0.0499048
-0.0504386
-1.58377
1.58431
0.0503642
-0.049892
-1.31607
1.3156
0.0491993
-0.0482824
-1.09938
1.09847
0.0473286
-0.0463198
-0.9238
0.922791
0.0454242
-0.0439262
-0.778487
0.776989
0.0416312
-0.0374657
-0.635331
0.631166
0.032121
-0.0251181
-0.456809
0.449806
0.0185425
-0.0119462
-0.263445
0.256849
0.00701836
-0.00305136
-0.110883
0.106916
0.000858556
-0.0164329
0.0155743
-0.0321106
0.0330919
-0.00098136
0.00607889
-0.00911386
-0.231222
0.234257
0.0123313
-0.0149237
-0.399154
0.401746
0.0174035
-0.019606
-0.560862
0.563064
0.0221656
-0.0249526
-0.692563
0.69535
0.0285291
-0.0321055
-0.81831
0.821886
0.0362133
-0.0400258
-0.965305
0.969117
0.0441883
-0.0478757
-1.14139
1.14508
0.0516671
-0.0547592
-1.35096
1.35405
0.0575602
-0.0593992
-1.6003
1.60214
0.0603264
-0.0604089
-1.58454
1.58462
0.0598824
-0.0588877
-1.3148
1.31381
0.0577292
-0.0563183
-1.09722
1.09581
0.0549327
-0.0534756
-0.921506
0.920049
0.0520737
-0.049983
-0.774891
0.7728
0.0469229
-0.0417739
-0.626933
0.621784
0.035506
-0.0275873
-0.442721
0.434803
0.0203121
-0.0130822
-0.250128
0.242899
0.00768884
-0.00334296
-0.102853
0.098507
0.000939925
-0.0147102
0.0137703
-0.0341305
0.0354999
-0.00136932
0.00853437
-0.0129134
-0.237707
0.242086
0.0176167
-0.0214427
-0.405045
0.408871
0.0250521
-0.028092
-0.566384
0.569424
0.0313855
-0.0347771
-0.698783
0.702175
0.0390086
-0.0431666
-0.825477
0.829635
0.0478866
-0.0522192
-0.972858
0.977191
0.056882
-0.0609316
-1.14868
1.15273
0.0649821
-0.0681564
-1.35698
1.36016
0.0708508
-0.0723914
-1.60369
1.60523
0.0728607
-0.0723525
-1.58432
1.58381
0.0712704
-0.0696478
-1.31237
1.31075
0.0679608
-0.0659918
-1.09396
1.09199
0.0641163
-0.0621586
-0.918226
0.916268
0.0601325
-0.0573455
-0.770049
0.767262
0.0533574
-0.0470251
-0.616578
0.610246
0.0396482
-0.0306083
-0.426797
0.417757
0.0224542
-0.0144248
-0.235505
0.227475
0.00845792
-0.00366451
-0.0940448
0.0892514
0.00102552
-0.0128263
0.0118008
-0.0369067
0.0388387
-0.00193195
0.0119417
-0.0180252
-0.246824
0.252908
0.0245283
-0.0298026
-0.41371
0.418984
0.0347524
-0.0388189
-0.573925
0.577992
0.0430581
-0.0472531
-0.706334
0.710529
0.0523366
-0.0572203
-0.833813
0.838697
0.0626686
-0.067583
-0.981464
0.986378
0.0727618
-0.0771393
-1.15666
1.16104
0.0813654
-0.0845118
-1.36311
1.36625
0.0869498
-0.0880314
-1.60641
1.60749
0.0878753
-0.0866086
-1.58283
1.58157
0.0848166
-0.0824511
-1.30859
1.30622
0.0801396
-0.0775599
-1.08943
1.08685
0.075175
-0.0726098
-0.913801
0.911235
0.0699064
-0.0662076
-0.763699
0.76
0.0610969
-0.0533421
-0.603856
0.596101
0.0446162
-0.034193
-0.408627
0.398204
0.0249459
-0.0159333
-0.219253
0.21024
0.00928631
-0.00399143
-0.0843338
0.0790389
0.0011062
-0.0107775
0.00967127
-0.0407698
0.0435686
-0.0027988
0.0168641
-0.0251896
-0.259287
0.267612
0.0339149
-0.0409325
-0.425813
0.43283
0.0475144
-0.0528485
-0.58398
0.589314
0.0583287
-0.0636111
-0.715647
0.720929
0.069779
-0.0755121
-0.843591
0.849324
0.0817338
-0.0871994
-0.991203
0.996669
0.0927952
-0.0973617
-1.16522
1.16978
0.101561
-0.104456
-1.36905
1.37194
0.106352
-0.106698
-1.60805
1.6084
0.105668
-0.10343
-1.57972
1.57748
0.100771
-0.0975051
-1.30321
1.29995
0.0944508
-0.0911611
-1.0835
1.08021
0.0881963
-0.0849224
-0.907942
0.904668
0.0815354
-0.0767232
-0.755387
0.750575
0.0702509
-0.0607747
-0.58825
0.578774
0.0504135
-0.0383044
-0.387704
0.375595
0.0277215
-0.0175306
-0.201032
0.190841
0.0101085
-0.00428615
-0.0736347
0.0678123
0.00116863
-0.00858006
0.00741143
-0.0462853
0.050544
-0.00425866
0.0244849
-0.0358522
-0.276238
0.287605
0.0474482
-0.0567627
-0.442361
0.451676
0.0653322
-0.0721118
-0.597166
0.603945
0.0791079
-0.085854
-0.727167
0.733913
0.093169
-0.0996772
-0.855014
0.861522
0.10652
-0.112337
-1.00195
1.00776
0.118062
-0.122503
-1.17398
1.17842
0.126288
-0.128556
-1.37428
1.37655
0.129496
-0.128739
-1.60801
1.60725
0.126513
-0.123027
-1.5745
1.57101
0.119316
-0.115001
-1.29594
1.29162
0.111094
-0.107011
-1.07599
1.07191
0.103417
-0.0993348
-0.900438
0.896356
0.0951441
-0.0889614
-0.744654
0.738471
0.080821
-0.0692706
-0.569098
0.557548
0.0569655
-0.0428474
-0.363444
0.349326
0.0306661
-0.0191032
-0.18052
0.168957
0.0108358
-0.00450234
-0.0619417
0.0556082
0.00119717
-0.00627797
0.0050808
-0.0545096
0.0618332
-0.00732361
0.0379063
-0.0537089
-0.299792
0.315595
0.0693052
-0.0817371
-0.464955
0.477387
0.0923911
-0.100505
-0.613892
0.622005
0.108995
-0.11696
-0.741239
0.749204
0.125153
-0.132054
-0.867811
0.874712
0.138989
-0.144607
-1.01315
1.01877
0.149829
-0.153536
-1.1822
1.18591
0.156253
-0.157286
-1.37795
1.37899
0.156678
-0.15433
-1.60548
1.60313
0.150518
-0.145484
-1.56662
1.56159
0.140498
-0.134965
-1.28649
1.28096
0.130103
-0.125168
-1.0667
1.06177
0.120912
-0.116047
-0.891039
0.886175
0.110744
-0.102834
-0.730924
0.723014
0.0926557
-0.0785754
-0.545577
0.531497
0.0639547
-0.0475576
-0.33518
0.318783
0.0335828
-0.0205435
-0.157482
0.144443
0.011413
-0.00462126
-0.0493972
0.0426055
0.00118122
-0.00394727
0.00276606
-0.0686847
0.0727901
-0.00410537
0.0290276
-0.0426979
-0.33392
0.34759
0.0564936
-0.0678053
-0.494975
0.506286
0.0778713
-0.0872669
-0.633722
0.643118
0.0977046
-0.107104
-0.756759
0.766159
0.11748
-0.126682
-0.880767
0.889969
0.136401
-0.144936
-1.02345
1.03198
0.153669
-0.160938
-1.18849
1.19576
0.167825
-0.172907
-1.3788
1.38388
0.176764
-0.178343
-1.59949
1.60107
0.177582
-0.175012
-1.55544
1.55287
0.171445
-0.166753
-1.27451
1.26982
0.162418
-0.157387
-1.05551
1.05048
0.153138
-0.147965
-0.879485
0.874312
0.141329
-0.130151
-0.713338
0.702159
0.115419
-0.0957146
-0.516658
0.496954
0.0760448
-0.0545568
-0.30216
0.280672
0.0371643
-0.0217976
-0.131949
0.116582
0.0116217
-0.00451287
-0.0364109
0.029302
0.00110192
-0.00169615
0.000594229
-0.0799119
0.0780866
0.00182532
0.00742516
-0.0164235
-0.36412
0.373119
0.0268864
-0.0348812
-0.522334
0.530329
0.0429337
-0.0509438
-0.65487
0.66288
0.0605814
-0.0694295
-0.775245
0.784093
0.0787567
-0.0872292
-0.898642
0.907115
0.0961302
-0.103601
-1.04021
1.04768
0.111413
-0.117538
-1.2028
1.20893
0.123248
-0.127111
-1.38859
1.39245
0.129333
-0.12944
-1.60168
1.60179
0.1272
-0.123112
-1.54933
1.54524
0.118014
-0.111696
-1.2644
1.25809
0.105791
-0.0992236
-1.04397
1.0374
0.0932147
-0.0863639
-0.864813
0.857963
0.0792715
-0.0695874
-0.687097
0.677413
0.0586792
-0.0455111
-0.475643
0.462475
0.0336467
-0.0222645
-0.259243
0.247861
0.0141306
-0.00778534
-0.10201
0.0956649
0.00400031
-0.00153944
-0.0226417
0.0201808
0.00037464
0.000496752
-0.000871393
-0.0813566
0.0784948
0.00286184
-0.00168837
-0.00353934
-0.384504
0.389732
0.0106556
-0.0165152
-0.542508
0.548367
0.0225761
-0.0295235
-0.672874
0.679821
0.0378684
-0.0455571
-0.792083
0.799772
0.0538867
-0.0612842
-0.91486
0.922258
0.0688043
-0.0754669
-1.05497
1.06163
0.0822181
-0.0875805
-1.2146
1.21996
0.0920983
-0.0948626
-1.3956
1.39837
0.0961983
-0.0952775
-1.6011
1.60018
0.0920279
-0.0869392
-1.54041
1.53532
0.0810677
-0.0741363
-1.25145
1.24452
0.0672701
-0.0598274
-1.02969
1.02225
0.0529593
-0.0453005
-0.848396
0.840737
0.0383744
-0.0301342
-0.664095
0.655855
0.0220957
-0.013706
-0.447394
0.439004
0.0078018
-0.00360099
-0.235754
0.231553
0.00149405
-0.00047426
-0.0889613
0.0879415
0.000161236
-7.5854e-05
-0.0174643
0.017379
-1.15433e-05
0.00136953
-0.00135798
-0.0801356
0.077443
0.00269255
-0.00523319
0.00270378
-0.398113
0.400642
0.00187968
-0.00634508
-0.557511
0.561977
0.0114893
-0.0173119
-0.687763
0.693586
0.0244695
-0.0310801
-0.806849
0.81346
0.0382211
-0.0445858
-0.929147
0.935511
0.0514381
-0.0571093
-1.06787
1.07355
0.0630355
-0.0672743
-1.22492
1.22915
0.0710858
-0.0732479
-1.40089
1.40305
0.0737898
-0.071976
-1.59874
1.59692
0.0682776
-0.0627947
-1.52956
1.52407
0.0565984
-0.0490104
-1.23721
1.22962
0.0419254
-0.0342451
-1.01406
1.00638
0.0270045
-0.0194084
-0.831159
0.823563
0.0125407
-0.00568398
-0.644393
0.637537
-0.000104333
0.00459545
-0.429097
0.424606
-0.00642619
0.00646099
-0.225089
0.225054
-0.00549873
0.00380505
-0.085814
0.0875077
-0.00232402
0.000988714
-0.0168542
0.0181895
-0.000302097
0.00157442
-0.00127233
-0.0786922
0.0763198
0.00237242
-0.0063009
0.00534205
-0.407221
0.40818
-0.00196655
-0.00131022
-0.569571
0.572848
0.00551293
-0.0107945
-0.700266
0.705548
0.016827
-0.0226546
-0.819382
0.825209
0.0288719
-0.0344359
-0.941452
0.947016
0.0403575
-0.0454516
-1.0791
1.0842
0.0505023
-0.0544251
-1.23327
1.23719
0.057667
-0.0593824
-1.40485
1.40656
0.0595336
-0.0574785
-1.59492
1.59287
0.0536891
-0.0480519
-1.51793
1.5123
0.0419756
-0.0346849
-1.22202
1.21473
0.0276772
-0.0197727
-0.998119
0.990214
0.0124886
-0.00472249
-0.814184
0.806418
-0.00178711
0.00745009
-0.627809
0.622146
-0.0114478
0.0138331
-0.417593
0.415208
-0.0137994
0.0118788
-0.222094
0.224015
-0.00940212
0.00644456
-0.0881194
0.091077
-0.00391228
0.00167737
-0.0191383
0.0213732
-0.0004633
0.00112174
-0.000658442
-0.0773747
0.0753529
0.00202184
-0.00613368
0.00565168
-0.41352
0.414002
-0.00363933
0.000994389
-0.578913
0.581558
0.00314673
-0.00767142
-0.710887
0.715412
0.0128862
-0.0179752
-0.830253
0.835342
0.0235479
-0.0285694
-0.952263
0.957285
0.0340456
-0.0385564
-1.08904
1.09355
0.043148
-0.0467118
-1.24084
1.24441
0.0495835
-0.0510521
-1.40803
1.4095
0.0510444
-0.0493687
-1.59078
1.58911
0.045714
-0.0405026
-1.50636
1.50115
0.0346963
-0.0276809
-1.20735
1.20034
0.0211121
-0.0132926
-0.982051
0.974232
0.00617738
0.00110316
-0.797674
0.790393
-0.0069808
0.011984
-0.613469
0.608465
-0.0151984
0.0169952
-0.410063
0.408266
-0.0162149
0.0136274
-0.222936
0.225524
-0.0107988
0.00741301
-0.0929758
0.0963616
-0.00451421
0.00197544
-0.0230749
0.0256137
-0.000530211
0.000246769
0.000283442
-0.0764045
0.0748401
0.00156435
-0.00522495
0.00505216
-0.418263
0.418436
-0.00341518
0.00139528
-0.587092
0.589112
0.00250962
-0.00661532
-0.720115
0.724221
0.0115892
-0.016006
-0.840037
0.844454
0.0209468
-0.0254446
-0.962302
0.9668
0.0306904
-0.034834
-1.09811
1.10225
0.0389589
-0.0423798
-1.2478
1.25122
0.0454706
-0.0468757
-1.41102
1.41243
0.0470511
-0.0454629
-1.58711
1.58552
0.0423296
-0.0371362
-1.49579
1.4906
0.0317451
-0.0251984
-1.19321
1.18666
0.018866
-0.0117861
-0.966477
0.959397
0.0052464
0.00150645
-0.782393
0.77564
-0.00659128
0.0113206
-0.60073
0.596001
-0.0142245
0.0157462
-0.403978
0.402456
-0.015311
0.0131469
-0.225072
0.227236
-0.0104805
0.00724083
-0.0985438
0.101784
-0.00445708
0.00200917
-0.0274265
0.0298744
-0.000577751
-0.000726909
0.00130466
-0.0759434
0.0747238
0.00121963
-0.00414152
0.00408092
-0.42209
0.42215
-0.00261683
0.000688899
-0.594254
0.596182
0.00309823
-0.00679796
-0.728446
0.732146
0.0110929
-0.0153804
-0.848811
0.853099
0.0199799
-0.0246399
-0.971126
0.975786
0.0291925
-0.0331819
-1.1065
1.11049
0.0374714
-0.0406996
-1.25455
1.25777
0.0433931
-0.0452918
-1.41378
1.41568
0.0457422
-0.0445008
-1.58402
1.58278
0.041555
-0.0369356
-1.48559
1.48098
0.0319009
-0.0258245
-1.17987
1.17379
0.0201459
-0.013836
-0.952364
0.946055
0.00808387
-0.00217193
-0.76867
0.762758
-0.00297633
0.00758505
-0.589088
0.584479
-0.0104057
0.0120863
-0.398467
0.396786
-0.0121241
0.010488
-0.226769
0.228405
-0.00844338
0.0058959
-0.103461
0.106008
-0.00368239
0.00169765
-0.0314087
0.0333934
-0.000513463
-0.00168231
0.00219577
-0.0760095
0.0749962
0.00101333
-0.00287702
0.00257159
-0.425554
0.425859
-0.00128741
-0.000712867
-0.600834
0.602834
0.00420523
-0.00779631
-0.736241
0.739832
0.011937
-0.0158421
-0.857166
0.861071
0.0205755
-0.0244691
-0.979887
0.98378
0.0290061
-0.0328359
-1.11464
1.11847
0.0370461
-0.0405151
-1.261
1.26447
0.0435598
-0.0453165
-1.41737
1.41913
0.0461788
-0.0453871
-1.58148
1.58069
0.0431266
-0.0389339
-1.47628
1.47209
0.034537
-0.0292072
-1.16799
1.16266
0.0243171
-0.0187743
-0.93978
0.934237
0.0137553
-0.00813254
-0.756359
0.750737
0.00304526
0.00187637
-0.577983
0.573061
-0.00510591
0.00681293
-0.392658
0.390951
-0.00734038
0.00660094
-0.227494
0.228234
-0.00543349
0.00384752
-0.106938
0.108524
-0.00244751
0.00117722
-0.0343573
0.0356276
-0.000373468
-0.00245475
0.00282822
-0.076355
0.0756543
0.000700683
-0.00174954
0.001042
-0.429136
0.429843
1.74127e-05
-0.00231539
-0.606658
0.608956
0.00547131
-0.00894776
-0.743536
0.747013
0.0129291
-0.0169719
-0.864829
0.868871
0.0211041
-0.0251645
-0.987885
0.991945
0.0296768
-0.0333215
-1.12272
1.12637
0.0376579
-0.0411301
-1.26776
1.27124
0.0443006
-0.0466486
-1.42132
1.42367
0.0480722
-0.0476578
-1.57997
1.57956
0.0458068
-0.0426059
-1.4682
1.465
0.0390962
-0.0345584
-1.15747
1.15293
0.0302673
-0.0254954
-0.928795
0.924023
0.0204112
-0.014998
-0.744531
0.739118
0.00984311
-0.0046364
-0.566917
0.56171
0.00111832
0.00120039
-0.38637
0.384051
-0.00216461
0.00243235
-0.22683
0.226562
-0.00214761
0.00158755
-0.108508
0.109068
-0.00107472
0.000558037
-0.0359036
0.0364203
-0.0001959
-0.00292952
0.00312542
-0.07711
0.0765643
0.000545716
-0.000801443
0.000217795
-0.432944
0.433527
0.00160911
-0.00367053
-0.612746
0.614807
0.00697957
-0.0103436
-0.750355
0.753719
0.0141775
-0.0178293
-0.872575
0.876227
0.0220918
-0.0258479
-0.996014
0.99977
0.030325
-0.034424
-1.13047
1.13457
0.0384444
-0.0422909
-1.27477
1.27862
0.0459395
-0.0484443
-1.42595
1.42845
0.0503303
-0.0508374
-1.57943
1.57994
0.0496681
-0.0474382
-1.46187
1.45964
0.044482
-0.0407109
-1.14865
1.14488
0.0369622
-0.0322831
-0.918856
0.914177
0.0273373
-0.0216953
-0.732794
0.727152
0.0164
-0.0109643
-0.55538
0.549944
0.00707673
-0.00424575
-0.379447
0.376616
0.0024924
-0.00140869
-0.224341
0.223257
0.000770675
-0.000316542
-0.108088
0.107634
4.26158e-05
9.69505e-05
-0.0360726
0.035933
-7.63344e-05
-0.00307564
0.00315197
-0.0781298
0.0777692
0.000360627
0.000240078
-0.00108978
-0.436834
0.437684
0.00272229
-0.00509507
-0.618375
0.620748
0.00834088
-0.0115569
-0.756955
0.760171
0.0154712
-0.0189754
-0.879847
0.883351
0.0230887
-0.0269758
-1.004
1.00789
0.0313742
-0.0354648
-1.13853
1.14262
0.0397437
-0.0436584
-1.28241
1.28632
0.047545
-0.0508493
-1.43127
1.43457
0.0532747
-0.0542369
-1.58047
1.58143
0.0539918
-0.0523668
-1.45749
1.45586
0.0501686
-0.0470172
-1.14118
1.13802
0.043256
-0.0385606
-0.909108
0.904413
0.0335263
-0.0276214
-0.720769