/*--------------------------------*- C++ -*----------------------------------*\
| =========                 |                                                 |
| \\      /  F ield         | OpenFOAM: The Open Source CFD Toolbox           |
|  \\    /   O peration     | Version:  2112                                  |
|   \\  /    A nd           | Website:  www.openfoam.com                      |
|    \\/     M anipulation  |                                                 |
\*---------------------------------------------------------------------------*/
FoamFile
{
    version     2.0;
    format      ascii;
    arch        "LSB;label=32;scalar=64";
    class       volVectorField;
    location    "48.5";
    object      U;
}
// * * * * * * * * * * * * * * * * * * * * * * * * * * * * * * * * * * * * * //

dimensions      [0 1 -1 0 0 0 0];

internalField   nonuniform List<vector> 
8800
(
(0.980144 -0.0915214 0)
(1.00234 -0.0587292 0)
(0.999584 -0.0321302 0)
(0.999979 -0.0165238 0)
(1.00007 -0.0088425 0)
(1.00007 -0.00509696 0)
(1.00004 -0.00299691 0)
(1.00002 -0.00168828 0)
(0.999999 -0.000787257 0)
(1.00006 -9.06271e-05 0)
(0.999988 0.000615018 0)
(0.999995 0.00136696 0)
(1.00001 0.00239244 0)
(1.00003 0.00399987 0)
(1.00003 0.00674917 0)
(0.99999 0.0120512 0)
(0.999787 0.0230958 0)
(0.999028 0.0431583 0)
(1.00723 0.0790269 0)
(0.775024 0.0478395 0)
(0.358981 -0.0147489 0)
(1.0465 -0.0724883 0)
(1.08847 -0.0660271 0)
(1.04943 -0.0509233 0)
(1.02553 -0.0377059 0)
(1.01272 -0.0259015 0)
(1.00655 -0.0167097 0)
(1.00362 -0.0102236 0)
(1.00218 -0.00559421 0)
(1.00151 -0.00200255 0)
(1.00138 0.00120849 0)
(1.00173 0.00451368 0)
(1.0027 0.00840127 0)
(1.00473 0.0137187 0)
(1.00897 0.0214029 0)
(1.01795 0.0318982 0)
(1.03578 0.044671 0)
(1.0674 0.0581126 0)
(1.0947 0.0699623 0)
(0.84563 0.0555073 0)
(0.217779 -0.00138149 0)
(1.07566 -0.0506603 0)
(1.09939 -0.0489451 0)
(1.06437 -0.0400321 0)
(1.03988 -0.0325759 0)
(1.02378 -0.0253649 0)
(1.014 -0.01815 0)
(1.0085 -0.0115299 0)
(1.00565 -0.00577412 0)
(1.00448 -0.000485749 0)
(1.00479 0.00462179 0)
(1.00663 0.00990553 0)
(1.01056 0.0158753 0)
(1.01788 0.0226381 0)
(1.03049 0.0297492 0)
(1.05048 0.0368383 0)
(1.08002 0.0446135 0)
(1.10564 0.0519388 0)
(0.943263 0.0410111 0)
(0.217195 0.00140518 0)
(0.176628 -0.00062911 0)
(1.01937 -0.0354712 0)
(1.10569 -0.0414234 0)
(1.07795 -0.0364135 0)
(1.05242 -0.0303737 0)
(1.03519 -0.0245001 0)
(1.02334 -0.018707 0)
(1.01554 -0.0127105 0)
(1.01094 -0.00661789 0)
(1.0089 -0.000382495 0)
(1.00944 0.00577264 0)
(1.01251 0.011683 0)
(1.01846 0.0174523 0)
(1.02805 0.0230347 0)
(1.04226 0.0285901 0)
(1.06308 0.0343743 0)
(1.09384 0.040259 0)
(1.09441 0.0417832 0)
(0.830192 0.022778 0)
(0.17563 0.000648105 0)
(0.154712 -0.000462931 0)
(0.958132 -0.0257006 0)
(1.10437 -0.0351345 0)
(1.08805 -0.0326934 0)
(1.06122 -0.0281924 0)
(1.04318 -0.0232345 0)
(1.0308 -0.0179361 0)
(1.02221 -0.0123964 0)
(1.01667 -0.00649133 0)
(1.01402 -4.34027e-05 0)
(1.01467 0.00641142 0)
(1.01845 0.0122809 0)
(1.02522 0.0176015 0)
(1.03536 0.0226129 0)
(1.0501 0.0274387 0)
(1.07204 0.0318845 0)
(1.10099 0.0357648 0)
(1.06967 0.0339734 0)
(0.742538 0.0144529 0)
(0.153219 0.000484269 0)
(0.14002 -0.00033482 0)
(0.901092 -0.0193379 0)
(1.09676 -0.0302467 0)
(1.09617 -0.0293811 0)
(1.06891 -0.0256087 0)
(1.05008 -0.0215312 0)
(1.03713 -0.0168375 0)
(1.02816 -0.011595 0)
(1.02223 -0.00588218 0)
(1.01925 0.000466942 0)
(1.01987 0.00683707 0)
(1.02387 0.0124819 0)
(1.03088 0.0174654 0)
(1.04139 0.021945 0)
(1.05676 0.0258935 0)
(1.07956 0.0294136 0)
(1.1033 0.0321331 0)
(1.0379 0.0281295 0)
(0.675745 0.0103046 0)
(0.137919 0.000360244 0)
(0.129273 -0.000253489 0)
(0.851177 -0.0149445 0)
(1.08438 -0.0261554 0)
(1.10183 -0.0265171 0)
(1.07571 -0.0232086 0)
(1.05638 -0.0195637 0)
(1.04301 -0.0153779 0)
(1.03367 -0.0105305 0)
(1.02746 -0.00504722 0)
(1.02427 0.0011081 0)
(1.02479 0.00725383 0)
(1.0288 0.0126148 0)
(1.03597 0.0171801 0)
(1.04676 0.0210576 0)
(1.06251 0.0244053 0)
(1.08576 0.027453 0)
(1.10255 0.0292827 0)
(1.00326 0.0235804 0)
(0.623741 0.0078996 0)
(0.126429 0.00028443 0)
(0.121074 -0.000194808 0)
(0.808625 -0.0117632 0)
(1.06902 -0.0225721 0)
(1.10532 -0.0239077 0)
(1.08192 -0.0210593 0)
(1.06213 -0.0176493 0)
(1.0485 -0.0137524 0)
(1.03891 -0.0092326 0)
(1.03243 -0.00403278 0)
(1.02902 0.00188 0)
(1.02938 0.00775315 0)
(1.03336 0.0127565 0)
(1.04059 0.0168665 0)
(1.0515 0.0202788 0)
(1.0675 0.0232307 0)
(1.09114 0.0259626 0)
(1.09892 0.0268839 0)
(0.968234 0.0199924 0)
(0.582043 0.00632746 0)
(0.117329 0.000232307 0)
(0.114712 -0.000150288 0)
(0.772721 -0.00938309 0)
(1.05209 -0.0194172 0)
(1.1076 -0.0214956 0)
(1.08773 -0.0190367 0)
(1.06754 -0.0157943 0)
(1.05366 -0.012075 0)
(1.04388 -0.00777107 0)
(1.03719 -0.00282589 0)
(1.03353 0.00281384 0)
(1.0337 0.00836947 0)
(1.03756 0.0129881 0)
(1.04474 0.0166915 0)
(1.05567 0.0197333 0)
(1.07191 0.0223533 0)
(1.09526 0.024742 0)
(1.09252 0.0248775 0)
(0.934195 0.0172035 0)
(0.547653 0.00524512 0)
(0.109867 0.000195951 0)
(0.109736 -0.000115149 0)
(0.742539 -0.00753939 0)
(1.03467 -0.0166195 0)
(1.10892 -0.0192297 0)
(1.09324 -0.0170934 0)
(1.07276 -0.0139631 0)
(1.05859 -0.0103577 0)
(1.04863 -0.0061912 0)
(1.04174 -0.00143061 0)
(1.03781 0.00393932 0)
(1.03773 0.00915315 0)
(1.04139 0.0134044 0)
(1.04843 0.016752 0)
(1.05938 0.0194551 0)
(1.07585 0.0217815 0)
(1.09813 0.0238059 0)
(1.08375 0.0232047 0)
(0.901756 0.015061 0)
(0.518524 0.00448245 0)
(0.103557 0.00017069 0)
(0.105854 -8.62832e-05 0)
(0.717258 -0.00605543 0)
(1.01757 -0.0141056 0)
(1.10937 -0.0170412 0)
(1.09862 -0.0152122 0)
(1.07786 -0.0121197 0)
(1.06341 -0.00856467 0)
(1.05323 -0.00448075 0)
(1.0461 0.000145578 0)
(1.04188 0.00528856 0)
(1.04148 0.0101878 0)
(1.04487 0.0140878 0)
(1.05175 0.017084 0)
(1.06267 0.0194599 0)
(1.07934 0.021522 0)
(1.09966 0.023145 0)
(1.07298 0.021845 0)
(0.871071 0.0134461 0)
(0.49321 0.00394664 0)
(0.098053 0.000153814 0)
(0.102874 -6.15543e-05 0)
(0.696229 -0.00481382 0)
(1.00142 -0.0118146 0)
(1.10911 -0.0148924 0)
(1.10382 -0.0132765 0)
(1.08294 -0.0101646 0)
(1.06816 -0.00661182 0)
(1.05773 -0.00256671 0)
(1.05032 0.00196725 0)
(1.04574 0.00691585 0)
(1.04494 0.0115148 0)
(1.04799 0.0150756 0)
(1.05466 0.0177299 0)
(1.06556 0.0197748 0)
(1.08242 0.0215713 0)
(1.10023 0.0227835 0)
(1.06054 0.0208067 0)
(0.84203 0.012267 0)
(0.470643 0.00358081 0)
(0.0930999 0.000143657 0)
(0.100673 -3.87466e-05 0)
(0.678981 -0.00372385 0)
(0.986676 -0.00967205 0)
(1.10833 -0.0127046 0)
(1.10881 -0.0112382 0)
(1.08807 -0.00810475 0)
(1.07293 -0.00449668 0)
(1.06219 -0.000414667 0)
(1.05443 0.00407806 0)
(1.0494 0.00887949 0)
(1.04811 0.0132054 0)
(1.05078 0.0164238 0)
(1.0572 0.0187274 0)
(1.06805 0.0204438 0)
(1.085 0.0219645 0)
(1.09983 0.0228296 0)
(1.04664 0.020103 0)
(0.814353 0.0114528 0)
(0.449996 0.00334701 0)
(0.088499 0.000138937 0)
(0.099188 -1.61633e-05 0)
(0.665222 -0.00271673 0)
(0.97371 -0.00760094 0)
(1.10734 -0.0103974 0)
(1.11368 -0.00899512 0)
(1.09331 -0.00580623 0)
(1.07778 -0.00208794 0)
(1.06667 0.00207398 0)
(1.05847 0.00657026 0)
(1.05288 0.011265 0)
(1.05101 0.0153353 0)
(1.0532 0.0182123 0)
(1.05934 0.0201544 0)
(1.07012 0.0215024 0)
(1.0871 0.0227313 0)
(1.09827 0.0231598 0)
(1.03138 0.0196935 0)
(0.787688 0.0109361 0)
(0.430612 0.00321521 0)
(0.0840936 0.000138065 0)
(0.0984027 7.74348e-06 0)
(0.654809 -0.0017396 0)
(0.962846 -0.0055306 0)
(1.10648 -0.00791925 0)
(1.11859 -0.00648479 0)
(1.09874 -0.00318548 0)
(1.08278 0.000703584 0)
(1.07122 0.00499662 0)
(1.06249 0.00955647 0)
(1.05624 0.0141651 0)
(1.05365 0.017963 0)
(1.05526 0.0204708 0)
(1.06104 0.0220166 0)
(1.07174 0.0229699 0)
(1.08869 0.0239109 0)
(1.09551 0.0238641 0)
(1.01482 0.019621 0)
(0.761653 0.0106909 0)
(0.411961 0.00317365 0)
(0.0797581 0.000141165 0)
(0.0983401 2.8864e-05 0)
(0.647715 -0.000741907 0)
(0.954376 -0.00338398 0)
(1.10606 -0.00519705 0)
(1.12367 -0.00365152 0)
(1.10443 -0.000208433 0)
(1.08801 0.00391675 0)
(1.07593 0.00842712 0)
(1.06654 0.0131179 0)
(1.05945 0.0176902 0)
(1.056 0.0212375 0)
(1.05693 0.0233663 0)
(1.06228 0.0244943 0)
(1.07286 0.0250105 0)
(1.08955 0.0255606 0)
(1.09132 0.0249705 0)
(0.996882 0.0198911 0)
(0.735809 0.0106967 0)
(0.39356 0.00321347 0)
(0.0753741 0.000147698 0)
(0.0990334 6.76623e-05 0)
(0.644028 0.000288 0)
(0.948635 -0.00108817 0)
(1.10644 -0.00213074 0)
(1.1291 -0.000349615 0)
(1.11049 0.0033221 0)
(1.09357 0.00776313 0)
(1.08085 0.0125464 0)
(1.07066 0.0174158 0)
(1.06257 0.0219825 0)
(1.05807 0.0252612 0)
(1.05815 0.0269561 0)
(1.06299 0.0276009 0)
(1.07342 0.027654 0)
(1.08951 0.027777 0)
(1.08555 0.026524 0)
(0.977424 0.0205327 0)
(0.709693 0.0109447 0)
(0.374962 0.00332914 0)
(0.0708358 0.000157338 0)
(0.100691 9.43067e-05 0)
(0.644145 0.00145636 0)
(0.945982 0.00143953 0)
(1.10807 0.00136585 0)
(1.1351 0.00351158 0)
(1.11705 0.00754879 0)
(1.09953 0.0123836 0)
(1.08604 0.0175181 0)
(1.07485 0.0226357 0)
(1.06552 0.0272098 0)
(1.05976 0.0301863 0)
(1.05885 0.0313891 0)
(1.06306 0.0314903 0)
(1.07333 0.0310259 0)
(1.08841 0.030642 0)
(1.07808 0.0285861 0)
(0.956198 0.0215772 0)
(0.682799 0.0114346 0)
(0.355739 0.00351869 0)
(0.066042 0.000170088 0)
(0.103374 0.000141975 0)
(0.648424 0.00289963 0)
(0.94689 0.00434624 0)
(1.11142 0.00540718 0)
(1.14188 0.00804617 0)
(1.12426 0.0125609 0)
(1.10605 0.0179081 0)
(1.09162 0.0235213 0)
(1.07923 0.028963 0)
(1.06839 0.0335738 0)
(1.06109 0.0362134 0)
(1.05901 0.0368344 0)
(1.06244 0.0363283 0)
(1.07247 0.0352898 0)
(1.08603 0.0342949 0)
(1.06859 0.0312406 0)
(0.932868 0.0230576 0)
(0.654598 0.0121703 0)
(0.335472 0.00377947 0)
(0.0609003 0.00018522 0)
(0.107363 0.000202903 0)
(0.657431 0.00458295 0)
(0.95184 0.0077807 0)
(1.11697 0.0101858 0)
(1.14964 0.0135263 0)
(1.13229 0.0186948 0)
(1.11327 0.024686 0)
(1.09767 0.0308687 0)
(1.08376 0.0366913 0)
(1.07108 0.0413232 0)
(1.06195 0.0435299 0)
(1.05851 0.0434822 0)
(1.06102 0.0422546 0)
(1.07072 0.0405462 0)
(1.08228 0.0388651 0)
(1.05673 0.0345925 0)
(0.907012 0.025035 0)
(0.624493 0.0131665 0)
(0.313726 0.0041121 0)
(0.0553204 0.000202462 0)
(0.112983 0.000285992 0)
(0.671835 0.00668181 0)
(0.961518 0.0119298 0)
(1.12534 0.015921 0)
(1.15882 0.0202147 0)
(1.14141 0.0262665 0)
(1.12134 0.0330375 0)
(1.10427 0.0398917 0)
(1.08847 0.0461318 0)
(1.07354 0.0507297 0)
(1.06225 0.0523806 0)
(1.0572 0.0515158 0)
(1.05866 0.0494392 0)
(1.06795 0.0469349 0)
(1.07702 0.0444633 0)
(1.04209 0.0387639 0)
(0.87805 0.027552 0)
(0.591822 0.0144254 0)
(0.290062 0.00450935 0)
(0.0492249 0.000220859 0)
(0.120728 0.000401556 0)
(0.692591 0.00941218 0)
(0.97675 0.0171039 0)
(1.13713 0.0229351 0)
(1.16988 0.0284071 0)
(1.15188 0.0355998 0)
(1.13043 0.0433673 0)
(1.11146 0.051045 0)
(1.0933 0.0577139 0)
(1.07564 0.0621358 0)
(1.06182 0.0630026 0)
(1.05487 0.0611134 0)
(1.05516 0.058077 0)
(1.06402 0.0546862 0)
(1.06995 0.0512904 0)
(1.02412 0.043835 0)
(0.845329 0.0306476 0)
(0.555879 0.0159322 0)
(0.264079 0.00495337 0)
(0.0425665 0.000238388 0)
(0.131364 0.000574443 0)
(0.721066 0.0131542 0)
(0.998687 0.0237806 0)
(1.15307 0.031805 0)
(1.18334 0.0387806 0)
(1.1641 0.0474627 0)
(1.1408 0.0564157 0)
(1.11935 0.0649456 0)
(1.09821 0.0719108 0)
(1.07731 0.0759173 0)
(1.06056 0.0757169 0)
(1.05147 0.0725508 0)
(1.05038 0.0683878 0)
(1.05864 0.0639535 0)
(1.06068 0.0593403 0)
(1.00215 0.0499486 0)
(0.808057 0.0343535 0)
(0.51592 0.0176561 0)
(0.235455 0.00541409 0)
(0.035351 0.000251962 0)
(0.14616 0.000850246 0)
(0.759228 0.0185061 0)
(1.02893 0.0327131 0)
(1.17416 0.043438 0)
(1.19999 0.0523984 0)
(1.17835 0.0629401 0)
(1.15238 0.0731622 0)
(1.12761 0.0823997 0)
(1.10278 0.0893346 0)
(1.07805 0.0924626 0)
(1.05804 0.09076 0)
(1.04668 0.0860259 0)
(1.04417 0.0805017 0)
(1.05144 0.0748389 0)
(1.04856 0.0689217 0)
(0.975331 0.0571727 0)
(0.765325 0.0386613 0)
(0.471234 0.0195293 0)
(0.204033 0.00584402 0)
(0.0276667 0.000257368 0)
(0.167259 0.00132401 0)
(0.810234 0.0266201 0)
(1.07004 0.0454436 0)
(1.20148 0.059617 0)
(1.22056 0.071287 0)
(1.19476 0.0834999 0)
(1.16498 0.0948143 0)
(1.136 0.10429 0)
(1.10676 0.110561 0)
(1.07769 0.112131 0)
(1.05413 0.108371 0)
(1.04033 0.101695 0)
(1.03643 0.0945952 0)
(1.04234 0.0877483 0)
(1.03298 0.0801761 0)
(0.942594 0.0654611 0)
(0.716217 0.0435038 0)
(0.421337 0.0214454 0)
(0.170011 0.00618168 0)
(0.0197241 0.000250077 0)
(0.198017 0.0023766 0)
(0.879687 0.0402267 0)
(1.12541 0.0658096 0)
(1.23542 0.0838569 0)
(1.24474 0.0980963 0)
(1.21276 0.11145 0)
(1.17785 0.122984 0)
(1.14364 0.131646 0)
(1.1093 0.136175 0)
(1.07552 0.135196 0)
(1.04834 0.128623 0)
(1.0322 0.119565 0)
(1.02691 0.11072 0)
(1.03105 0.102669 0)
(1.0132 0.0930123 0)
(0.902711 0.0746653 0)
(0.659968 0.0486201 0)
(0.366636 0.0232704 0)
(0.134534 0.00639655 0)
(0.0119854 0.000225268 0)
(0.239947 0.00857548 5.40877e-20)
(0.97158 0.0674198 4.70744e-20)
(1.19283 0.0999733 -1.63581e-20)
(1.27292 0.119777 0)
(1.26981 0.136551 -4.07486e-34)
(1.23033 0.149284 5.93185e-21)
(1.1895 0.159307 -1.05388e-20)
(1.14948 0.165748 0)
(1.10966 0.167464 2.13003e-34)
(1.07084 0.16316 -1.27193e-20)
(1.03973 0.153319 0)
(1.02097 0.141678 -1.49483e-20)
(1.01412 0.13108 -4.39884e-20)
(1.01616 0.122091 -2.07551e-20)
(0.986736 0.110481 -6.22796e-21)
(0.851043 0.08721 -3.69725e-21)
(0.590667 0.0551334 0)
(0.30468 0.0255119 2.58758e-21)
(0.0980868 0.00704197 3.05561e-21)
(0.00477646 0.000301725 5.50305e-20)
(0.269322 0.0239361 4.14777e-20)
(1.04736 0.109922 5.23612e-22)
(1.24823 0.148739 4.45418e-21)
(1.30658 0.16869 0)
(1.29181 0.185319 -2.1008e-20)
(1.24533 0.19592 -2.36805e-20)
(1.19853 0.203638 -1.07179e-20)
(1.15254 0.207585 -3.76915e-20)
(1.10687 0.206502 0)
(1.06237 0.19899 5.43036e-20)
(1.02648 0.186023 5.35816e-20)
(1.00442 0.171894 1.58745e-20)
(0.995327 0.159247 5.75799e-20)
(0.991889 0.147977 8.06349e-20)
(0.946516 0.132904 0)
(0.782784 0.102896 1.13479e-19)
(0.509812 0.0631253 1.62846e-19)
(0.239673 0.0280743 1.80911e-19)
(0.0630697 0.00718544 -2.06896e-19)
(-0.00204109 -0.00010395 -3.88878e-21)
(0.270421 0.0396378 0)
(1.09519 0.165082 7.75504e-21)
(1.28546 0.208739 0)
(1.33273 0.228223 -2.86114e-20)
(1.30899 0.241795 0)
(1.25655 0.248597 -4.7114e-20)
(1.20413 0.252648 2.20468e-20)
(1.1525 0.253099 -7.64494e-20)
(1.10127 0.248463 -1.56618e-21)
(1.05134 0.237265 2.82443e-20)
(1.01085 0.220878 1.17854e-19)
(0.985474 0.204124 -2.81912e-22)
(0.973698 0.189541 -4.18621e-20)
(0.965148 0.176198 -7.60984e-20)
(0.909768 0.157052 9.00207e-20)
(0.735047 0.119631 -1.59377e-19)
(0.465837 0.0720812 -2.10759e-20)
(0.212224 0.0317134 0)
(0.0507357 0.00753547 -4.8033e-25)
(-0.00443812 -0.000651099 0)
(0.264275 0.0532683 1.1214e-19)
(1.12101 0.223607 -5.31397e-20)
(1.30846 0.273344 -3.8747e-20)
(1.34997 0.292912 1.38153e-20)
(1.31992 0.302591 -2.31076e-20)
(1.26297 0.304972 9.91765e-20)
(1.20595 0.304752 4.62388e-20)
(1.14945 0.301142 0)
(1.09319 0.292468 -1.42951e-19)
(1.03819 0.27714 0)
(0.993302 0.257012 -6.20917e-20)
(0.964756 0.237474 -7.61625e-20)
(0.950524 0.220984 -4.56551e-20)
(0.938029 0.205706 -5.53309e-20)
(0.877649 0.182683 0)
(0.703055 0.138943 0)
(0.445529 0.0845403 -1.37394e-19)
(0.20703 0.0382845 2.71951e-20)
(0.0509101 0.00916237 -1.59122e-20)
(-0.00471099 -0.000950534 -1.86235e-20)
(0.257043 0.0653747 -5.249e-20)
(1.13248 0.282057 0)
(1.32114 0.338982 8.31264e-20)
(1.35922 0.359072 3.98757e-20)
(1.32472 0.364901 5.28697e-20)
(1.26448 0.362883 0)
(1.20384 0.358348 4.57774e-20)
(1.14328 0.350524 8.51538e-20)
(1.08265 0.337625 7.36167e-20)
(1.02307 0.318052 1.33254e-19)
(0.974119 0.294324 0)
(0.942547 0.272263 -1.64528e-19)
(0.925871 0.253893 -9.88245e-20)
(0.910025 0.236257 -5.83515e-20)
(0.848458 0.209581 3.57716e-19)
(0.680495 0.160755 4.25366e-20)
(0.438548 0.100568 1.99945e-19)
(0.21335 0.047747 -9.46291e-19)
(0.0588086 0.0128862 5.60649e-19)
(-0.00276482 -0.00072251 -6.75661e-19)
(0.250195 0.0763582 -3.46382e-20)
(1.13486 0.338607 9.82129e-21)
(1.32631 0.403734 -9.91467e-21)
(1.36206 0.424812 -4.34282e-20)
(1.32433 0.427041 -4.64514e-20)
(1.26167 0.420837 1.78588e-21)
(1.19816 0.412158 -4.95714e-20)
(1.13422 0.400193 8.85079e-20)
(1.06984 0.383126 -1.58545e-19)
(1.00627 0.359434 0)
(0.953697 0.332242 -7.47577e-20)
(0.919254 0.307597 -1.62051e-21)
(0.899912 0.287137 -1.08112e-19)
(0.881283 0.267458 0)
(0.819832 0.237856 -7.75628e-20)
(0.661894 0.184826 -1.84224e-19)
(0.436929 0.118813 4.92609e-19)
(0.223522 0.0597432 -4.8477e-19)
(0.0698869 0.0185806 6.88446e-19)
(0.000371119 5.97437e-05 -7.15344e-19)
(0.244538 0.0865661 -4.10412e-22)
(1.13166 0.392597 -6.14332e-21)
(1.32609 0.466593 -3.20311e-20)
(1.35994 0.488929 1.87545e-20)
(1.31981 0.487975 -2.36565e-20)
(1.25534 0.47788 0)
(1.1895 0.465293 -4.69326e-20)
(1.12272 0.449369 -9.29315e-20)
(1.05512 0.428318 -8.26673e-20)
(0.988045 0.400635 0)
(0.932211 0.369794 -7.78346e-20)
(0.895082 0.342204 -9.58756e-20)
(0.873305 0.319607 1.17297e-19)
(0.852763 0.29853 -7.11119e-20)
(0.792006 0.266449 -3.38763e-19)
(0.644022 0.209697 2.01693e-19)
(0.435358 0.138305 6.02582e-20)
(0.233304 0.0731663 0)
(0.0807306 0.0254033 -6.6631e-19)
(0.00364265 0.00117178 -2.44401e-20)
(0.240145 0.096308 -1.74844e-21)
(1.12511 0.443819 3.80802e-21)
(1.32199 0.527058 1.58255e-20)
(1.35408 0.550707 6.51281e-20)
(1.31209 0.547009 -8.97438e-20)
(1.24625 0.533381 9.876e-20)
(1.1785 0.517157 1.01017e-19)
(1.10932 0.497529 -1.48577e-19)
(1.03891 0.47274 5.04247e-20)
(0.96867 0.441149 -3.28128e-19)
(0.909778 0.406488 -8.77215e-20)
(0.870236 0.37594 0)
(0.846638 0.351679 1.27153e-19)
(0.824682 0.329489 1.52183e-19)
(0.764421 0.294567 1.82219e-19)
(0.625449 0.234003 -2.19123e-19)
(0.431348 0.158131 -6.49112e-20)
(0.239582 0.0871401 7.63185e-20)
(0.0893174 0.0326556 0)
(0.00653905 0.0024666 -5.30434e-20)
(0.236896 0.105738 -4.06225e-21)
(1.11678 0.49237 -4.7645e-21)
(1.31532 0.585345 -1.52217e-20)
(1.3455 0.609805 4.11383e-20)
(1.30196 0.60371 -4.18758e-20)
(1.23505 0.586895 -4.06097e-21)
(1.16573 0.567359 -1.10077e-19)
(1.09451 0.54435 -5.36763e-20)
(1.02161 0.516093 -1.43527e-19)
(0.948408 0.480725 2.76869e-22)
(0.886612 0.442376 -2.75119e-19)
(0.844985 0.409348 2.30587e-19)
(0.82002 0.383887 -1.39485e-19)
(0.796501 0.360081 1.6752e-19)
(0.736037 0.321546 0)
(0.605596 0.257188 -1.18847e-19)
(0.424143 0.177376 -2.36553e-22)
(0.241364 0.100462 -3.32155e-19)
(0.0943765 0.0393748 -4.88516e-20)
(0.00861969 0.00368116 0)
(0.23465 0.114977 0)
(1.10757 0.538451 -1.54111e-21)
(1.30672 0.640816 -2.10612e-20)
(1.33497 0.666072 -3.92155e-20)
(1.29008 0.657841 -5.12855e-20)
(1.22232 0.638169 0)
(1.15171 0.615661 -5.10006e-20)
(1.07873 0.589627 -1.11286e-21)
(1.00357 0.558204 3.07428e-19)
(0.927548 0.519286 -4.51885e-20)
(0.863037 0.477652 -1.98457e-19)
(0.81959 0.442629 1.20091e-19)
(0.793324 0.415798 -2.16287e-21)
(0.767824 0.389325 1.78037e-19)
(0.706905 0.346437 1.09783e-19)
(0.58382 0.278455 -2.56519e-19)
(0.413436 0.19477 3.03807e-19)
(0.238448 0.111817 8.98566e-20)
(0.0952826 0.0446517 3.70521e-19)
(0.00963708 0.00456527 -9.91139e-19)
(0.233345 0.124156 -8.84804e-21)
(1.09809 0.582255 7.24082e-21)
(1.29701 0.693385 -1.03051e-21)
(1.32305 0.719464 3.37061e-20)
(1.277 0.709285 0)
(1.20854 0.687066 -4.74405e-20)
(1.13686 0.661941 1.7017e-19)
(1.06235 0.633241 1.17994e-19)
(0.985093 0.598961 0)
(0.90639 0.556814 -6.48653e-19)
(0.839349 0.51234 5.35921e-19)
(0.794186 0.475408 0)
(0.766354 0.446407 1.62584e-19)
(0.738475 0.416074 -2.16601e-21)
(0.677252 0.36863 -3.5031e-19)
(0.560511 0.29721 1.37254e-19)
(0.399518 0.209438 0)
(0.231451 0.120581 4.84316e-19)
(0.0929516 0.0480629 0)
(0.00974661 0.00502201 -4.68167e-19)
(0.232802 0.133347 1.2845e-20)
(1.08883 0.623876 1.57235e-20)
(1.28634 0.743138 6.43855e-22)
(1.31024 0.769965 0)
(1.26315 0.758021 -4.61386e-20)
(1.19412 0.733552 0)
(1.12155 0.706145 -1.6956e-19)
(1.04569 0.675123 -5.55641e-20)
(0.966466 0.638302 5.45152e-20)
(0.885214 0.593293 -3.20679e-19)
(0.81575 0.546289 5.54357e-20)
(0.768793 0.507088 0)
(0.739 0.474904 -3.46932e-19)
(0.708579 0.440034 2.15259e-21)
(0.647398 0.388413 0)
(0.535884 0.313639 1.75436e-21)
(0.382414 0.221201 4.4186e-19)
(0.22062 0.126432 -4.17908e-19)
(0.087706 0.0495199 1.23061e-19)
(0.00901861 0.00500386 0)
(0.232693 0.142414 0)
(1.07998 0.663454 2.30617e-20)
(1.27511 0.790225 8.68234e-21)
(1.29689 0.817625 -2.44412e-21)
(1.24886 0.804081 -1.75097e-20)
(1.17938 0.777636 -1.06535e-19)
(1.10608 0.748267 6.30639e-20)
(1.02899 0.715236 -6.48381e-20)
(0.947929 0.676176 2.4223e-19)
(0.864235 0.62869 -5.11986e-19)
(0.792353 0.579275 -3.62204e-21)
(0.743379 0.537209 -1.52366e-19)
(0.711296 0.501013 5.62187e-19)
(0.678493 0.461494 -2.50904e-21)
(0.617622 0.406078 -2.7095e-19)
(0.510134 0.327508 -4.83676e-19)
(0.362523 0.229745 0)
(0.206423 0.129183 0)
(0.080148 0.0491438 1.32804e-19)
(0.00782505 0.00467183 -7.78766e-20)
(0.233146 0.151482 2.28595e-20)
(1.07156 0.700813 -5.69489e-20)
(1.26362 0.834697 -9.5911e-21)
(1.28329 0.862524 0)
(1.23441 0.847528 -1.56417e-21)
(1.16459 0.819359 -1.00202e-19)
(1.09068 0.788321 1.54107e-19)
(1.01248 0.753559 2.5723e-19)
(0.929686 0.712566 3.15237e-19)
(0.843635 0.662962 -4.1834e-19)
(0.769231 0.611127 -4.59207e-19)
(0.717918 0.565617 4.07242e-19)
(0.683351 0.524901 0)
(0.64847 0.480841 -1.22961e-19)
(0.587954 0.421664 -2.92775e-19)
(0.483285 0.33854 -3.4694e-19)
(0.340228 0.234792 -4.11156e-19)
(0.189507 0.128807 1.215e-19)
(0.0706301 0.0468423 -7.14793e-20)
(0.00623258 0.00398002 2.56415e-22)
(0.233716 0.160457 0)
(1.06376 0.736518 0)
(1.25207 0.876663 2.58479e-21)
(1.26965 0.904765 0)
(1.22001 0.88846 4.51225e-20)
(1.14994 0.85879 7.02255e-20)
(1.07555 0.826332 0)
(0.996328 0.790089 3.08853e-20)
(0.911912 0.747456 5.26461e-19)
(0.823561 0.696069 -9.60835e-19)
(0.746444 0.641779 0)
(0.692428 0.592421 -2.61688e-19)
(0.655242 0.546936 -3.01231e-21)
(0.618557 0.498383 -2.39742e-21)
(0.558293 0.435043 3.12525e-19)
(0.455525 0.346534 -3.05252e-22)
(0.315683 0.236266 -8.8413e-19)
(0.170496 0.125277 2.61089e-19)
(0.0602135 0.0429723 7.71407e-20)
(0.00448199 0.00305146 0)
(0.234314 0.169268 -1.03572e-19)
(1.05629 0.770525 -4.56192e-20)
(1.24053 0.916181 -4.71943e-20)
(1.25612 0.944456 7.61332e-21)
(1.20582 0.926955 6.42876e-20)
(1.1356 0.895997 0)
(1.0608 0.862338 9.44249e-20)
(0.980675 0.824834 -6.83953e-20)
(0.894744 0.780851 3.86574e-21)
(0.804137 0.727993 7.05383e-20)
(0.724072 0.671266 5.93765e-19)
(0.666965 0.617902 -9.18279e-20)
(0.627001 0.567565 -3.4556e-19)
(0.588616 0.514314 -1.42797e-19)
(0.52843 0.446017 1.69683e-19)
(0.427 0.351231 -1.19132e-22)
(0.289908 0.234042 2.37934e-19)
(0.150602 0.118987 -5.6107e-19)
(0.0496154 0.0379593 6.63102e-19)
(0.00273027 0.00199403 9.67018e-20)
(0.234775 0.177796 4.11451e-20)
(1.04917 0.802946 -2.6977e-20)
(1.22915 0.953356 6.25706e-21)
(1.24282 0.981723 1.62282e-20)
(1.19197 0.963128 -6.89565e-21)
(1.12167 0.931053 -1.2431e-19)
(1.04656 0.89638 2.82195e-20)
(0.965623 0.857808 -2.85581e-19)
(0.878297 0.812743 -5.80651e-19)
(0.78546 0.758709 -5.72471e-19)
(0.702224 0.699685 0)
(0.641621 0.642397 -4.02026e-19)
(0.598613 0.587226 4.97137e-19)
(0.55836 0.52876 0)
(0.498051 0.454275 -3.62983e-19)
(0.39788 0.352077 2.16525e-19)
(0.263807 0.227845 -2.5542e-19)
(0.131145 0.11035 -3.01578e-19)
(0.0396904 0.0323312 -5.33609e-19)
(0.00113629 0.000928193 -4.15994e-19)
(0.235548 0.186175 -4.83054e-20)
(1.04228 0.833757 2.89021e-20)
(1.21798 0.988265 6.26294e-20)
(1.22984 1.01665 3.07362e-20)
(1.17854 0.99707 1.85414e-20)
(1.10824 0.964042 -6.92707e-20)
(1.0329 0.9285 9.34342e-20)
(0.951253 0.889045 -2.94231e-19)
(0.862643 0.843152 -3.4382e-19)
(0.767624 0.788221 5.99041e-19)
(0.681014 0.727157 1.30235e-18)
(0.616527 0.666241 0)
(0.570055 0.606321 0)
(0.527394 0.541898 -1.6422e-19)
(0.466583 0.459467 0)
(0.36809 0.348126 4.65407e-19)
(0.238528 0.216935 5.48961e-19)
(0.114071 0.0995196 0)
(0.0316998 0.0266398 0)
(-0.000155113 6.9344e-06 4.46612e-19)
(0.235953 0.194098 5.6934e-20)
(1.03563 0.862948 4.54752e-20)
(1.2071 1.02103 4.64917e-20)
(1.21724 1.04937 -3.80676e-20)
(1.1656 1.02889 1.23222e-20)
(1.09537 0.995037 7.41008e-20)
(1.01988 0.958753 -1.28646e-19)
(0.93762 0.918572 -8.44341e-23)
(0.847849 0.872085 -5.0144e-21)
(0.750702 0.816529 -5.21446e-21)
(0.66059 0.753796 6.70377e-19)
(0.591841 0.68971 0)
(0.541352 0.625222 5.01679e-19)
(0.495322 0.554036 3.49887e-19)
(0.433104 0.461516 8.44781e-19)
(0.336919 0.338205 2.50236e-19)
(0.215125 0.199154 -2.95413e-19)
(0.103194 0.0843611 -1.73519e-19)
(0.0306664 0.0200126 0)
(0.000501024 -0.000167659 4.7944e-19)
(0.236646 0.202016 -1.32492e-19)
(1.0292 0.890608 0)
(1.19648 1.05171 5.92756e-20)
(1.20505 1.07997 -3.55824e-20)
(1.15319 1.05868 -1.56792e-21)
(1.08307 1.02412 -8.39984e-20)
(1.00752 0.987188 2.52656e-19)
(0.924757 0.946427 -2.38961e-20)
(0.833949 0.899552 0)
(0.734757 0.843621 -6.61143e-19)
(0.641096 0.779678 -1.4567e-18)
(0.567762 0.713026 5.92247e-20)
(0.512633 0.644264 6.90243e-19)
(0.461885 0.565653 0)
(0.396441 0.460993 5.69139e-19)
(0.302122 0.321602 0)
(0.19189 0.169852 0)
(0.10222 0.0524895 -1.87572e-19)
(0.0566148 0.00155224 0)
(0.0281125 0.0116956 1.28403e-19)
(0.23695 0.20932 -1.51572e-19)
(1.02296 0.917094 0)
(1.18615 1.08051 1.02436e-19)
(1.19323 1.10869 0)
(1.14129 1.0867 -3.96339e-21)
(1.07131 1.05157 0)
(0.99578 1.01412 1.29664e-20)
(0.91257 0.972952 4.04679e-20)
(0.82082 0.925923 4.29959e-20)
(0.719632 0.869902 -7.2539e-19)
(0.622383 0.805296 4.38309e-20)
(0.544107 0.736843 4.7541e-19)
(0.483546 0.664157 6.72673e-19)
(0.426259 0.577493 9.05107e-20)
(0.35468 0.459457 4.45313e-19)
(0.259042 0.299595 0)
(0.157469 0.126355 6.22213e-19)
(0.0828578 -0.000903855 -3.64489e-19)
(0.0434664 0.0452683 4.2269e-19)
(-0.0690859 0.434113 -4.98658e-19)
(0.237225 0.216412 1.2757e-19)
(1.01664 0.942173 1.91491e-19)
(1.17602 1.10774 0)
(1.18165 1.13596 5.16637e-21)
(1.12969 1.11353 2.09995e-20)
(1.05982 1.07807 1.10506e-19)
(0.984337 1.04034 8.90811e-20)
(0.900661 0.99909 0)
(0.807946 0.95229 2.86809e-19)
(0.704676 0.89668 -3.8067e-20)
(0.603554 0.832111 0)
(0.519687 0.762852 0)
(0.45239 0.686528 6.0132e-19)
(0.386409 0.5906 -2.79165e-19)
(0.304713 0.459172 -4.50122e-19)
(0.202796 0.276556 0)
(0.0915311 0.123163 3.1305e-19)
(0.00528686 0.439308 -3.62618e-19)
(0.0342879 1.88527 -1.99396e-19)
(0.0637953 2.80902 -2.54429e-19)
(0.237313 0.222652 -9.82731e-20)
(1.01046 0.966029 -2.50291e-19)
(1.16608 1.1334 6.35332e-20)
(1.1703 1.16165 4.4815e-20)
(1.11844 1.13894 0)
(1.04865 1.10332 6.52393e-20)
(0.973388 1.06554 1.23608e-19)
(0.889213 1.02441 -1.97311e-20)
(0.795581 0.978139 4.2663e-20)
(0.690254 0.923352 6.91754e-19)
(0.585209 0.859516 7.35732e-19)
(0.495463 0.790712 5.31151e-19)
(0.420101 0.711344 6.03498e-19)
(0.344027 0.60384 -6.53546e-19)
(0.252362 0.463283 -6.78154e-19)
(0.134403 0.310274 0)
(0.0468417 0.829501 0)
(0.103432 2.54832 1.73432e-19)
(0.104428 3.19935 0)
(0.107509 3.38733 4.15932e-19)
(0.239962 0.228321 0)
(1.00501 0.988848 0)
(1.15614 1.15734 0)
(1.15895 1.18555 1.49679e-20)
(1.10722 1.16269 2.26643e-20)
(1.03759 1.1272 3.37348e-20)
(0.962828 1.08961 8.00882e-20)
(0.878184 1.04882 -1.93357e-20)
(0.78369 1.00334 3.59703e-19)
(0.676395 0.949791 -9.52522e-21)
(0.567505 0.887438 1.45365e-18)
(0.4718 0.820301 -6.10339e-20)
(0.386949 0.73959 7.31208e-20)
(0.301684 0.614778 9.42777e-20)
(0.189879 0.478581 -3.76727e-21)
(0.104679 0.962179 1.81561e-21)
(0.143085 2.71366 -9.07059e-19)
(0.152234 3.2913 -3.42111e-19)
(0.140577 3.42614 1.78277e-19)
(0.127237 3.44853 -1.98861e-19)
(0.157437 0.184537 6.00384e-20)
(0.994267 1.0134 0)
(1.14587 1.1798 -1.35613e-19)
(1.14815 1.20812 -1.29776e-19)
(1.09687 1.18559 7.69257e-20)
(1.02757 1.15037 -2.97278e-20)
(0.952629 1.11259 -8.33629e-20)
(0.867704 1.07241 2.19557e-19)
(0.772438 1.02805 -2.95346e-19)
(0.66338 0.97617 0)
(0.550848 0.916093 7.15198e-19)
(0.449302 0.851521 -4.33368e-19)
(0.353355 0.774311 0)
(0.255049 0.626779 8.77262e-20)
(0.154331 0.780145 2.09847e-19)
(0.157748 2.48249 -2.4724e-19)
(0.217817 3.32321 2.78305e-19)
(0.196826 3.44022 1.50711e-19)
(0.163409 3.46181 1.70322e-19)
(0.141157 3.47208 2.72418e-19)
(0.283407 0.2673 -1.08025e-19)
(0.979272 1.02351 0)
(1.1278 1.20523 1.51973e-19)
(1.13353 1.24031 1.53241e-19)
(1.08005 1.2189 -9.99957e-20)
(1.01023 1.18415 4.74858e-21)
(0.934382 1.14784 8.3946e-20)
(0.849009 1.10879 1.70948e-20)
(0.752609 1.06653 2.83994e-19)
(0.640795 1.01789 6.00801e-19)
(0.522819 0.962973 4.05346e-20)
(0.411372 0.904161 3.85289e-19)
(0.294028 0.825019 6.83246e-20)
(0.215876 0.951976 -8.62563e-20)
(0.232293 2.33175 -1.97245e-19)
(0.294631 3.32654 1.91027e-19)
(0.277609 3.47067 -2.12159e-19)
(0.241815 3.49233 -1.22948e-19)
(0.204225 3.51989 -1.05345e-19)
(0.15246 3.51361 -1.23446e-20)
(0.271344 0.264162 0)
(0.977094 1.04639 4.72473e-20)
(1.1198 1.22881 -3.24065e-20)
(1.12338 1.26395 -1.94462e-20)
(1.06964 1.24226 -7.57743e-20)
(0.99991 1.20774 1.387e-21)
(0.923744 1.17152 -4.56004e-20)
(0.838242 1.13322 1.54538e-20)
(0.74143 1.09236 -2.9701e-19)
(0.628397 1.04612 -1.4046e-20)
(0.507791 0.995342 -1.29648e-18)
(0.392194 0.941625 5.48161e-20)
(0.282379 0.892829 -6.46175e-20)
(0.257005 1.48358 -8.0071e-20)
(0.332673 3.09542 1.78533e-20)
(0.353605 3.46886 6.63828e-22)
(0.312811 3.52552 3.12016e-19)
(0.27514 3.55155 1.54181e-19)
(0.226152 3.57498 -4.12746e-20)
(0.16683 3.57082 -5.92405e-20)
(0.254885 0.262495 1.22817e-19)
(0.973311 1.07193 3.26016e-19)
(1.11136 1.25455 -9.35484e-20)
(1.11266 1.28901 -7.35025e-20)
(1.05869 1.26699 0)
(0.989166 1.2325 3.56421e-20)
(0.912975 1.19644 -5.06438e-20)
(0.82762 1.15886 1.37018e-20)
(0.730695 1.11947 -3.29468e-20)
(0.616954 1.07583 -5.47526e-19)
(0.494531 1.02954 -6.00131e-19)
(0.376618 0.981279 -4.51395e-19)
(0.281696 1.0226 -4.8977e-19)
(0.32574 2.18795 5.05073e-19)
(0.419204 3.37673 4.25708e-19)
(0.39774 3.52741 0)
(0.351768 3.57208 0)
(0.313465 3.61291 -3.2498e-20)
(0.261942 3.67341 0)
(0.178942 3.64932 -3.87637e-20)
(0.243945 0.264296 -1.87557e-19)
(0.967535 1.09854 -2.81274e-19)
(1.10151 1.28152 0)
(1.10062 1.31488 6.19585e-21)
(1.0465 1.29234 -9.43833e-20)
(0.977303 1.25775 7.70662e-20)
(0.901426 1.22187 -2.3424e-20)
(0.81642 1.18491 8.59524e-21)
(0.719605 1.1469 -2.13575e-19)
(0.605548 1.10583 2.7717e-20)