/*--------------------------------*- C++ -*----------------------------------*\
| =========                 |                                                 |
| \\      /  F ield         | OpenFOAM: The Open Source CFD Toolbox           |
|  \\    /   O peration     | Version:  2112                                  |
|   \\  /    A nd           | Website:  www.openfoam.com                      |
|    \\/     M anipulation  |                                                 |
\*---------------------------------------------------------------------------*/
FoamFile
{
    version     2.0;
    format      ascii;
    arch        "LSB;label=32;scalar=64";
    class       volScalarField;
    location    "2";
    object      Ma;
}
// * * * * * * * * * * * * * * * * * * * * * * * * * * * * * * * * * * * * * //

dimensions      [0 0 0 0 0 0 0];

internalField   nonuniform List<scalar> 
5250
(
3
2.99998
2.99992
2.99983
2.99946
2.99895
2.99688
2.99385
2.98255
2.96266
2.902
2.75469
2.43764
1.70195
0.739537
0.255493
0.324671
0.351409
0.321281
0.268238
0.214253
0.169822
0.127056
0.0806498
0.0462321
3
2.99998
2.99992
2.99983
2.99947
2.99896
2.99691
2.99391
2.98271
2.96306
2.90287
2.75733
2.44324
1.71086
0.751437
0.264771
0.328744
0.353777
0.324167
0.272615
0.219919
0.1767
0.13606
0.0948399
0.0700552
3
2.99998
2.99992
2.99983
2.99947
2.99898
2.99696
2.99402
2.98298
2.96385
2.90455
2.76288
2.45402
1.73069
0.776485
0.284731
0.337629
0.35916
0.331697
0.28396
0.234214
0.194227
0.158788
0.126407
0.110282
3
2.99998
2.99992
2.99983
2.99949
2.999
2.99703
2.99418
2.98333
2.96496
2.90681
2.77143
2.46848
1.76139
0.81356
0.314173
0.350251
0.365801
0.343222
0.301591
0.25577
0.220146
0.190716
0.165913
0.154872
3
2.99998
2.99992
2.99984
2.99951
2.99904
2.99713
2.99439
2.9838
2.96642
2.90975
2.78257
2.48698
1.80174
0.863051
0.353074
0.363657
0.37323
0.359342
0.324477
0.282993
0.251727
0.228187
0.209656
0.202162
3
2.99998
2.99993
2.99985
2.99953
2.99908
2.99727
2.99467
2.98457
2.9682
2.91409
2.79476
2.51258
1.85265
0.925564
0.397983
0.376513
0.386903
0.379894
0.351029
0.315239
0.28871
0.27107
0.25851
0.25473
3
2.99998
2.99993
2.99986
2.99956
2.99914
2.99744
2.99501
2.98548
2.97031
2.91923
2.80889
2.54292
1.91302
1.0019
0.449856
0.391203
0.404263
0.403775
0.380713
0.351273
0.330538
0.319693
0.31404
0.316417
3
2.99999
2.99994
2.99987
2.9996
2.99921
2.99765
2.99542
2.98664
2.97275
2.92551
2.82376
2.57896
1.97911
1.08964
0.506571
0.405069
0.42269
0.429825
0.413244
0.391287
0.377822
0.37495
0.378696
0.392429
3
2.99999
2.99995
2.99989
2.99964
2.9993
2.99791
2.99592
2.98822
2.97552
2.93375
2.83919
2.62042
2.05224
1.19175
0.567808
0.416579
0.440513
0.456396
0.446637
0.434036
0.430147
0.437438
0.456517
0.495743
3
2.99999
2.99995
2.9999
2.99969
2.99939
2.99821
2.99643
2.98996
2.97832
2.94272
2.8574
2.66407
2.14177
1.31244
0.642148
0.433839
0.46289
0.486213
0.48334
0.479405
0.485328
0.508115
0.55871
0.665416
3
2.99999
2.99997
2.9999
2.9998
2.99941
2.99878
2.99671
2.99247
2.98082
2.95165
2.88437
2.68629
2.30897
1.46165
0.747116
0.470751
0.499348
0.525692
0.526354
0.528192
0.544786
0.588535
0.680817
0.866949
3
3
2.99997
2.99993
2.99977
2.99954
2.99863
2.99728
2.99215
2.98394
2.95601
2.89991
2.75194
2.39359
1.68004
0.844293
0.522446
0.550859
0.571098
0.574063
0.580557
0.606891
0.666
0.777335
0.974638
3
3
2.99997
2.99994
2.9998
2.99961
2.99882
2.9977
2.99321
2.98652
2.96189
2.91726
2.78836
2.48708
1.84993
0.932342
0.576017
0.593607
0.610097
0.621149
0.633473
0.666523
0.733006
0.841552
1.01078
3
3
2.99998
2.99995
2.99984
2.99968
2.99904
2.99814
2.99461
2.98899
2.96998
2.92994
2.82743
2.55298
2.03161
1.07259
0.661251
0.623086
0.641615
0.660341
0.680762
0.717917
0.783609
0.881067
1.02366
3
3
2.99998
2.99996
2.99987
2.99974
2.99921
2.99847
2.99556
2.99096
2.97535
2.94281
2.85802
2.6289
2.19133
1.27358
0.772733
0.651058
0.667613
0.69022
0.720086
0.760553
0.823823
0.909157
1.02872
3.00001
3
2.99999
2.99997
2.99989
2.99979
2.99936
2.99876
2.99635
2.99275
2.97985
2.95526
2.88613
2.70669
2.34745
1.51883
0.912058
0.698049
0.701131
0.721226
0.754353
0.795611
0.85617
0.933801
1.03436
3.00001
3
2.99999
2.99998
2.99992
2.99983
2.9995
2.99902
2.99711
2.99435
2.9838
2.96641
2.91133
2.78633
2.50563
1.86521
1.08436
0.77647
0.754039
0.765404
0.793171
0.830603
0.883562
0.954526
1.042
3.00001
3
3
2.99998
2.99994
2.99987
2.99961
2.99925
2.99776
2.99565
2.98741
2.97443
2.93046
2.83629
2.6141
2.0602
1.2635
0.856414
0.797239
0.80667
0.830249
0.866889
0.911478
0.972614
1.04918
3.00001
3
3
2.99999
2.99996
2.99991
2.99971
2.99943
2.99832
2.99671
2.99061
2.98053
2.94788
2.87513
2.70328
2.25767
1.50579
0.976614
0.838675
0.840875
0.861669
0.897917
0.940964
0.992428
1.05823
3.00001
3.00001
3
2.99999
2.99998
2.99992
2.99983
2.9995
2.99902
2.99718
2.9943
2.98454
2.96529
2.91241
2.77738
2.49897
1.83666
1.16233
0.907181
0.885189
0.896996
0.926139
0.96802
1.0156
1.0719
3.00001
3.00001
3
3
2.99999
2.99994
2.99988
2.99963
2.99928
2.99789
2.99585
2.98825
2.97539
2.93471
2.84195
2.63354
2.10146
1.34238
0.983838
0.926985
0.936612
0.959073
0.993859
1.03644
1.08584
3.00001
3.00001
3
3
2.99999
2.99997
2.9999
2.9998
2.99941
2.99881
2.99672
2.99289
2.98145
2.95493
2.89028
2.71461
2.36838
1.62198
1.11701
0.972821
0.971271
0.990417
1.02049
1.05969
1.10314
3.00001
3.00001
3.00001
3
3
2.99997
2.99994
2.99982
2.99963
2.99893
2.99785
2.99392
2.98744
2.96603
2.92481
2.80833
2.56032
1.95945
1.30711
1.04439
1.00944
1.01918
1.045
1.0821
1.1228
3.00001
3.00001
3.00001
3
3
2.99999
2.99995
2.9999
2.9997
2.9994
2.99826
2.99653
2.99042
2.97937
2.94667
2.86906
2.69893
2.23894
1.5374
1.14667
1.05519
1.05196
1.06921
1.10069
1.13945
3.00001
3.00001
3.00001
3.00001
3
2.99999
2.99997
2.99993
2.99978
2.99957
2.99874
2.99755
2.99289
2.98593
2.96092
2.91595
2.78759
2.50409
1.89495
1.2988
1.10696
1.08715
1.09771
1.12282
1.15865
3.00001
3.00001
3.00001
3.00001
3
3
2.99998
2.99996
2.99986
2.99972
2.99916
2.99836
2.99528
2.99064
2.97393
2.94448
2.85868
2.66488
2.22547
1.52653
1.19493
1.1252
1.12596
1.14392
1.17335
3.00001
3.00001
3.00001
3.00001
3.00001
3
2.99999
2.99997
2.99993
2.99977
2.99955
2.9987
2.99742
2.99269
2.98512
2.95994
2.91073
2.78041
2.4795
1.86406
1.34225
1.17836
1.15988
1.16922
1.19137
3.00001
3.00001
3.00001
3.00001
3.00001
3
3
2.99998
2.99995
2.99985
2.99971
2.99914
2.99832
2.99514
2.99044
2.97335
2.94402
2.85617
2.6689
2.22494
1.56184
1.26273
1.19944
1.19769
1.21267
3.00001
3.00001
3.00001
3.00001
3.00001
3
3
2.99999
2.99997
2.99991
2.99982
2.99946
2.99894
2.99693
2.99399
2.98313
2.96512
2.90965
2.78721
2.51056
1.91988
1.42281
1.25268
1.23125
1.23679
3.00001
3.00001
3.00001
3.00001
3.00001
3.00001
3
3
2.99998
2.99996
2.99986
2.99972
2.99919
2.9984
2.99549
2.9909
2.97526
2.94694
2.86393
2.69314
2.25432
1.64888
1.34377
1.27052
1.2653
3.00001
3.00001
3.00001
3.00001
3.00001
3.00001
3
3
2.99999
2.99998
2.99992
2.99983
2.9995
2.99903
2.99719
2.99454
2.98465
2.96862
2.91831
2.80898
2.56678
2.0082
1.51954
1.33047
1.29819
3.00001
3.00001
3.00001
3.00001
3.00001
3.00001
3.00001
3
3
2.99999
2.99995
2.9999
2.9997
2.99942
2.99831
2.99671
2.99078
2.98114
2.95043
2.88383
2.73294
2.33812
1.74196
1.42556
1.34296
3.00001
3.00001
3.00001
3.00001
3.00001
3.00001
3.00001
3.00001
3
2.99999
2.99998
2.99993
2.99986
2.99958
2.99917
2.99766
2.99532
2.98717
2.97319
2.93128
2.84159
2.62478
2.17721
1.60404
1.39937
3.00001
3.00001
3.00001
3.00001
3.00001
3.00001
3.00001
3.00001
3
3
2.99999
2.99997
2.9999
2.99979
2.9994
2.99881
2.99664
2.9933
2.98166
2.96136
2.90238
2.77157
2.4738
1.89966
1.51258
3.00001
3.00001
3.00001
3.00001
3.00001
3.00001
3.00001
3.00001
3.00001
3
3
2.99998
2.99994
2.99988
2.99964
2.9993
2.99799
2.99611
2.98903
2.97809
2.94189
2.87117
2.69652
2.29527
1.73629
3.00001
3.00001
3.00001
3.00001
3.00001
3.00001
3.00001
3.00001
3.00001
3.00001
3
2.99999
2.99997
2.99993
2.9998
2.9996
2.99885
2.99777
2.99371
2.9875
2.96636
2.92759
2.82323
2.58779
2.08877
3.00001
3.00001
3.00001
3.00001
3.00001
3.00001
3.00001
3.00001
3.00001
3.00001
3
3
2.99999
2.99996
2.99991
2.99973
2.99947
2.9985
2.99703
2.99191
2.98315
2.95691
2.89855
2.76999
2.42913
3.00001
3.00001
3.00001
3.00001
3.00001
3.00001
3.00001
3.00001
3.00001
3.00001
3.00001
3
3
2.99998
2.99995
2.99985
2.99969
2.99912
2.99828
2.99518
2.99044
2.97406
2.94605
2.86142
2.69912
3.00001
3.00001
3.00001
3.00001
3.00001
3.00001
3.00001
3.00001
3.00001
3.00001
3.00001
3.00001
3
2.99999
2.99997
2.99993
2.9998
2.99961
2.99889
2.99781
2.99396
2.9878
2.96788
2.9296
2.83227
3.00001
3.00001
3.00001
3.00001
3.00001
3.00001
3.00001
3.00001
3.00001
3.00001
3.00001
3.00001
3
3
2.99999
2.99997
2.99989
2.99978
2.99937
2.99878
2.99656
2.99326
2.98159
2.96213
2.90344
3.00001
3.00001
3.00001
3.00001
3.00001
3.00001
3.00001
3.00001
3.00001
3.00001
3.00001
3.00001
3.00001
3
3
2.99999
2.99994
2.99989
2.99966
2.99934
2.99815
2.99639
2.99001
2.97999
2.94756
3.00001
3.00001
3.00001
3.00001
3.00001
3.00001
3.00001
3.00001
3.00001
3.00001
3.00001
3.00001
3.00001
3
3
2.99999
2.99998
2.99993
2.99986
2.99959
2.99919
2.99776
2.99555
2.98807
2.97529
3.00001
3.00001
3.00001
3.00001
3.00001
3.00001
3.00001
3.00001
3.00001
3.00001
3.00001
3.00001
3.00001
3.00001
3
3
2.99999
2.99997
2.99993
2.99978
2.99957
2.99877
2.99763
2.9934
2.987
3.00001
3.00001
3.00001
3.00001
3.00001
3.00001
3.00001
3.00001
3.00001
3.00001
3.00001
3.00001
3.00001
3.00001
3.00001
3
3
2.99999
2.99996
2.99989
2.99977
2.99936
2.99875
2.99652
2.99312
3.00001
3.00001
3.00001
3.00001
3.00001
3.00001
3.00001
3.00001
3.00001
3.00001
3.00001
3.00001
3.00001
3.00001
3.00001
3.00001
3
3
2.99998
2.99996
2.99986
2.99973
2.99924
2.99849
2.99592
3.00001
3.00001
3.00001
3.00001
3.00001
3.00001
3.00001
3.00001
3.00001
3.00001
3.00001
3.00001
3.00001
3.00001
3.00001
3.00001
3
3
2.99999
2.99998
2.99993
2.99986
2.99961
2.99924
2.99789
3.00001
3.00001
3.00001
3.00001
3.00001
3.00001
3.00001
3.00001
3.00001
3.00001
3.00001
3.00001
3.00001
3.00001
3.00001
3.00001
3.00001
3.00001
3
2.99999
2.99997
2.99993
2.99981
2.99962
2.99894
3.00001
3.00001
3.00001
3.00001
3.00001
3.00001
3.00001
3.00001
3.00001
3.00001
3.00001
3.00001
3.00001
3.00001
3.00001
3.00001
3.00001
3.00001
3
3
2.99999
2.99996
2.99992
2.99977
2.99955
3.00001
3.00001
3.00001
3.00001
3.00001
3.00001
3.00001
3.00001
3.00001
3.00001
3.00001
3.00001
3.00001
3.00001
3.00001
3.00001
3.00001
3.00001
3.00001
3
3
2.99999
2.99995
2.9999
2.99971
3.00001
3.00001
3.00001
3.00001
3.00001
3.00001
3.00001
3.00001
3.00001
3.00001
3.00001
3.00001
3.00001
3.00001
3.00001
3.00001
3.00001
3.00001
3.00001
3
3
2.99999
2.99997
2.99993
2.99979
1.1061
1.29758
1.35367
1.31679
1.2397
1.15422
1.07486
1.03465
1.02809
1.0312
1.0336
1.034
1.03283
1.03043
1.02826
1.02729
1.0287
1.03044
1.03255
1.03533
1.0385
1.04187
1.04545
1.04958
1.05406
1.05903
1.0642
1.06969
1.07536
1.08129
1.08745
1.09382
1.10031
1.10708
1.11359
1.12041
1.12624
1.13081
1.13395
1.13537
1.13324
1.12202
1.09081
1.01607
0.8498
0.520069
0.170594
0.0534758
0.0565521
0.132806
0.194745
0.250643
0.305526
0.357726
0.404684
0.445276
0.485079
0.525231
0.562482
0.596174
0.627299
0.656272
0.683839
0.710013
0.7353
0.759414
0.782963
0.805411
0.827606
0.84876
0.869874
0.889941
0.910156
0.929305
0.948752
0.967086
0.985815
1.00342
1.02147
1.03838
1.05575
1.072
1.08879
1.10443
1.12066
1.13573
1.1514
1.16596
1.1813
1.19556
1.21066
1.22463
1.23949
1.25316
1.26775
1.28097
1.29491
1.30667
1.31753
1.3235
1.14603
1.2626
1.32746
1.36691
1.40632
1.43867
1.44992
1.44677
1.43292
1.41125
1.39439
1.38846
1.38977
1.39174
1.39357
1.39459
1.39521
1.39574
1.39635
1.39727
1.39868
1.40077
1.40357
1.40676
1.40981
1.413
1.41621
1.41972
1.42338
1.42726
1.43139
1.43552
1.44
1.44443
1.449
1.45376
1.45805
1.46109
1.46333
1.46405
1.46223
1.45352
1.42912
1.36911
1.23363
0.960021
0.598493
0.4453
0.50043
0.571755
0.632658
0.681587
0.717977
0.749297
0.778678
0.805418
0.830078
0.855276
0.881422
0.906284
0.929431
0.951222
0.972195
0.992292
1.01194
1.03102
1.04991
1.06842
1.08686
1.10486
1.12289
1.14038
1.15809
1.17515
1.1926
1.20927
1.22641
1.24272
1.25957
1.27551
1.292
1.30766
1.32388
1.33923
1.35506
1.36997
1.38535
1.39977
1.41457
1.42837
1.44256
1.45577
1.46942
1.48214
1.49526
1.50741
1.51974
1.53036
1.53989
1.54425
1.14357
1.25092
1.34631
1.43819
1.52346
1.59061
1.62458
1.62803
1.62382
1.61007
1.59222
1.5767
1.56924
1.56648
1.56746
1.56846
1.56976
1.57102
1.57206
1.57304
1.57413
1.57553
1.57724
1.57933
1.58157
1.58416
1.58678
1.58966
1.59262
1.59569
1.59893
1.60226
1.60563
1.60937
1.61287
1.61662
1.62006
1.62192
1.6231
1.62321
1.62039
1.61109
1.5877
1.53595
1.43121
1.2514
1.0087
0.831389
0.834405
0.874594
0.913425
0.945434
0.969066
0.986091
1.00053
1.01365
1.02645
1.04025
1.05572
1.07196
1.08843
1.1048
1.12127
1.13743
1.15363
1.16936
1.18536
1.20086
1.21689
1.2322
1.24826
1.26337
1.2794
1.29438
1.3104
1.32529
1.34127
1.35615
1.37209
1.38694
1.40287
1.41759
1.43335
1.44783
1.46331
1.47743
1.49253
1.50619
1.52082
1.53398
1.54814
1.56084
1.57457
1.58682
1.60015
1.61185
1.62459
1.63497
1.64532
1.64993
1.14936
1.25817
1.35735
1.44853
1.52973
1.59734
1.65106
1.68936
1.71151
1.71731
1.71642
1.70989
1.70042
1.69004
1.68509
1.68307
1.68419
1.68552
1.68744
1.68959
1.69123
1.69263
1.69401
1.69558
1.69759
1.69977
1.70245
1.70498
1.70792
1.71073
1.71362
1.7167
1.71974
1.72289
1.72621
1.7291
1.73135
1.73221
1.73233
1.73072
1.72427
1.70821
1.67147
1.59459
1.468
1.33198
1.23149
1.12293
1.052
1.02777
1.03848
1.05668
1.07569
1.09388
1.10846
1.12013
1.13159
1.14268
1.15472
1.16683
1.17998
1.19329
1.20777
1.22182
1.23669
1.2508
1.26576
1.27987
1.29505
1.30904
1.32418
1.33799
1.35314
1.36698
1.38228
1.39624
1.41164
1.42558
1.44088
1.45466
1.46988
1.48356
1.49869
1.51219
1.52714
1.54038
1.55511
1.56803
1.58248
1.59501
1.60912
1.62123
1.63503
1.64674
1.66027
1.67156
1.68467
1.69496
1.70602
1.711
1.1487
1.25542
1.35154
1.43896
1.51929
1.59052
1.65432
1.70793
1.75067
1.77874
1.79125
1.79216
1.79083
1.78499
1.77777
1.77011
1.76609
1.76365
1.76425
1.76507
1.76635
1.76807
1.76999
1.7718
1.77347
1.77539
1.77729
1.77955
1.78188
1.7843
1.78704
1.78961
1.79244
1.79534
1.79791
1.8001
1.80094
1.80098
1.79954
1.79427
1.77998
1.74908
1.67936
1.56185
1.43669
1.37006
1.34158
1.30532
1.25828
1.21129
1.17406
1.15604
1.15303
1.16161
1.17106
1.18317
1.19755
1.20945
1.22158
1.23278
1.24503
1.25642
1.26899
1.28098
1.29455
1.3074
1.3218
1.33508
1.34969
1.3629
1.37755
1.39067
1.40527
1.41824
1.43276
1.44572
1.46033
1.47338
1.48805
1.50106
1.51569
1.52858
1.54309
1.55577
1.57012
1.58259
1.59681
1.60906
1.62315
1.63515
1.64906
1.66079
1.67451
1.68597
1.69954
1.71069
1.72398
1.73433
1.74587
1.75109
1.14145
1.24337
1.33765
1.42305
1.50188
1.57361
1.63808
1.69492
1.74372
1.78383
1.81563
1.83607
1.84581
1.84707
1.8463
1.84197
1.83666
1.83007
1.82675
1.82465
1.82541
1.82628
1.82773
1.8299
1.83251
1.83475
1.83699
1.83907
1.84119
1.84378
1.84627
1.84906
1.85194
1.85445
1.85663
1.85747
1.85738
1.85602
1.85125
1.83798
1.80941
1.74596
1.62787
1.49514
1.42203
1.40283
1.40518
1.40356
1.39321
1.37385
1.34499
1.3072
1.26881
1.24124
1.2289
1.23077
1.23902
1.24973
1.26437
1.27818
1.29205
1.30443
1.31694
1.32768
1.33974
1.35098
1.36426
1.37687
1.39126
1.40434
1.41889
1.43168
1.44578
1.45813
1.472
1.48422
1.49805
1.51024
1.52408
1.53623
1.55007
1.56216
1.57602
1.58802
1.60185
1.61367
1.62746
1.63911
1.65291
1.66445
1.67826
1.68969
1.70351
1.71485
1.72864
1.73982
1.75346
1.76398
1.77603
1.7818
1.13752
1.23093
1.31932
1.40146
1.47768
1.54833
1.61349
1.67248
1.72599
1.77276
1.813
1.84556
1.87011
1.88523
1.89163
1.89212
1.89142
1.88793
1.8841
1.87919
1.87702
1.87547
1.87623
1.87711
1.87856
1.88071
1.88303
1.88525
1.88755
1.88951
1.89176
1.89406
1.89622
1.89823
1.89907
1.89883
1.89764
1.89302
1.88112
1.8537
1.79538
1.67761
1.53761
1.44962
1.42666
1.4337
1.44622
1.45677
1.46664
1.46949
1.46465
1.44795
1.42012
1.38068
1.33874
1.3053
1.28794
1.28584
1.29372
1.3049
1.32145
1.33792
1.35333
1.3664
1.3787
1.38882
1.39982
1.41042
1.42366
1.43605
1.45011
1.46259
1.47653
1.48869
1.50226
1.51399
1.52725
1.53875
1.552
1.56357
1.57696
1.58854
1.60199
1.61356
1.62712
1.63866
1.65228
1.6637
1.67738
1.68874
1.70251
1.71382
1.72764
1.73889
1.75271
1.76382
1.77751
1.78807
1.8002
1.80627
1.13463
1.22081
1.30383
1.38229
1.45585
1.52447
1.58836
1.64731
1.70151
1.7505
1.79422
1.83221
1.86453
1.89038
1.90956
1.92119
1.9266
1.92716
1.92671
1.92398
1.92083
1.91648
1.91446
1.91288
1.91363
1.91467
1.91648
1.91921
1.922
1.92467
1.92719
1.92937
1.93104
1.93172
1.93137
1.93012
1.92581
1.91465
1.88913
1.83417
1.72052
1.57399
1.47415
1.44574
1.44875
1.46042
1.47613
1.49403
1.51373
1.52798
1.53512
1.53675
1.53129
1.51434
1.48624
1.44595
1.40053
1.36231
1.34008
1.33563
1.3435
1.35525
1.37358
1.39259
1.41072
1.42484
1.43665
1.44612
1.45618
1.4661
1.47835
1.4899
1.50331
1.51531
1.52877
1.54061
1.55389
1.56547
1.57854
1.5899
1.60295
1.61437
1.62761
1.63909
1.65247
1.66397
1.67752
1.68902
1.70266
1.71408
1.72784
1.73921
1.75311
1.76438
1.77834
1.78941
1.8032
1.81366
1.82595
1.83184
1.13315
1.21121
1.28849
1.36267
1.43318
1.49954
1.56196
1.62016
1.67427
1.72421
1.76993
1.81131
1.84817
1.88016
1.90718
1.92864
1.94393
1.95302
1.95713
1.95753
1.95725
1.95558
1.95281
1.95037
1.94886
1.9484
1.94889
1.94977
1.95134
1.9537
1.95602
1.95844
1.95933
1.95917
1.95831
1.95421
1.9443
1.91942
1.86809
1.75811
1.60463
1.49191
1.45686
1.45582
1.46855
1.48414
1.50361
1.5242
1.54589
1.5642
1.57986
1.59061
1.59612
1.59716
1.59129
1.57432
1.54526
1.50439
1.45627
1.41321
1.387
1.38056
1.38864
1.40107
1.42066
1.44068
1.46023
1.47531
1.48782
1.49735
1.50737
1.51681
1.5284
1.53946
1.55237
1.56408
1.57735
1.5892
1.60255
1.61424
1.62745
1.63897
1.65231
1.66394
1.67744
1.689
1.70257
1.71407
1.72774
1.73912
1.75286
1.76414
1.77801
1.78921
1.80315
1.81414
1.82792
1.8383
1.85063
1.85654
1.13694
1.20682
1.27761
1.34694
1.41375
1.4772
1.5374
1.59412
1.64752
1.69728
1.74366
1.78628
1.82543
1.86057
1.89188
1.9187
1.94126
1.95911
1.97188
1.9795
1.98322
1.98373
1.98357
1.98237
1.97979
1.97789
1.97605
1.97623
1.97682
1.97784
1.97954
1.9811
1.9814
1.98074
1.97711
1.96814
1.94492
1.89689
1.79212
1.63427
1.50966
1.46689
1.46225
1.47439
1.48966
1.50733
1.52848
1.55051
1.57292
1.59251
1.61078
1.62507
1.63765
1.64743
1.65266
1.65359
1.64777
1.63032
1.60123
1.5597
1.5102
1.46404
1.43422
1.42625
1.43455
1.44695
1.46699
1.48835
1.50878
1.52437
1.53814
1.54848
1.55919
1.56862
1.57994
1.59053
1.60308
1.61453
1.62765
1.63945
1.65293
1.66476
1.67822
1.68994
1.70351
1.71515
1.7287
1.74011
1.75368
1.76495
1.77856
1.78967
1.80335
1.81438
1.82823
1.83912
1.85289
1.86321
1.87557
1.88151
1.14359
1.20556
1.27004
1.33411
1.39687
1.45739
1.51525
1.57006
1.62219
1.67124
1.71761
1.76077
1.80112
1.83812
1.87215
1.90261
1.92977
1.95286
1.97227
1.98739
1.99821
2.00452
2.00769
2.00821
2.00813
2.00739
2.00562
2.00426
2.0031
2.00243
2.00261
2.00232
2.00144
1.99766
1.98926
1.96709
1.92192
1.82076
1.66308
1.52389
1.47195
1.46598
1.47781
1.49162
1.50964
1.5301
1.55323
1.57506
1.59592
1.61474
1.6334
1.64968
1.66625
1.6805
1.69296
1.70288
1.707
1.70748
1.70181
1.68479
1.65644
1.6165
1.56671
1.5183
1.48528
1.47342
1.48224
1.49465
1.5143
1.5365
1.55764
1.57369
1.58812
1.59914
1.61051
1.6202
1.63139
1.64162
1.65378
1.66487
1.67785
1.68956
1.70306
1.71483
1.72841
1.74008
1.75371
1.76508
1.77854
1.78961
1.80307
1.81399
1.82752
1.83832
1.85199
1.86271
1.87634
1.8866
1.89889
1.90494
1.15309
1.20825
1.26588
1.32456
1.38276
1.43947
1.4947
1.54763
1.59813
1.64617
1.69167
1.73484
1.77538
1.81349
1.84888
1.88157
1.91141
1.93817
1.96181
1.9818
1.99843
2.01123
2.0204
2.02583
2.02858
2.02906
2.02899
2.02834
2.02656
2.02454
2.02276
2.02066
2.01606
2.00674
1.98528
1.94175
1.84739
1.69053
1.5403
1.47863
1.46979
1.47975
1.49394
1.51064
1.53207
1.55394
1.57636
1.59677
1.61716
1.63559
1.65339
1.66997
1.68814
1.7045
1.72153
1.7354
1.74717
1.75622
1.76048
1.76163
1.75729
1.74261
1.71587
1.6777
1.62843
1.57738
1.53879
1.52351
1.53235
1.54443
1.56332
1.58556
1.60708
1.6234
1.63824
1.64977
1.66174
1.67157
1.68284
1.69269
1.70448
1.71496
1.72773
1.73901
1.75233
1.76359
1.77702
1.78819
1.80161
1.81243
1.82567
1.83625
1.8495
1.86
1.87327
1.88373
1.897
1.90715
1.91919
1.92533
1.16703
1.21496
1.26608
1.31887
1.37251
1.42541
1.47695
1.52723
1.57593
1.62258
1.6673
1.70978
1.7503
1.78856
1.82472
1.8586
1.8901
1.91922
1.94561
1.96935
1.99003
2.0077
2.02206
2.03317
2.04098
2.0458
2.0479
2.04806
2.04784
2.04654
2.04321
2.03743
2.02756
2.00628
1.96384
1.87474
1.71933
1.55952
1.48522
1.47225
1.48121
1.49355
1.51093
1.53118
1.55358
1.57469
1.59654
1.61652
1.63621
1.65352
1.67138
1.68893
1.70746
1.72485
1.74342
1.7595
1.77615
1.7899
1.8022
1.81203
1.81775
1.82004
1.8172
1.80436
1.77941
1.74267
1.69424
1.64058
1.59544
1.57632
1.58489
1.59613
1.61342
1.63522
1.65706
1.67334
1.68841
1.70035
1.71283
1.72285
1.73418
1.74363
1.75505
1.76495
1.77726
1.78773
1.80059
1.8111
1.82406
1.83458
1.84748
1.85778
1.87054
1.88072
1.89344
1.90354
1.91624
1.92605
1.93774
1.94361
1.17945
1.22286
1.26911
1.3172
1.36588
1.41499
1.46373
1.51094
1.55707
1.60199
1.64515
1.68685
1.72656
1.76476
1.80076
1.83523
1.86735
1.89777
1.92573
1.95174
1.97512
1.99623
2.01448
2.03007
2.04273
2.05213
2.05901
2.0616
2.06155
2.0603
2.05607
2.04697
2.02688
1.98646
1.90375
1.75141
1.58522
1.49539
1.47625
1.48285
1.4952
1.51108
1.53169
1.5529
1.57477
1.59556
1.61672
1.63585
1.6551
1.67269
1.6913
1.7091
1.72798
1.74645
1.76577
1.7831
1.80142
1.817
1.83347
1.84743
1.86068
1.871
1.87794
1.88047
1.87851
1.86698
1.84326
1.8081
1.76046
1.70452
1.65358
1.62885
1.63675
1.64709
1.6625
1.6838
1.70578
1.72209
1.73738
1.74962
1.76253
1.77287
1.78427
1.79351
1.80461
1.81413
1.82588
1.83572
1.84783
1.85785
1.87024
1.88035
1.89275
1.90269
1.91499
1.92481
1.93705
1.94647
1.95784
1.96312
1.19497
1.23264
1.27434
1.31777
1.36296
1.4082
1.45341
1.49873
1.54242
1.58515
1.6269
1.66709
1.70587
1.74326
1.77879
1.81312
1.84523
1.87637
1.90476
1.93247
1.95691
1.9808
2.00102
2.0205
2.03609
2.05033
2.06077
2.06721
2.06727
2.06546
2.05896
2.04207
2.00601
1.93156
1.78591
1.61655
1.51095
1.48302
1.48645
1.4977
1.51411
1.53322
1.55488
1.57556
1.59691
1.61709
1.63786
1.65702
1.67631
1.69403
1.71292
1.73096
1.75046
1.76919
1.78835
1.80626
1.82482
1.84119
1.85892
1.87421
1.89048
1.90451
1.91789
1.92793
1.93502
1.93717
1.93557
1.92551
1.90309
1.86961
1.82344
1.76646
1.70999
1.67925
1.68481
1.69495
1.70933
1.72935
1.75084
1.76745
1.7831
1.79566
1.80894
1.81964
1.83131
1.84058
1.85162
1.86106
1.87247
1.88192
1.89358
1.90326
1.9153
1.92507
1.93717
1.94685
1.95892
1.96816
1.97941
1.98421
1.2089
1.24483
1.28174
1.32165
1.36245
1.40479
1.44723
1.48899
1.53148
1.57207
1.61183
1.65097
1.68835
1.72477
1.75977
1.79326
1.82532
1.85627
1.88491
1.91337
1.93846
1.96394
1.98554
2.00738
2.02534
2.04232
2.05599
2.06358
2.06345
2.05987
2.04747
2.01748
1.95285
1.81913
1.6494
1.53131
1.49356
1.4917
1.5039
1.5204
1.54007
1.56011
1.58131
1.60117
1.6224
1.64232
1.66277
1.68121
1.70004
1.71789
1.73677
1.75476
1.77409
1.79212
1.81105
1.8288
1.84686
1.86343
1.88104
1.89651
1.91369
1.92871
1.94453
1.95834
1.97129
1.98104
1.98811
1.99046
1.9892
1.98131
1.96117
1.92951
1.88488
1.8283
1.76616
1.72943
1.73102
1.74109
1.75434
1.77304
1.79348
1.81031
1.82633
1.83926
1.85279
1.86382
1.87578
1.8853
1.89666
1.9061
1.91722
1.92637
1.93777
1.94723
1.9591
1.96862
1.9806
1.98976
2.00108
2.00589
1.22331
1.25673
1.29117
1.32702
1.36543
1.40389
1.44382
1.48372
1.52266
1.56255
1.60057
1.63743
1.67474
1.70897
1.74374
1.77647
1.80772
1.83895
1.86691
1.89603
1.92131
1.94736
1.97052
1.99264
2.01357
2.03081
2.04664
2.05179
2.04983
2.04155
2.01735
1.96277
1.84329
1.67419
1.54848
1.50242
1.49861
1.5112
1.52881
1.54779
1.56953
1.59001
1.61093
1.6307
1.65108
1.66967
1.68881
1.70642
1.72513
1.74253
1.76074
1.77813
1.79652
1.81386
1.83244
1.84948
1.8672
1.88358
1.90065
1.91621
1.93345
1.9485
1.96552
1.98025
1.99573
2.00927
2.02185
2.03177
2.03942
2.04222
2.04207
2.03659
2.01993
1.99023
1.94759
1.89217
1.82441
1.78187
1.77729
1.78749
1.79947
1.81621
1.83549
1.85251
1.8692
1.88211
1.89582
1.90699
1.91918
1.92905
1.94068
1.9499
1.96082
1.96977
1.981
1.99023
2.00195
2.01096
2.0221
2.02707
1.23748
1.26987
1.30185
1.33463
1.36943
1.4061
1.44256
1.48016
1.518
1.5543
1.59251
1.62705
1.66268
1.69709
1.72912
1.76257
1.79208
1.82316
1.85117
1.87906
1.90607
1.93047
1.9559
1.97733
1.99957
2.0173
2.03004
2.0307
2.02499
2.00591
1.96123
1.85221
1.69244
1.55847
1.50752
1.5016
1.51553
1.53312
1.55432
1.57747
1.60073
1.6216
1.64229
1.66082
1.67964
1.69705
1.71541
1.73253
1.75031
1.76649
1.78386
1.8003
1.81806
1.83519
1.85332
1.86996
1.88763
1.90368
1.92065
1.93648
1.95344
1.96883
1.98609
2.00092
2.01767
2.03202
2.0472
2.06059
2.07324
2.08384
2.09216
2.09614
2.09697
2.09321
2.07942
2.05197
2.01183
1.95765
1.88569
1.83771
1.82524
1.83526
1.84608
1.85994
1.87874
1.89559
1.91254
1.92533
1.93934
1.95017
1.9626
1.97272
1.9845
1.99353
2.0045
2.01331
2.02449
2.03323
2.04407
2.04905
1.25662
1.28507
1.31443
1.34434
1.37566
1.40914
1.44414
1.47867
1.5144
1.54943
1.5846
1.61984
1.65257
1.68651
1.71811
1.74919
1.78008
1.8083
1.83779
1.864
1.89123
1.9162
1.94015
1.96397
1.98343
2.00145
2.00558
2.00129
1.987
1.94745
1.8582
1.69745
1.55873
1.50293
1.49744
1.51269
1.53343
1.55609
1.58215
1.60598
1.62978
1.65072
1.67068
1.68836
1.7067
1.72384
1.74183
1.75806
1.7747
1.79023
1.80705
1.82319
1.84095
1.85769
1.87538
1.89182
1.90923
1.92499
1.94206
1.95755
1.9742
1.98958
2.00638
2.02137
2.03846
2.053
2.06953
2.08361
2.09861
2.11181
2.12447
2.13546
2.14402
2.14916
2.15051
2.14812
2.13723
2.11256
2.07572
2.0224
1.9493
1.89569
1.87424
1.88308
1.89256
1.90479
1.92282
1.93848
1.95547
1.96858
1.9827
1.99308
2.00612
2.01627
2.02828
2.03726
2.0485
2.05698
2.06746
2.07239
1.27649
1.29909
1.32964
1.35867
1.38694
1.41603
1.4477
1.48048
1.5135
1.54619
1.57967
1.61261
1.64547
1.67694
1.70852
1.73866
1.7681
1.7973
1.82427
1.85218
1.87722
1.90314
1.92633
1.94888
1.96821
1.97677
1.97338
1.96162
1.9297
1.84706
1.69981
1.55404
1.49103
1.48665
1.50439
1.52623
1.55169
1.57899
1.60579
1.62943
1.65181
1.67193
1.69268
1.71226
1.73236
1.75022
1.76782
1.78336
1.79978
1.81526
1.83217
1.84848
1.86599
1.88231
1.89976
1.91579
1.93272
1.94812
1.96459
1.97934
1.99566
2.01057
2.02708
2.04229
2.05919
2.07391
2.09072
2.10461
2.12049
2.13386
2.14839
2.16128
2.17414
2.18552
2.19477
2.20144
2.20344
2.20227
2.19442
2.17359
2.13978
2.08728
2.01658
1.95531
1.92522
1.93007
1.93949
1.95016
1.96704
1.98127
1.99841
2.01192
2.02572
2.0361
2.04957
2.05954
2.07184
2.08055
2.0912
2.09598
1.29929
1.31556
1.34127
1.37129
1.39977
1.42817
1.45555
1.48479
1.51561
1.54628
1.57679
1.60824
1.63865
1.66976
1.69939
1.72928
1.75798
1.78605
1.81384
1.83974
1.86627
1.89016
1.91409
1.9343
1.94643
1.94568
1.9353
1.90569
1.83729
1.69273
1.54085
1.47165
1.46766
1.48578
1.51023
1.53791
1.56946
1.59808
1.62465
1.64764
1.67007
1.69091
1.71273
1.73321
1.75402
1.77256
1.79103
1.80761
1.82498
1.8412
1.85864
1.87481
1.89198
1.90792
1.92491
1.94033
1.9568
1.97152
1.98732
2.00163
2.01755
2.03204
2.04841
2.06334
2.07982
2.09456
2.11096
2.12484
2.141
2.15424
2.16984
2.18306
2.19773
2.21084
2.22415
2.23586
2.24593
2.25371
2.25616
2.25594
2.25085
2.23392
2.20303
2.15333
2.08747
2.01754
1.97988
1.97696
1.98722
1.9968
2.0112
2.02507
2.04204
2.05472
2.06837
2.0791
2.09224
2.1017
2.11351
2.11827
1.32926
1.33597
1.35458
1.38238
1.41002
1.43779
1.46544
1.49249
1.52046
1.54885
1.57752
1.60612
1.63559
1.66399
1.69315
1.72104
1.74924
1.77647
1.80317
1.82959
1.85426
1.8788
1.89973
1.91499
1.91589
1.90648
1.87951
1.82004
1.68233
1.52388
1.44796
1.44229
1.46152
1.48681
1.51803
1.55198
1.58427
1.61254
1.63854
1.66173
1.68501
1.70707
1.72993
1.75109
1.77252
1.79193
1.81185
1.82996
1.84864
1.86553
1.88307
1.89919
1.91653
1.93256
1.94966
1.9651
1.98144
1.9959
2.01159
2.0257
2.04133
2.05553
2.07153
2.08586
2.10203
2.11645
2.13248
2.14662
2.16262
2.1761
2.19209
2.20515
2.22074
2.23384
2.24849
2.26148
2.27472
2.28638
2.297
2.30507
2.30874
2.30952
2.30591
2.29335
2.26479
2.22025
2.16064
2.08267
2.03682
2.02528
2.03507
2.04289
2.05491
2.0691
2.08479
2.09637
2.11111
2.12082
2.13296
2.13813
1.36751
1.36466
1.3761
1.39564
1.42151
1.44743
1.47356
1.49927
1.52579
1.5526
1.5798
1.60693
1.63377
1.66149
1.68829
1.71559
1.74211
1.76856
1.79445
1.81946
1.84403
1.86559
1.88237
1.88492
1.87627
1.85174
1.7962
1.66738
1.50528
1.42179
1.41436
1.43356
1.4601
1.49297
1.53021
1.56412
1.59534
1.62278
1.64909
1.67382
1.69913
1.72311
1.74705
1.7686
1.79007
1.80976
1.83027
1.84921
1.86889
1.88676
1.90541
1.9225
1.94066
1.95717
1.97463
1.99018
2.0067
2.02131
2.03717
2.05113
2.06659
2.08037
2.0958
2.10968
2.12543
2.13937
2.15522
2.1691
2.18475
2.1983
2.21391
2.22687
2.24255
2.25505
2.2704
2.28288
2.29734
2.30983
2.32295
2.33455
2.34548
2.35389
2.35898
2.36043
2.35819
2.34808
2.32532
2.2863
2.22879
2.15024
2.09545
2.07431
2.07946
2.08734
2.09834
2.11089
2.12572
2.13645
2.1502
2.15537
1.40262
1.39026
1.39548
1.41248
1.43609
1.46045
1.48417
1.5079
1.53222
1.55722
1.5826
1.6084
1.6341
1.65974
1.68581
1.71134
1.73706
1.76226
1.78704
1.81119
1.83291
1.85065
1.85447
1.84604
1.82314
1.76969
1.65272
1.48507
1.39386
1.38411
1.40369
1.43058
1.46606
1.50506
1.54144
1.57372
1.6036
1.63112
1.65844
1.68455
1.71088
1.73552
1.76007
1.78286
1.80593
1.82707
1.84842
1.86781
1.8879
1.90643
1.92592
1.94389
1.96265
1.97972
1.99771
2.0138
2.03078
2.04566
2.06154
2.07542
2.09073
2.10427
2.11958
2.13323
2.14866
2.16234
2.1778
2.19132
2.20668
2.22005
2.23516
2.24828
2.2633
2.2759
2.29102
2.30317
2.31814
2.33027
2.3445
2.35675
2.36967
2.38134
2.3922
2.40103
2.40756
2.40908
2.40812
2.40119
2.38197
2.35054
2.29342
2.22229
2.15683
2.1254
2.12241
2.13118
2.14056
2.1499
2.16346
2.16882
1.48274
1.42648
1.42009
1.42769
1.44632
1.47159
1.49568
1.5186
1.54137
1.56445
1.58809
1.61183
1.63631
1.66057
1.68512
1.70968
1.73398
1.75805
1.78146
1.80304
1.82111
1.82561
1.8172
1.7952
1.7433
1.63575
1.46279
1.3635
1.35255
1.37237
1.40068
1.43772
1.47914
1.51664
1.55088
1.58156
1.611
1.63891
1.66704
1.69409
1.72114
1.74665
1.77218
1.79613
1.82004
1.84196
1.86383
1.88373
1.90423
1.92332
1.9437
1.96256
1.98235
2.00026
2.01887
2.03547
2.05287
2.06818
2.08457
2.09898
2.11475
2.12864