/*--------------------------------*- C++ -*----------------------------------*\
| =========                 |                                                 |
| \\      /  F ield         | OpenFOAM: The Open Source CFD Toolbox           |
|  \\    /   O peration     | Version:  2112                                  |
|   \\  /    A nd           | Website:  www.openfoam.com                      |
|    \\/     M anipulation  |                                                 |
\*---------------------------------------------------------------------------*/
FoamFile
{
    version     2.0;
    format      ascii;
    arch        "LSB;label=32;scalar=64";
    class       volScalarField;
    location    "2";
    object      p;
}
// * * * * * * * * * * * * * * * * * * * * * * * * * * * * * * * * * * * * * //

dimensions      [1 -1 -2 0 0 0 0];

internalField   nonuniform List<scalar> 
5250
(
1
1.00002
1.00006
1.00018
1.00037
1.00104
1.00212
1.00609
1.01189
1.03748
1.06636
1.24235
1.48116
2.62295
5.39937
12.0633
11.6003
11.2297
11.2993
11.5223
11.785
11.9534
12.0778
12.177
12.2518
1
1.00002
1.00006
1.00018
1.00037
1.00103
1.0021
1.00603
1.01179
1.03709
1.06569
1.24013
1.47301
2.61204
5.33644
11.9974
11.5808
11.2225
11.2918
11.511
11.7728
11.9424
12.069
12.1701
12.247
1
1.00002
1.00006
1.00017
1.00036
1.00102
1.00206
1.00592
1.0116
1.03628
1.06456
1.23513
1.45852
2.58576
5.20796
11.8489
11.5327
11.2021
11.2656
11.4703
11.7281
11.8975
12.0238
12.124
12.2005
1
1.00002
1.00006
1.00017
1.00035
1.00099
1.00201
1.00577
1.01135
1.03512
1.06326
1.22705
1.44094
2.54166
5.02538
11.6134
11.4528
11.1743
11.2224
11.3964
11.6487
11.8168
11.9399
12.0374
12.1141
1
1.00002
1.00006
1.00016
1.00034
1.00096
1.00195
1.00556
1.01102
1.0336
1.06154
1.21658
1.41851
2.48501
4.7928
11.2782
11.3229
11.1576
11.1702
11.2931
11.5379
11.7048
11.8221
11.915
11.9923
1
1.00002
1.00005
1.00015
1.00032
1.00091
1.00185
1.00528
1.0105
1.03179
1.05862
1.2046
1.39172
2.40579
4.53157
10.8161
11.2439
11.1031
11.082
11.1742
11.3888
11.5532
11.6607
11.7455
11.8231
1
1.00002
1.00005
1.00015
1.0003
1.00085
1.00174
1.00495
1.00987
1.02966
1.05512
1.19062
1.36141
2.31164
4.24101
10.2313
11.168
11.0238
10.9558
11.0282
11.2094
11.3586
11.4466
11.5123
11.5809
1
1.00002
1.00005
1.00013
1.00028
1.00078
1.0016
1.00454
1.00906
1.02725
1.05056
1.17581
1.32649
2.20698
3.93234
9.52365
11.0879
10.9343
10.7998
10.8516
10.993
11.1121
11.1662
11.1936
11.2307
1
1.00002
1.00004
1.00012
1.00025
1.0007
1.00142
1.00405
1.008
1.02459
1.04431
1.16041
1.28694
2.09282
3.60294
8.69211
11.0125
10.8372
10.6187
10.6469
10.7386
10.807
10.8014
10.7509
10.6808
1
1.00001
1.00003
1.0001
1.00021
1.0006
1.00122
1.00353
1.00688
1.02167
1.03819
1.14129
1.24853
1.96586
3.25368
7.74257
10.9614
10.7455
10.4187
10.4149
10.4468
10.4395
10.3552
10.1322
9.74673
1
1.00001
1.00003
1.00007
1.0002
1.00041
1.00121
1.00225
1.00751
1.0126
1.04774
1.07806
1.308
1.62907
3.07032
6.5736
10.9152
10.6689
10.226
10.1527
10.1309
10.042
9.78174
9.16214
7.57734
1
1.00001
1.00003
1.00008
1.00016
1.00046
1.00094
1.00268
1.0054
1.01582
1.03055
1.09847
1.18547
1.64467
2.50764
5.43086
10.7496
10.5139
10.0446
9.89546
9.81282
9.62438
9.20516
8.35343
6.69859
1
1.00001
1.00002
1.00007
1.00014
1.00039
1.0008
1.00228
1.00461
1.01333
1.02634
1.0817
1.15689
1.53221
2.23262
4.71069
10.1532
10.1511
9.89633
9.64356
9.49183
9.22358
8.70463
7.8247
6.47503
1
1.00001
1.00002
1.00006
1.00011
1.00032
1.00066
1.00186
1.00369
1.01105
1.02019
1.07027
1.11985
1.4548
1.97824
4.10878
8.95483
9.82122
9.68451
9.40322
9.18182
8.864
8.33265
7.52198
6.43809
1
1.00001
1.00002
1.00005
1.00009
1.00026
1.00054
1.00152
1.00303
1.00905
1.01653
1.05754
1.09627
1.37265
1.76431
3.51516
7.531
9.59092
9.49398
9.23059
8.92383
8.56917
8.05919
7.33525
6.42599
1
1.00001
1.00001
1.00004
1.00008
1.00022
1.00044
1.00123
1.00249
1.00721
1.01377
1.04498
1.07756
1.29025
1.58734
2.92156
6.01039
9.41162
9.35625
9.1117
8.72235
8.33318
7.84948
7.20409
6.42183
1
1
1.00001
1.00003
1.00006
1.00017
1.00035
1.00097
1.00198
1.0056
1.01111
1.03353
1.06184
1.21054
1.42286
2.35546
4.42186
9.01152
9.20543
9.01014
8.5884
8.15008
7.68017
7.10019
6.416
1
1
1.00001
1.00002
1.00005
1.00013
1.00027
1.00075
1.00153
1.00432
1.00862
1.02564
1.04753
1.16351
1.29897
2.08705
3.54553
7.91229
8.9351
8.80522
8.46712
8.00062
7.53829
7.01188
6.40431
1
1
1.00001
1.00002
1.00004
1.0001
1.0002
1.00057
1.00115
1.00326
1.00645
1.01943
1.03526
1.12419
1.21991
1.81351
2.85532
6.26987
8.66512
8.60871
8.37148
7.89243
7.43064
6.94101
6.39135
1
1
1
1.00001
1.00003
1.00006
1.00017
1.00035
1.00097
1.00196
1.00564
1.0107
1.03474
1.05993
1.21861
1.42976
2.38047
4.43117
8.24583
8.46645
8.2907
7.86831
7.36102
6.88358
6.38338
1
1
1
1.00001
1.00002
1.00005
1.00013
1.00026
1.00072
1.00145
1.00412
1.00812
1.02468
1.04462
1.15716
1.28335
2.02461
3.35767
7.23954
8.25232
8.14027
7.82505
7.31777
6.84026
6.37212
1
1
1
1.00001
1.00001
1.00004
1.00007
1.00021
1.00042
1.00119
1.0023
1.00713
1.01241
1.04505
1.07376
1.28271
1.55716
2.80094
5.45896
7.93714
7.92512
7.74508
7.32451
6.83116
6.37257
1
1
1
1
1.00001
1.00002
1.00006
1.00013
1.00037
1.00075
1.00212
1.00427
1.01228
1.02432
1.07308
1.14678
1.45211
2.04145
3.81322
7.28155
7.76506
7.64717
7.3232
6.83808
6.37854
1
1
1
1
1.00001
1.00002
1.00004
1.00011
1.00022
1.0006
1.00121
1.00344
1.00671
1.02064
1.03657
1.12981
1.22778
1.83706
2.84963
5.9465
7.53405
7.49499
7.30198
6.87101
6.39769
1
1
1
1
1
1.00001
1.00003
1.00008
1.00015
1.00043
1.00087
1.00243
1.00492
1.01397
1.02766
1.08289
1.16393
1.51485
2.17106
4.11877
7.05701
7.3616
7.24492
6.93425
6.44227
1
1
1
1
1
1.00001
1.00002
1.00005
1.0001
1.00029
1.00059
1.00163
1.00329
1.00928
1.01843
1.05478
1.10588
1.3351
1.74329
3.08272
5.97441
7.15286
7.11659
6.9277
6.52438
1
1
1
1
1
1.00001
1.00001
1.00003
1.00008
1.00016
1.00045
1.00092
1.00256
1.00515
1.01469
1.02878
1.0878
1.16968
1.54285
2.22657
4.24257
6.71296
6.97632
6.88031
6.61434
1
1
1
1
1
1
1.00001
1.00002
1.00005
1.00011
1.0003
1.00061
1.00168
1.00339
1.0095
1.01894
1.05517
1.10973
1.33211
1.74066
3.01237
5.71261
6.7767
6.75761
6.61016
1
1
1
1
1
1
1.00001
1.00001
1.00003
1.00007
1.00019
1.00039
1.00106
1.00215
1.00598
1.01191
1.03484
1.06527
1.21111
1.42366
2.27463
3.99628
6.32529
6.65024
6.57344
1
1
1
1
1
1
1
1.00001
1.00002
1.00005
1.0001
1.00028
1.00057
1.00159
1.0032
1.00898
1.01794
1.05171
1.1054
1.30738
1.69354
2.83651
5.2894
6.43041
6.45733
1
1
1
1
1
1
1
1.00001
1.00001
1.00003
1.00006
1.00018
1.00036
1.00097
1.00198
1.00545
1.01086
1.03151
1.05883
1.18956
1.36976
2.11359
3.56188
5.91376
6.34236
1
1
1
1
1
1
1
1
1.00001
1.00002
1.00004
1.00011
1.00022
1.00059
1.00119
1.00329
1.00652
1.01902
1.03483
1.11605
1.20589
1.70014
2.49948
4.78135
6.08032
1
1
1
1
1
1
1
1
1
1.00001
1.00003
1.00005
1.00015
1.0003
1.00083
1.00168
1.00463
1.00926
1.02643
1.0509
1.15466
1.31596
1.89376
3.00282
5.48277
1
1
1
1
1
1
1
1
1
1.00001
1.00001
1.00004
1.00008
1.00021
1.00043
1.00119
1.0024
1.00663
1.01321
1.03818
1.0728
1.22588
1.46598
2.31873
4.08382
1
1
1
1
1
1
1
1
1
1
1.00001
1.00002
1.00005
1.00013
1.00026
1.0007
1.00142
1.00388
1.0078
1.0218
1.04259
1.12735
1.24892
1.74463
2.64411
1
1
1
1
1
1
1
1
1
1
1
1.00001
1.00003
1.00007
1.00015
1.0004
1.00082
1.00223
1.0045
1.01243
1.02457
1.0714
1.13945
1.41675
1.90059
1
1
1
1
1
1
1
1
1
1
1
1.00001
1.00002
1.00004
1.0001
1.0002
1.00054
1.00108
1.00296
1.00584
1.01691
1.03085
1.10069
1.17861
1.58822
1
1
1
1
1
1
1
1
1
1
1
1
1.00001
1.00002
1.00006
1.00012
1.00031
1.00063
1.00171
1.00346
1.00946
1.0191
1.05277
1.1097
1.30167
1
1
1
1
1
1
1
1
1
1
1
1
1
1.00001
1.00003
1.00007
1.00015
1.0004
1.00081
1.00219
1.0044
1.01211
1.02384
1.06937
1.13309
1
1
1
1
1
1
1
1
1
1
1
1
1
1.00001
1.00002
1.00004
1.00008
1.00022
1.00046
1.00123
1.00248
1.00672
1.01352
1.03718
1.0762
1
1
1
1
1
1
1
1
1
1
1
1
1
1
1.00001
1.00002
1.00005
1.00012
1.00025
1.00066
1.00134
1.0036
1.00725
1.01991
1.03924
1
1
1
1
1
1
1
1
1
1
1
1
1
1
1.00001
1.00001
1.00003
1.00006
1.00015
1.0003
1.00081
1.00164
1.00442
1.00884
1.02441
1
1
1
1
1
1
1
1
1
1
1
1
1
1
1
1.00001
1.00002
1.00003
1.00008
1.00017
1.00044
1.00089
1.00238
1.0048
1.01302
1
1
1
1
1
1
1
1
1
1
1
1
1
1
1
1
1.00001
1.00002
1.00004
1.00009
1.00023
1.00047
1.00126
1.00254
1.00685
1
1
1
1
1
1
1
1
1
1
1
1
1
1
1
1
1
1.00001
1.00002
1.00005
1.0001
1.00028
1.00056
1.00151
1.00303
1
1
1
1
1
1
1
1
1
1
1
1
1
1
1
1
1
1
1.00001
1.00003
1.00005
1.00014
1.00029
1.00077
1.00155
1
1
1
1
1
1
1
1
1
1
1
1
1
1
1
1
1
1
1.00001
1.00001
1.00003
1.00007
1.00015
1.00039
1.00079
1
1
1
1
1
1
1
1
1
1
1
1
1
1
1
1
1
1
1
1.00001
1.00002
1.00003
1.00009
1.00017
1.00046
1
1
1
1
1
1
1
1
1
1
1
1
1
1
1
1
1
1
1
1
1.00001
1.00002
1.00004
1.00011
1.00022
1
1
1
1
1
1
1
1
1
1
1
1
1
1
1
1
1
1
1
1
1.00001
1.00001
1.00003
1.00008
1.00016
3.05412
1.53803
1.03015
0.924124
0.949571
1.02785
1.1929
1.32581
1.368
1.36638
1.36088
1.35881
1.36014
1.36415
1.3725
1.37921
1.38078
1.38051
1.37955
1.37741
1.37405
1.37113
1.36848
1.36556
1.36213
1.35826
1.3541
1.34977
1.3453
1.34069
1.33593
1.33102
1.32598
1.32086
1.31567
1.31066
1.30585
1.30399
1.30461
1.30727
1.31508
1.33527
1.38367
1.49723
1.76399
2.40174
3.76312
4.51252
4.26026
4.3825
4.55859
4.68462
4.74716
4.7737
4.77304
4.76385
4.73675
4.68228
4.622
4.56012
4.49791
4.43521
4.37142
4.30678
4.24172
4.17672
4.11187
4.04724
3.98274
3.9185
3.85462
3.79127
3.72854
3.66651
3.60529
3.54493
3.48558
3.42719
3.36982
3.3133
3.25786
3.20332
3.1497
3.09682
3.04484
2.99365
2.94345
2.89421
2.84606
2.79871
2.75236
2.70681
2.66234
2.61866
2.5762
2.53466
2.4949
2.45734
2.42547
2.40259
3.71786
2.29857
1.69694
1.44756
1.33347
1.26327
1.24706
1.25463
1.27597
1.31996
1.36435
1.38297
1.38257
1.38085
1.37717
1.37616
1.37639
1.37703
1.37779
1.37762
1.37689
1.37513
1.37148
1.36695
1.36263
1.35858
1.35459
1.35046
1.34609
1.34146
1.33662
1.33161
1.32649
1.32131
1.31604
1.311
1.30588
1.30333
1.30384
1.30611
1.31273
1.32993
1.37141
1.47077
1.70686
2.27198
3.60073
4.73789
4.6343
4.48529
4.51044
4.57312
4.64649
4.69569
4.7144
4.71214
4.70114
4.67264
4.6151
4.54844
4.48424
4.42169
4.35917
4.29604
4.23242
4.16856
4.10466
4.04075
3.97689
3.91316
3.84979
3.78681
3.72443
3.66263
3.60166
3.54146
3.48232
3.42404
3.36686
3.31038
3.25529
3.20104
3.14773
3.09508
3.04338
2.99243
2.94249
2.89322
2.84496
2.79754
2.75123
2.70575
2.66132
2.61769
2.57517
2.53355
2.49363
2.45539
2.42368
2.39746
4.56221
3.23944
2.41546
1.89705
1.56654
1.36144
1.2429
1.22735
1.23444
1.2551
1.29825
1.33978
1.36602
1.3783
1.37865
1.37814
1.37681
1.37466
1.37366
1.37283
1.37177
1.3703
1.36805
1.36507
1.36151
1.35759
1.35343
1.34906
1.34455
1.33993
1.3352
1.33037
1.32544
1.32045
1.31533
1.31049
1.30552
1.30382
1.30446
1.30704
1.31425
1.33233
1.37281
1.46438
1.66117
2.08333
2.9531
4.61735
5.02198
4.96853
4.83911
4.74267
4.68974
4.67098
4.65838
4.64517
4.63369
4.61535
4.5795
4.52762
4.46945
4.40931
4.34792
4.28544
4.22233
4.15891
4.09552
4.03212
3.96901
3.90603
3.84344
3.78096
3.71902
3.65748
3.59688
3.53693
3.4783
3.42047
3.36383
3.30805
3.25302
3.19855
3.1452
3.09253
3.04098
2.99006
2.94024
2.89105
2.84301
2.79567
2.74951
2.70405
2.65973
2.61607
2.57361
2.53188
2.49184
2.45316
2.42002
2.39307
5.02984
3.83177
2.95072
2.3398
1.93199
1.65782
1.48567
1.37747
1.31436
1.29573
1.29872
1.30906
1.33124
1.35821
1.37657
1.38563
1.38542
1.38434
1.38176
1.3774
1.37433
1.37204
1.37004
1.36773
1.36491
1.36116
1.35689
1.3522
1.34732
1.34238
1.33742
1.33241
1.32734
1.32221
1.31706
1.31226
1.30813
1.30833
1.3097
1.31382
1.32596
1.35195
1.41507
1.54205
1.80861
2.33837
2.90159
3.61656
4.30698
4.77107
4.85885
4.83496
4.7778
4.69378
4.63683
4.60513
4.57432
4.54598
4.51486
4.47826
4.43513
4.3843
4.32823
4.26885
4.20768
4.14535
4.08262
4.01972
3.95737
3.89517
3.83347
3.77174
3.71049
3.64953
3.58956
3.53022
3.47197
3.41438
3.35803
3.30233
3.24772
3.1936
3.14068
3.08832
3.03716
2.98651
2.93705
2.88809
2.84032
2.79308
2.74706
2.70159
2.65737
2.61367
2.57128
2.52945
2.48929
2.45025
2.41577
2.38844
5.30885
4.26286
3.41465
2.77359
2.30731
1.96851
1.7231
1.54719
1.42418
1.3456
1.30329
1.3002
1.30323
1.31213
1.33065
1.34993
1.36357
1.37254
1.37341
1.37293
1.3715
1.36849
1.36483
1.36152
1.3584
1.35527
1.35183
1.34804
1.34383
1.33936
1.33474
1.33
1.32518
1.3203
1.31564
1.31143
1.3106
1.31143
1.31454
1.32424
1.34566
1.39777
1.50428
1.72826
2.17297
2.63564
2.90809
3.17599
3.49787
3.8649
4.27747
4.56581
4.72013
4.72153
4.70474
4.66059
4.58512
4.52792
4.47847
4.43255
4.3863
4.34089
4.29354
4.24223
4.18743
4.129
4.06792
4.00555
3.94318
3.88087
3.81941
3.75839
3.69865
3.63924
3.58076
3.52249
3.46511
3.40801
3.35197
3.29638
3.24199
3.18807
3.13538
3.08319
3.03227
2.98182
2.93263
2.88388
2.83638
2.7893
2.7435
2.69813
2.65408
2.61045
2.56819
2.52633
2.4862
2.44698
2.4116
2.38385
5.49997
4.59025
3.80213
3.1647
2.66815
2.28744
1.998
1.77932
1.61565
1.49657
1.41071
1.354
1.32415
1.31907
1.32112
1.32744
1.34078
1.35653
1.3681
1.37572
1.37567
1.37502
1.37323
1.36947
1.36435
1.35947
1.35519
1.35122
1.34721
1.34286
1.33808
1.33305
1.32785
1.32294
1.31845
1.31683
1.31744
1.31996
1.32873
1.34705
1.39517
1.49108
1.69968
2.11335
2.59391
2.84712
2.9466
3.02922
3.14232
3.28672
3.476
3.74712
4.09145
4.38891
4.58712
4.64284
4.62905
4.58908
4.50526
4.42534
4.35855
4.29934
4.24776
4.20232
4.15673
4.10697
4.05278
3.99342
3.9306
3.86677
3.80425
3.74292
3.68347
3.62491
3.56767
3.51079
3.45477
3.39881
3.3437
3.28877
3.2349
3.18134
3.12898
3.07703
3.02636
2.97612
2.92719
2.87866
2.83143
2.78456
2.739
2.69378
2.64993
2.60638
2.56429
2.52245
2.48235
2.44318
2.40708
2.37883
5.63275
4.84088
4.12066
3.50603
3.00153
2.59567
2.27374
2.01915
1.81878
1.66223
1.5404
1.45102
1.38429
1.34352
1.32169
1.3199
1.32155
1.32643
1.33662
1.34816
1.35644
1.36188
1.36175
1.36099
1.35911
1.35531
1.35062
1.34601
1.34173
1.33767
1.33361
1.32943
1.3251
1.32104
1.31877
1.31924
1.3213
1.32949
1.34471
1.39066
1.47516
1.67213
2.05559
2.57622
2.8565
2.94888
2.97089
2.98567
2.99763
3.02168
3.07702
3.18315
3.33776
3.58713
3.92151
4.24907
4.48075
4.56724
4.55221
4.50598
4.40906
4.30736
4.22723
4.16201
4.10634
4.06083
4.01815
3.97343
3.91862
3.85838
3.79686
3.73421
3.6726
3.61228
3.55415
3.49706
3.44142
3.38622
3.33207
3.2781
3.22512
3.17234
3.12065
3.06922
3.01899
2.96907
2.92044
2.87215
2.82518
2.77851
2.73326
2.68823
2.64466
2.60129
2.55943
2.51778
2.47781
2.43876
2.40248
2.3736
5.7258
5.03025
4.37476
3.79244
3.29481
2.87937
2.53787
2.25906
2.03268
1.84975
1.70263
1.58577
1.49419
1.42558
1.37467
1.34405
1.32689
1.32479
1.32607
1.32996
1.33818
1.34807
1.35557
1.36086
1.36068
1.35972
1.3573
1.35237
1.34651
1.34092
1.33577
1.33126
1.32715
1.3252
1.32566
1.32761
1.33491
1.34943
1.39111
1.47115
1.65552
2.01844
2.56749
2.87867
2.98112
2.99686
2.99214
2.97386
2.93525
2.89947
2.89871
2.91189
2.95606
3.0526
3.20184
3.43886
3.7674
4.11525
4.37266
4.48424
4.46741
4.41493
4.30541
4.1831
4.08092
4.00229
3.94764
3.90627
3.8699
3.82827
3.77934
3.72429
3.66627
3.60645
3.5469
3.4877
3.43036
3.37411
3.31956
3.26574
3.21328
3.16126
3.11039
3.05976
3.01021
2.96087
2.9127
2.86477
2.81811
2.77173
2.72668
2.68192
2.63855
2.59543
2.55377
2.51235
2.47252
2.43355
2.39737
2.36797
5.79254
5.17521
4.5794
4.03363
3.55213
3.13748
2.78641
2.49194
2.24657
2.04285
1.87427
1.7353
1.62161
1.52967
1.45692
1.40157
1.36109
1.33754
1.3244
1.32288
1.32381
1.32663
1.33264
1.33956
1.34451
1.3467
1.34648
1.34558
1.34342
1.33906
1.33397
1.32917
1.32568
1.32597
1.32778
1.33329
1.34898
1.38283
1.46422
1.6281
1.97191
2.54736
2.90271
3.01943
3.03786
3.03167
3.0066
2.95495
2.89653
2.84347
2.80736
2.78296
2.78528
2.79897
2.83934
2.92869
3.07235
3.2953
3.61373
3.97501
4.2568
4.39057
4.3732
4.3186
4.20455
4.07138
3.95879
3.86796
3.80762
3.76227
3.72463
3.68551
3.64133
3.59028
3.53546
3.47859
3.42152
3.36424
3.30838
3.25357
3.20056
3.14839
3.09773
3.04759
2.99871
2.9501
2.90266
2.85541
2.80935
2.76349
2.7189
2.67453
2.63151
2.58871
2.54732
2.50618
2.46658
2.42773
2.39172
2.36194
5.84434
5.28809
4.74379
4.23439
3.77386
3.36724
3.01444
2.71158
2.45365
2.23483
2.04991
1.89391
1.76294
1.65345
1.56301
1.48914
1.43087
1.38603
1.35296
1.33368
1.32262
1.32093
1.32163
1.3238
1.3287
1.33453
1.33988
1.34102
1.34073
1.33972
1.33752
1.33308
1.33279
1.33404
1.33824
1.35316
1.38312
1.46029
1.61315
1.9362
2.53681
2.92456
3.06104
3.08366
3.07736
3.05123
2.99782
2.93448
2.87311
2.81624
2.76566
2.72348
2.69417
2.67291
2.67543
2.68832
2.72533
2.80633
2.94289
3.15204
3.45868
3.82565
4.13564
4.28357
4.26534
4.20948
4.0937
3.9533
3.83676
3.74629
3.67927
3.62804
3.58632
3.54681
3.50458
3.45745
3.40638
3.35277
3.29869
3.24421
3.19057
3.13749
3.08605
3.03543
2.98644
2.93805
2.89106
2.84442
2.79904
2.75386
2.70992
2.66612
2.62361
2.58124
2.54022
2.49938
2.46004
2.42136
2.38552
2.35539
5.88157
5.37703
4.87797
4.40336
3.96586
3.57156
3.2224
2.91662
2.65127
2.42199
2.22478
2.05537
1.91032
1.78629
1.68086
1.59162
1.51723
1.45595
1.40745
1.36988
1.34247
1.3263
1.31722
1.31544
1.31593
1.3175
1.32103
1.32531
1.32872
1.33107
1.33164
1.33221
1.33412
1.33874
1.35264
1.38126
1.45344
1.59723
1.90212
2.50459
2.95033
3.10258
3.13161
3.12577
3.10067
3.04871
2.98183
2.91612
2.85483
2.79755
2.74437
2.69517
2.65126
2.61329
2.58636
2.56567
2.56742
2.57825
2.61041
2.68345
2.81284
3.00655
3.29821
3.66523
3.97788
4.15852
4.14089
4.08782
3.98279
3.84114
3.72151
3.62807
3.55574
3.49964
3.45359
3.41188
3.37052
3.32614
3.27891
3.22891
3.17805
3.12634
3.07523
3.02433
2.97486
2.92605
2.87889
2.8323
2.78724
2.74253
2.69921
2.65606
2.61421
2.57242
2.53196
2.49154
2.45263
2.41422
2.37864
2.34824
5.91112
5.44665
4.98856
4.54711
4.13335
3.75385
3.41183
3.10712
2.83817
2.60213
2.39585
2.21602
2.05956
1.92365
1.80587
1.70411
1.61675
1.54229
1.47991
1.42837
1.38763
1.35607
1.33322
1.31942
1.31159
1.31011
1.31056
1.31204
1.31535
1.32062
1.32509
1.32957
1.3366
1.35224
1.38218
1.45273
1.59071
1.88548
2.47116
2.97111
3.1484
3.18418
3.17876
3.15431
3.10254
3.0333
2.96466
2.89989
2.83952
2.78256
2.72885
2.67776
2.62976
2.58463
2.54377
2.50707
2.48051
2.45947
2.45984
2.468
2.49605
2.56031
2.6814
2.85923
3.12821
3.48663
3.81527
4.02657
4.01002
3.96174
3.87137
3.73192
3.60907
3.51267
3.43737
3.3767
3.32652
3.2826
3.24098
3.19812
3.15405
3.10788
3.06076
3.0123
2.96408
2.91561
2.86833
2.8214
2.77607
2.73123
2.68799
2.64507
2.60363
2.56229
2.52239
2.48247
2.44406
2.40602
2.3708
2.34032
5.94208
5.5115
5.086
4.67251
4.28104
3.91712
3.58416
3.28314
3.01348
2.7734
2.5607
2.37282
2.20724
2.06155
1.93354
1.82134
1.72321
1.63784
1.56405
1.50094
1.44781
1.40394
1.36904
1.34233
1.3232
1.31155
1.30487
1.30492
1.30581
1.30823
1.31375
1.32444
1.34047
1.37227
1.4396
1.57421
1.85446
2.4167
2.97956
3.18869
3.23291
3.22894
3.20692
3.1585
3.08837
3.01643
2.94868
2.88504
2.82548
2.76888
2.71518
2.6636
2.61425
2.56662
2.52132
2.47833
2.43883
2.40332
2.37601
2.35499
2.35188
2.35845
2.38272
2.43818
2.54666
2.70852
2.95328
3.29413
3.64239
3.88656
3.87182
3.83029
3.75516
3.62206
3.4959
3.39837
3.32179
3.25802
3.20522
3.15885
3.11674
3.07528
3.03383
2.99069
2.94719
2.90187
2.85656
2.81066
2.76569
2.72083
2.67738
2.63431
2.59279
2.55152
2.51182
2.47217
2.4342
2.3965
2.36172
2.33131
5.97313
5.56908
5.17136
4.78442
4.41338
4.06447
3.74129
3.44532
3.17679
2.93485
2.71786
2.52405
2.35126
2.19771
2.06122
1.94037
1.83326
1.73888
1.65571
1.58313
1.52004
1.46604
1.42046
1.38285
1.35308
1.33026
1.31477
1.30513
1.30551
1.30799
1.31379
1.32904
1.35781
1.42171
1.54729
1.8088
2.32943
2.95789
3.21287
3.27002
3.26771
3.25025
3.21023
3.14016
3.06638
2.99601
2.93065
2.86909
2.81099
2.75521
2.70182
2.65008
2.6002
2.55164
2.50483
2.45929
2.41583
2.37442
2.33592
2.30145
2.27308
2.25213
2.24508
2.25025
2.27024
2.31687
2.41127
2.55741
2.77645
3.09733
3.45187
3.73396
3.72453
3.69483
3.63519
3.51081
3.38435
3.28683
3.20968
3.14576
3.09131
3.0425
2.99959
2.95888
2.91912
2.87845
2.83748
2.79512
2.75264
2.70936
2.66679
2.62406
2.58254
2.54117
2.50134
2.46155
2.42375
2.38593
2.35164
2.32122
6.01914
5.62922
5.25312
4.88643
4.53377
4.19879
3.88515
3.59495
3.32871
3.0862
2.86659
2.66849
2.49025
2.3304
2.18708
2.05906
1.94447
1.84259
1.75155
1.67119
1.59978
1.53747
1.48297
1.43628
1.39707
1.36404
1.3402
1.31935
1.31859
1.32107
1.33206
1.35272
1.41054
1.51717
1.75706
2.2239
2.89434
3.20876
3.29359
3.29344
3.28148
3.24933
3.18341
3.10636
3.03524
2.96979
2.90888
2.85062
2.79466
2.74011
2.68734
2.63576
2.58582
2.53699
2.48963
2.44324
2.39844
2.35462
2.31279
2.27267
2.23512
2.20152
2.17224
2.15132
2.14089
2.14458
2.16037
2.19733
2.27873
2.40938
2.60512
2.8999
3.25401
3.56193
3.57893
3.55787
3.50511
3.39595
3.27608
3.17921
3.10293
3.03934
2.98335
2.93336
2.8894
2.84867
2.80978
2.7707
2.73185
2.69205
2.6522
2.61146
2.57126
2.53063
2.49112
2.4513
2.41355
2.37532
2.34133
2.31055
6.08205
5.69308
5.33051
4.98134
4.64399
4.32153
4.01717
3.73277
3.46982
3.22797
3.00697
2.80598
2.6238
2.45894
2.31026
2.1763
2.05554
1.94737
1.84971
1.7628
1.68444
1.61516
1.55329
1.49901
1.45195
1.41075
1.3793
1.35061
1.35103
1.35653
1.37059
1.41957
1.50578
1.72163
2.13458
2.79385
3.18735
3.30097
3.31258
3.30133
3.27005
3.20508
3.1296
3.06023
2.99764
2.939
2.88305
2.8282
2.77457
2.72162
2.66992
2.61906
2.56962
2.52102
2.47372
2.4272
2.38192
2.33739
2.29434
2.25213
2.21189
2.17308
2.13682
2.10407
2.07466
2.05392
2.04053
2.04301
2.05445
2.08383
2.15033
2.26643
2.44391
2.7075
3.05821
3.37837
3.43481
3.41763
3.37229
3.27829
3.17162
3.07619
3.00059
2.93615
2.88057
2.83053
2.78558
2.74419
2.70557
2.66754
2.63045
2.59264
2.55522
2.5168
2.47897
2.4402
2.40315
2.36496
2.33126
2.30004
6.16215
5.76273
5.40529
5.06818
4.74419
4.4337
4.13811
3.85994
3.60048
3.3604
3.13948
2.93649
2.75188
2.5832
2.43025
2.29164
2.16562
2.05225
1.94893
1.85636
1.77219
1.69681
1.62886
1.56821
1.51434
1.46763
1.42818
1.40257
1.40455
1.41677
1.4465
1.53452
1.70458
2.07648
2.7275
3.17198
3.31682
3.33068
3.31902
3.28561
3.21635
3.13972
3.07238
3.01242
2.95713
2.90377
2.85168
2.79983
2.74865
2.69774
2.64777
2.59836
2.55005
2.5023
2.45563
2.40946
2.36434
2.31979
2.27643
2.23375
2.19258
2.15222
2.11381
2.07662
2.04206
2.01014
1.98164
1.96045
1.94458
1.94562
1.95314
1.97629
2.02905
2.13019
2.29101
2.5223
2.86642
3.18586
3.2916
3.27659
3.23871
3.16299
3.07066
2.97751
2.9007
2.83669
2.78267
2.73259
2.687
2.64478
2.60625
2.56901
2.53326
2.49702
2.46181
2.42526
2.39005
2.35331
2.32035
2.28942
6.27507
5.84906
5.48259
5.15138
4.83672
4.53657
4.2503
3.97814
3.72286
3.48448
3.26473
3.06102
2.87449
2.70363
2.54699
2.40486
2.2745
2.15653
2.04867
1.95083
1.86193
1.78101
1.70798
1.64191
1.58251
1.53236
1.48758
1.4784
1.48496
1.50873
1.58226
1.7328
2.06406
2.70885
3.18167
3.35638
3.37089
3.35941
3.31934
3.23543
3.1509
3.07958
3.01973
2.96481
2.91315
2.8628
2.81345
2.76426
2.71566
2.66721
2.61953
2.57215
2.52558
2.47928
2.43377
2.3885
2.3441
2.30007
2.25707
2.21463
2.17345
2.13293
2.09394
2.05575
2.01935
1.98406
1.95118
1.92016
1.89285
1.87048
1.85371
1.85098
1.85566
1.87446
1.91563
2.00156
2.14419
2.34715
2.67676
2.9859
3.14537
3.13473
3.10437
3.05436
2.96867
2.87983
2.80322
2.74124
2.688
2.63838
2.59284
2.55028
2.51188
2.47507
2.44036
2.40529
2.3721
2.33757
2.30616
2.27683
6.35759
5.94432
5.56758
5.23392
4.92454
4.63121
4.35271
4.08826
3.83772
3.60208
3.38318
3.18019
2.99232
2.81991
2.6609
2.5154
2.38198
2.2597
2.14808
2.04567
1.9524
1.86693
1.7893
1.71859
1.65651
1.60177
1.57088
1.57454
1.59715
1.64905
1.80407
2.09991
2.72499
3.2365
3.43683
3.4435
3.4295
3.37909
3.2784
3.19011
3.11114
3.04089
2.97805
2.92078
2.86914
2.8194
2.77132
2.72375
2.67707
2.63075
2.58523
2.53993
2.49532
2.45081
2.4069
2.36306
2.31992
2.27696
2.23491
2.19326
2.15272
2.11272
2.07403
2.03592
1.99926
1.96328
1.92885
1.89544
1.86398
1.83405
1.80763
1.78417
1.76727
1.76024
1.76353
1.77752
1.80981
1.88041
2.00254
2.18511
2.48622
2.78395
2.99101
2.99485
2.9793
2.9398
2.86272
2.78329
2.71087
2.6493
2.59625
2.54777
2.50289
2.46046
2.42214
2.38553
2.35173
2.31802
2.28772
2.26032
6.35065
6.08415
5.67681
5.32541
5.01564
4.72456
4.44883
4.18923
3.94498
3.71324
3.49623
3.29402
3.10611
2.93235
2.77177
2.62371
2.48736
2.36194
2.24651
2.14055
2.04314
1.95383
1.87242
1.7983
1.73592
1.68414
1.68558
1.69933
1.75824
1.88185
2.18363
2.7785
3.34656
3.56678
3.56437
3.54192
3.47666
3.36425
3.26103
3.1724
3.09416
3.02327
2.95751
2.89541
2.83744
2.78294
2.73301
2.68437
2.63766
2.5919
2.54734
2.50331
2.46015
2.41718
2.37488
2.33264
2.29105
2.24958
2.20893
2.16853
2.12914
2.09015
2.05228
2.01486
1.97867
1.9429
1.90847
1.87453
1.84197
1.8103
1.78017
1.75159
1.72573
1.70228
1.68514
1.67435
1.6765
1.68615
1.71114
1.7664
1.86845
2.03687
2.29499
2.58912
2.82791
2.86539
2.85259
2.82134
2.75772
2.68879
2.62174
2.55907
2.50721
2.46033
2.4167
2.37469
2.33672
2.30062
2.26913
2.24125
6.2998
6.13652
5.79469
5.42389
5.10226
4.81426
4.54456
4.28742
4.04514
3.81783
3.60373
3.40325
3.21579
3.04155
2.87965
2.72972
2.59096
2.46267
2.34423
2.2348
2.13408
2.04144
1.95706
1.88352
1.82158
1.80876
1.81999
1.8718
1.98658
2.28705
2.87256
3.50137
3.74327
3.73848
3.70677
3.62136
3.4845
3.36102
3.25738
3.1683
3.08958
3.01792
2.94964
2.88429
2.82196
2.76196
2.70566
2.65255
2.60342
2.55587
2.51039
2.46605
2.42309
2.38074
2.3394
2.29834
2.25813
2.21811
2.17896
2.14004
2.10207
2.06439
2.02772
1.99137
1.95608
1.92109
1.88724
1.85366
1.82132
1.78931
1.7586
1.72856
1.69987
1.67265
1.64734
1.62462
1.60681
1.5932
1.59397
1.59994
1.6191
1.65977
1.74603
1.89719
2.10845
2.40002
2.65339
2.73505
2.72654
2.70024
2.65698
2.59367
2.53159
2.47193
2.42163
2.37578
2.33426
2.29289
2.25815
2.22564
6.18659
6.1116
5.90834
5.53178
5.19458
4.90077
4.63272
4.38163
4.14427
3.91937
3.70801
3.50851
3.32189
3.14735
2.98473
2.83325
2.69258
2.56191
2.44074
2.32856
2.225
2.12997
2.04616
1.97408
1.94745
1.95725
2.00223
2.12013
2.40916
2.99435
3.69488
3.96066
3.95382
3.91404
3.80952
3.64909
3.50289
3.37925
3.27409
3.18116
3.09748
3.01976
2.94812
2.88104
2.81574
2.75237
2.69157
2.6331
2.57852
2.52694
2.47886
2.43259
2.38835
2.34524
2.30366
2.2628
2.22316
2.184
2.14593
2.10824
2.07158
2.03523
1.99987
1.96477
1.93066
1.89677
1.86386
1.83114
1.79948
1.76797
1.73761
1.70746
1.67855
1.6501
1.62297
1.59699
1.57256
1.55073
1.53201
1.51782
1.51474
1.51826
1.53262
1.56431
1.6339
1.76263
1.93417
2.21317
2.47194
2.59621
2.60048
2.58791
2.55697
2.49659
2.442
2.38854
2.33936
2.29431
2.25824
2.21991
6.04905
6.032
5.92007
5.66304
5.30585
4.99416
4.72216
4.47324
4.23933
4.01782
3.8081
3.61117
3.42522
3.25083
3.08745
2.9348
2.79232
2.65959
2.53614
2.42167
2.31622
2.22202
2.14031
2.10027
2.10846
2.14883
2.266
2.54626
3.13531
3.91719
4.21216
4.20331
4.15601
4.0329
3.84887
3.68146
3.53991
3.41772
3.30974
3.21137
3.12103
3.03651
2.95786
2.88348
2.81427
2.74925
2.6855
2.62401
2.56516
2.50858
2.45582
2.40617
2.35924
2.31407
2.27102
2.22915
2.18899
2.14971
2.1119
2.07475
2.03887
2.00348
1.9692
1.93527
1.90234
1.86963
1.83785
1.80623
1.77553
1.74494
1.71532
1.68579
1.65733
1.629
1.60183
1.57501
1.54947
1.52474
1.50154
1.48038
1.46148
1.44725
1.43998
1.44222
1.45335
1.47522
1.53204
1.6345
1.78182
2.02589
2.28725
2.44656
2.48321
2.4734
2.44989
2.40493
2.35588
2.3064
2.2649
2.22233
5.67522
5.92779
5.88278
5.73331
5.42523
5.10147
4.81928
4.56704
4.33367
4.11434
3.90647
3.71054
3.52597
3.35185
3.18811
3.03435
2.89044
2.75588
2.63069
2.51471
2.41034
2.3195
2.26605
2.27278
2.3116
2.42468
2.71128
3.30908
4.17353
4.49811
4.48714
4.43097
4.28626
4.07748
3.88935
3.72926
3.59141
3.46819
3.35598
3.25165
3.1546
3.06327
2.97791
2.89728
2.82194
2.75042
2.68385
2.62097
2.55926
2.4998
2.44304
2.38853
2.33771
2.28966
2.24416
2.20026
2.15853
2.1181
2.07956
2.04205
2.00617
1.97105
1.9373
1.90409
1.87202
1.84028
1.80953
1.77897
1.7493
1.71976
1.69107
1.66247
1.63476
1.60713
1.58049
1.55398
1.52854
1.50339
1.47941
1.45604
1.43414
1.41361
1.3952
1.3807
1.37019
1.37155
1.37745
1.39816
1.43417
1.51876
1.65035
1.84482
2.10357
2.29341
2.36434
2.36208
2.34768
2.3185
2.27659
2.23369
4.85396
5.713
5.78371
5.71742
5.54442
5.21846
4.92196
4.66315
4.42937
4.21144
4.00589
3.81049
3.62567
3.45089
3.28612
3.13146
2.98645
2.85091
2.72471
2.61039
2.5105
2.44462
2.45011
2.4878
2.60071
2.89711
3.51315
4.46568
4.81799
4.80397
4.7362
4.56561
4.33154
4.12132
3.94332
3.78924
3.65199
3.52586
3.40884
3.29874
3.19552
3.09798
3.00654
2.92006
2.83898
2.76209
2.69008
2.62145
2.55758
2.49669
2.43724
2.37979
2.32512
2.27296
2.2243
2.17768
2.13366
2.0913
2.05119
2.01246
1.97571
1.94005
1.90608
1.8729
1.84112
1.80988
1.77977
1.75
1.72119
1.69257
1.66481
1.63717
1.61036
1.58363
1.55778
1.532
1.50719
1.48246
1.45876
1.43527
1.41284
1.39088
1.37019
1.35044
1.33276
1.31768
1.30589
1.30465
1.30852
1.31992
1.35247
1.41418
1.52847
1.67984
1.92457
2.13894
2.23715
2.26076
2.25451
2.23952
3.22666
5.19164
5.65681
5.64783
5.55965
5.35404
5.04499
4.76961
4.52769
4.30711
4.10111
3.90636
3.72182
3.54742
3.38291
3.22744
3.08125
2.94537
2.82119
2.71298
2.63534
2.63965
2.67668
2.78773
3.08882
3.70932
4.76918
5.16216
5.14681
5.06636
4.86931
4.60779
4.37575
4.17898
4.0093
3.85722
3.71796
3.5877
3.4656
3.35
3.24123
3.13815
3.04128
2.94944
2.86313
2.78115
2.70409
2.63078
2.56204
2.49644
2.43543
2.37627
2.31924
2.26395
2.21151
2.16167
2.11501
2.07026
2.02806
1.98751
1.94925
1.91238
1.87749
1.84367
1.81152
1.78013
1.75011
1.72061
1.69224
1.6642
1.63714
1.61028
1.5843
1.55845
1.53346
1.50857
1.48456
1.46061
1.43759
1.41461
1.39259
1.37068
1.34974
1.32912
1.30958
1.29078
1.27375
1.25837
1.24667
1.24106
1.24318
1.25351
1.27309
1.32461
1.41177
1.5404
1.75048
1.97729
2.10804
2.18412
2.2349
4.03501
5.33704
5.55671
5.52681
5.4157
5.17606
4.88545
4.62964
4.40278
4.19481
4.00009
3.81606
3.64187
3.47704
3.32175
3.17649
3.04241
2.92635
2.83773
2.84118
2.87859
2.9925
3.30804
3.96291
5.11222
5.53579
5.51826
5.42043
5.19202
4.90547
4.65083
4.43583
4.24947
4.08294
3.92943
3.78644
3.65141
3.52419
3.40342
3.28956
3.18148
3.07971
2.98305
2.89205
2.80547
2.72393
2.64627
2.57319
2.50352
2.43805
2.37558
2.31726
2.2599
2.20515
2.15222
2.1025
2.05521
2.01071
1.96806
1.92794
1.88939
1.85305
1.81801
1.78486
1.75271
1.72217
1.69237
1.66391
1.63598
1.60919
1.58277
1.55735
1.53218
1.50793
1.48385
1.46065
1.43754
1.4153
1.3931
1.37177
1.35042
1.32997
1.30952
1.28999
1.27064
1.25225
1.23447
1.21804
1.20298
1.19121
1.18252
1.18395