/*--------------------------------*- C++ -*----------------------------------*\
| =========                 |                                                 |
| \\      /  F ield         | OpenFOAM: The Open Source CFD Toolbox           |
|  \\    /   O peration     | Version:  2112                                  |
|   \\  /    A nd           | Website:  www.openfoam.com                      |
|    \\/     M anipulation  |                                                 |
\*---------------------------------------------------------------------------*/
FoamFile
{
    version     2.0;
    format      ascii;
    arch        "LSB;label=32;scalar=64";
    class       surfaceScalarField;
    location    "2";
    object      phi;
}
// * * * * * * * * * * * * * * * * * * * * * * * * * * * * * * * * * * * * * //

dimensions      [1 0 -1 0 0 0 0];

oriented        oriented;

internalField   nonuniform List<scalar> 
10325
(
0.00840003
3.1469e-11
0.00840003
2.43966e-10
0.00840003
7.45762e-10
0.00840002
2.26054e-09
0.00840002
5.34183e-09
0.00839999
1.4427e-08
0.00839997
3.22251e-08
0.00839974
8.82938e-08
0.00839979
1.87459e-07
0.00839816
5.79363e-07
0.00839853
1.20348e-06
0.00839003
3.71303e-06
0.00837494
1.30249e-05
0.00833491
3.2387e-05
0.00811065
0.000171549
0.00741862
0.000643308
0.00673154
0.000683532
0.00607353
0.000667541
0.00540969
0.000674766
0.00468808
0.000731614
0.00388524
0.000806239
0.00301505
0.000873212
0.00208338
0.000935778
0.00108055
0.0010026
0.00107215
0.00840003
5.86357e-11
0.00840003
4.58771e-10
0.00840003
1.40573e-09
0.00840002
4.26813e-09
0.00840002
1.00737e-08
0.00839999
2.71784e-08
0.00839998
6.04375e-08
0.00839976
1.67193e-07
0.00839984
3.43861e-07
0.00839822
1.1287e-06
0.00839906
2.17587e-06
0.00839004
7.71939e-06
0.00837751
2.38443e-05
0.00833345
6.83683e-05
0.00812373
0.000330909
0.0074338
0.00128379
0.00673646
0.00137572
0.00608824
0.00132615
0.00543546
0.00133944
0.00470452
0.00147208
0.00388729
0.00162607
0.00300364
0.00175964
0.00205546
0.00188793
0.00104488
0.00201281
0.00210863
0.00840003
8.63769e-11
0.00840003
6.69881e-10
0.00840003
2.0651e-09
0.00840002
6.22002e-09
0.00840002
1.46176e-08
0.00839999
3.90664e-08
0.00839998
8.62203e-08
0.00839977
2.38224e-07
0.00839987
4.70938e-07
0.00839832
1.64181e-06
0.00839946
2.87167e-06
0.00839021
1.18979e-05
0.00838174
3.16061e-05
0.00833559
0.000105004
0.00815645
0.0004655
0.0074782
0.00191012
0.00675741
0.00208766
0.00613649
0.00196161
0.00550013
0.00199113
0.00476334
0.00221706
0.00393687
0.00245212
0.00304226
0.0026562
0.0020803
0.00285391
0.00105437
0.00303849
0.00315428
0.00840003
1.21921e-10
0.00840003
9.39444e-10
0.00840003
2.89686e-09
0.00840002
8.68851e-09
0.00840002
2.04383e-08
0.00839999
5.42642e-08
0.00839997
1.20049e-07
0.00839975
3.25768e-07
0.00839976
6.55805e-07
0.00839823
2.18537e-06
0.00839893
3.87097e-06
0.00839043
1.55655e-05
0.00838098
4.06023e-05
0.00834114
0.000135542
0.00818853
0.000576917
0.00751697
0.00252643
0.00682664
0.00277261
0.00623125
0.00257753
0.00559432
0.00263928
0.00486476
0.00294806
0.00403964
0.00327562
0.00313629
0.00356204
0.0021534
0.00384062
0.00109675
0.00409404
0.00424204
0.00840003
1.61167e-10
0.00840003
1.24758e-09
0.00840003
3.83539e-09
0.00840002
1.15537e-08
0.00840002
2.72774e-08
0.00839998
7.26445e-08
0.00839995
1.62431e-07
0.00839971
4.31639e-07
0.00839961
9.26638e-07
0.00839819
2.70891e-06
0.00839789
5.52799e-06
0.00839031
1.86352e-05
0.00838168
4.85453e-05
0.00833191
0.00017647
0.0082265
0.000646527
0.00756603
0.00313299
0.00707245
0.0032635
0.00640691
0.0032543
0.0057033
0.00335523
0.0049997
0.00365505
0.00417799
0.00409396
0.00327373
0.00446825
0.00227431
0.00484466
0.00117315
0.00519664
0.00540675
0.00840003
1.97523e-10
0.00840003
1.52891e-09
0.00840003
4.71699e-09
0.00840002
1.41805e-08
0.00840002
3.35454e-08
0.00839998
8.89599e-08
0.00839996
1.99241e-07
0.00839974
5.25251e-07
0.00839968
1.13141e-06
0.00839827
3.25683e-06
0.00839842
6.63387e-06
0.00839057
2.20253e-05
0.0083843
5.54631e-05
0.00834595
0.000204305
0.00826323
0.000701313
0.00770623
0.00363168
0.00712958
0.00384335
0.00655321
0.00383686
0.00586489
0.00404857
0.00514965
0.00437469
0.00436469
0.00487758
0.00346376
0.00537034
0.00244294
0.00586915
0.00128079
0.00635921
0.0066789
0.00840003
2.41553e-10
0.00840003
1.87137e-09
0.00840003
5.77417e-09
0.00840002
1.73645e-08
0.00840001
4.11785e-08
0.00839998
1.09034e-07
0.00839994
2.45266e-07
0.00839971
6.37779e-07
0.00839955
1.41108e-06
0.00839821
3.80412e-06
0.00839772
8.27044e-06
0.00839107
2.44253e-05
0.00838447
6.30789e-05
0.00835304
0.000225071
0.00830279
0.000728129
0.00784709
0.00402575
0.00727033
0.00442505
0.00669902
0.00441414
0.00606002
0.00469019
0.00536786
0.0050705
0.0046017
0.00564231
0.0037174
0.00625604
0.00268157
0.0069069
0.00145796
0.00758017
0.00812711
0.00840003
2.92013e-10
0.00840003
2.26484e-09
0.00840003
6.95614e-09
0.00840002
2.0961e-08
0.00840001
4.97889e-08
0.00839997
1.32029e-07
0.00839993
2.98843e-07
0.00839969
7.65923e-07
0.00839945
1.76271e-06
0.00839817
4.33089e-06
0.00839716
1.0351e-05
0.00839074
2.67005e-05
0.00838522
7.03342e-05
0.00835619
0.000241784
0.00831265
0.000753871
0.00796038
0.00431356
0.00740337
0.00498782
0.00685717
0.00496489
0.00627551
0.00527221
0.0056322
0.00571573
0.00490606
0.00636567
0.00404704
0.00711778
0.003016
0.00794343
0.00172849
0.00886965
0.00984597
0.00840003
2.67824e-10
0.00840003
2.55223e-09
0.00840003
7.67981e-09
0.00840002
2.34407e-08
0.00840002
5.51715e-08
0.00839999
1.47727e-07
0.00839997
3.28867e-07
0.00839975
8.69696e-07
0.00839981
1.8559e-06
0.00839822
5.10515e-06
0.00840049
9.86245e-06
0.0083886
3.35715e-05
0.00839624
6.612e-05
0.00834784
0.000277187
0.00829016
0.000793874
0.00805767
0.00447963
0.00751384
0.00553985
0.00700146
0.00548187
0.00648502
0.0057883
0.0059201
0.00628261
0.00527259
0.00700922
0.00449474
0.00789487
0.00356217
0.00887973
0.00222892
0.0102045
0.0120669
0.00840003
9.90441e-11
0.00840003
3.52261e-09
0.00840003
5.05867e-09
0.00840002
3.03083e-08
0.00840004
3.713e-08
0.00839999
1.91977e-07
0.00840012
2.08445e-07
0.00839969
1.20431e-06
0.00840075
9.43956e-07
0.00839725
7.89533e-06
0.00840504
3.77991e-06
0.00837979
5.43226e-05
0.00841847
3.07571e-05
0.00828817
0.00039482
0.00836092
0.000709557
0.00830384
0.0044637
0.00774875
0.00610616
0.00723467
0.00600225
0.00677891
0.00624553
0.00625896
0.0068062
0.00573229
0.00753507
0.00515726
0.00846844
0.00433076
0.00970535
0.00305688
0.0114772
0.0151161
0.00840003
4.54808e-10
0.00840003
7.40551e-10
0.00840003
6.87378e-09
0.00840005
8.07429e-09
0.00840004
4.77242e-08
0.00840019
4.99552e-08
0.00840006
2.99139e-07
0.00840109
2.64506e-07
0.00839974
2.00314e-06
0.00840697
1.56074e-06
0.00839447
1.4258e-05
0.00844056
1.15309e-05
0.00835238
0.000109704
0.00859039
0.000155212
0.00837431
0.000906839
0.0089835
0.00377425
0.00835391
0.00674763
0.00768459
0.00667876
0.00720178
0.0067326
0.00679637
0.00721399
0.00639557
0.00793793
0.00597028
0.00889617
0.00561236
0.0100666
0.0057021
0.0113907
0.0120995
0.00871321
0.00840003
2.65765e-10
0.00840003
1.54019e-09
0.00840003
5.11957e-09
0.00840002
1.46245e-08
0.00840003
3.63223e-08
0.00839998
9.24584e-08
0.00840006
2.21099e-07
0.00839973
5.36491e-07
0.00840044
1.34721e-06
0.00839835
3.21771e-06
0.00840472
8.48231e-06
0.0083917
2.15454e-05
0.00844352
5.94427e-05
0.00839128
0.00019563
0.00872929
0.000548719
0.00988281
0.00253896
0.0091962
0.00744728
0.00822915
0.00765463
0.00774902
0.00722115
0.00735342
0.00761541
0.00702451
0.00826995
0.00679467
0.00912543
0.00675407
0.0101074
0.00726654
0.0108803
0.0109474
0.00841693
0.00840003
2.32544e-10
0.00840003
1.81313e-09
0.00840003
5.51978e-09
0.00840003
1.68101e-08
0.00840002
3.9814e-08
0.0084
1.07562e-07
0.00839998
2.43482e-07
0.00839982
6.3887e-07
0.00839971
1.47498e-06
0.00839893
3.60654e-06
0.00839848
9.23441e-06
0.00839736
2.03761e-05
0.00839915
5.79766e-05
0.00843049
0.000154163
0.00849523
0.000489977
0.00907722
0.00191759
0.00919736
0.00729916
0.00892881
0.00791232
0.00826908
0.00789375
0.00787367
0.00801779
0.0076229
0.00852385
0.00755001
0.00919936
0.00775661
0.00990054
0.00833389
0.0103043
0.0101935
0.00908883
0.00840003
1.93714e-10
0.00840003
1.50965e-09
0.00840003
4.66483e-09
0.00840003
1.40707e-08
0.00840004
3.34328e-08
0.00840005
8.88341e-08
0.00840009
2.00557e-07
0.00840015
5.23789e-07
0.00840052
1.15504e-06
0.00840062
3.13004e-06
0.00840366
6.65888e-06
0.00840213
1.98214e-05
0.00841791
4.30338e-05
0.00841967
0.000143904
0.00849153
0.000412666
0.00874657
0.00163657
0.00913871
0.00683982
0.00891364
0.00813319
0.00854802
0.00826208
0.00830087
0.00827362
0.00817652
0.00865121
0.00822029
0.00915647
0.00847109
0.00964749
0.00896272
0.00980997
0.0095892
0.00956698
0.00840003
1.71245e-10
0.00840003
1.32524e-09
0.00840003
4.08539e-09
0.00840003
1.22791e-08
0.00840004
2.90876e-08
0.00840004
7.70168e-08
0.00840007
1.72776e-07
0.00840011
4.5298e-07
0.00840033
9.71084e-07
0.0084004
2.76878e-06
0.00840229
5.38835e-06
0.00840203
1.81175e-05
0.008412
3.62473e-05
0.00841496
0.000131997
0.00847659
0.000349661
0.00866312
0.00142837
0.0093517
0.00607906
0.00915993
0.00832731
0.00890319
0.00852102
0.00870134
0.00847883
0.00865342
0.00870135
0.00876129
0.00905084
0.0090104
0.00940184
0.00938977
0.00943219
0.00911143
0.00986779
0.00840003
1.52007e-10
0.00840003
1.17867e-09
0.00840003
3.62696e-09
0.00840003
1.09311e-08
0.00840003
2.58951e-08
0.00840004
6.88398e-08
0.00840006
1.54526e-07
0.00840008
4.04117e-07
0.00840018
8.87743e-07
0.00840031
2.43266e-06
0.0084011
4.92921e-06
0.00840146
1.62376e-05
0.00840928
3.08568e-05
0.00841448
0.000118837
0.00846267
0.00030148
0.00864047
0.00122245
0.0100711
0.00458908
0.00971667
0.0086822
0.00940295
0.00883575
0.00912943
0.00875597
0.00907872
0.0087498
0.00919795
0.0089293
0.0094531
0.00914723
0.00975509
0.00913372
0.00878377
0.0100843
0.00840003
1.31345e-10
0.00840003
1.01853e-09
0.00840003
3.13738e-09
0.00840003
9.44259e-09
0.00840004
2.24002e-08
0.00840004
5.9338e-08
0.00840006
1.33697e-07
0.0084001
3.46048e-07
0.00840023
7.69568e-07
0.0084005
2.00857e-06
0.00840113
4.40685e-06
0.00840412
1.21941e-05
0.00840967
2.64357e-05
0.00844373
7.93349e-05
0.00852148
0.000221354
0.00902818
0.000718174
0.0109841
0.00258294
0.0106445
0.00898744
0.0102603
0.0092215
0.00980053
0.00921996
0.00958191
0.00897115
0.00958909
0.00891972
0.00978707
0.00894716
0.0100499
0.00887238
0.00853688
0.0102995
0.00840003
1.06336e-10
0.00840003
8.62297e-10
0.00840003
2.67479e-09
0.00840003
7.97743e-09
0.00840003
1.91051e-08
0.00840004
5.00488e-08
0.00840006
1.14048e-07
0.0084001
2.91391e-07
0.00840022
6.56304e-07
0.00840043
1.67878e-06
0.00840118
3.75435e-06
0.00840262
9.93375e-06
0.00840832
2.16718e-05
0.00841813
6.4963e-05
0.00848855
0.000152075
0.00862171
0.000570334
0.00945331
0.00172619
0.0107588
0.00759534
0.010594
0.00937046
0.0103129
0.00949309
0.0100616
0.00922647
0.00998738
0.00900066
0.0100726
0.00886377
0.0102633
0.00868186
0.00834399
0.010458
0.00840003
4.51195e-11
0.00840003
9.04907e-10
0.00840003
1.75629e-09
0.00840003
7.94009e-09
0.00840004
1.2924e-08
0.00840004
4.94022e-08
0.00840007
7.7696e-08
0.00840007
2.88095e-07
0.00840029
4.44917e-07
0.00840023
1.68178e-06
0.00840163
2.42153e-06
0.00840041
1.05417e-05
0.00841166
1.19635e-05
0.00839927
7.29123e-05
0.00847462
8.12919e-05
0.00848826
0.000544158
0.00892202
0.0012766
0.0106979
0.00574908
0.0108124
0.00926118
0.0106851
0.00962635
0.0104517
0.00946523
0.0103834
0.00906847
0.0104015
0.00884716
0.0104873
0.00859672
0.00823128
0.0106013
0.00840003
8.26146e-11
0.00840003
4.77074e-10
0.00840003
1.76377e-09
0.00840003
4.55877e-09
0.00840003
1.24819e-08
0.00840005
2.86811e-08
0.00840005
7.40173e-08
0.00840018
1.65951e-07
0.00840017
4.24309e-07
0.00840093
9.4099e-07
0.00840068
2.47992e-06
0.00840629
5.28513e-06
0.00840128
1.53206e-05
0.00844434
3.22328e-05
0.00841632
0.000100684
0.00869123
0.000263421
0.00907214
0.000890211
0.0116233
0.00311098
0.0115178
0.0093695
0.0113692
0.00979147
0.0110599
0.00978525
0.0107932
0.00933671
0.0107339
0.00890385
0.0107576
0.00857171
0.00818725
0.0108009
0.00840003
9.43314e-11
0.00840003
2.9379e-10
0.00840003
1.6307e-09
0.00840003
2.98232e-09
0.00840003
1.13114e-08
0.00840004
1.90277e-08
0.00840005
6.71138e-08
0.0084001
1.10496e-07
0.00840012
3.86915e-07
0.00840045
6.1855e-07
0.00840052
2.28027e-06
0.0084027
3.21427e-06
0.00840271
1.43734e-05
0.00842014
1.61935e-05
0.00841961
9.54976e-05
0.00855946
0.000125304
0.00870437
0.000726351
0.00986065
0.00192927
0.0116564
0.00751533
0.0117199
0.00972245
0.0115051
0.0100032
0.0111651
0.00968159
0.0110256
0.0090443
0.0109799
0.00861642
0.00818627
0.01098
0.00840003
3.00265e-11
0.00840003
3.25894e-10
0.00840003
7.4996e-10
0.00840003
2.94023e-09
0.00840004
5.39744e-09
0.00840004
1.82537e-08
0.00840007
3.1954e-08
0.00840007
1.05034e-07
0.00840028
1.80729e-07
0.00840026
6.0387e-07
0.00840159
9.97925e-07
0.00840084
3.64646e-06
0.00841035
5.59496e-06
0.00840098
2.32882e-05
0.00846339
3.63815e-05
0.00841744
0.000160926
0.00880558
0.000337156
0.00928551
0.00142883
0.0115266
0.00520005
0.0118633
0.00937001
0.0119382
0.00992045
0.0117359
0.00988424
0.0114133
0.00937181
0.011273
0.00875902
0.00826598
0.0111952
0.00840003
4.47741e-11
0.00840003
1.5702e-10
0.00840003
8.20683e-10
0.00840003
1.56976e-09
0.00840003
5.73038e-09
0.00840004
1.00067e-08
0.00840004
3.40554e-08
0.00840008
5.83455e-08
0.00840006
1.96178e-07
0.00840033
3.35305e-07
0.00840014
1.12647e-06
0.00840186
1.94082e-06
0.00840044
6.66001e-06
0.00841259
1.13086e-05
0.00840422
4.27797e-05
0.00849283
7.23782e-05
0.00850781
0.000315236
0.0092317
0.000695168
0.011655
0.00274923
0.0122487
0.00873368
0.0122212
0.00993939
0.0120633
0.010038
0.0117354
0.0097029
0.0115821
0.00891503
0.00839269
0.011456
0.00840003
2.22812e-11
0.00840003
1.47912e-10
0.00840003
4.70162e-10
0.00840003
1.39219e-09
0.00840003
3.3514e-09
0.00840003
8.75079e-09
0.00840005
1.99501e-08
0.00840005
5.06678e-08
0.00840013
1.1415e-07
0.00840016
2.88714e-07
0.00840065
6.48624e-07
0.0084008
1.67131e-06
0.00840391
3.65565e-06
0.00840405
1.0317e-05
0.00842716
2.10565e-05
0.00842547
6.90958e-05
0.00859743
0.000145446
0.00869025
0.000588207
0.00979766
0.00162398
0.0121696
0.00629407
0.0124402
0.00965654
0.0124139
0.0100568
0.0121893
0.00992706
0.0118612
0.00924923
0.00858045
0.0116745
0.00840003
1.45198e-11
0.00840003
1.14663e-10
0.00840003
3.55432e-10
0.00840003
1.05962e-09
0.00840003
2.53245e-09
0.00840003
6.63351e-09
0.00840004
1.5071e-08
0.00840005
3.84409e-08
0.00840007
8.62969e-08
0.00840013
2.19206e-07
0.00840029
4.89831e-07
0.00840062
1.24995e-06
0.00840149
2.77687e-06
0.00840404
7.24799e-06
0.00840914
1.59831e-05
0.00843071
4.45308e-05
0.00847114
0.000104289
0.00871241
0.000335347
0.00935886
0.000963196
0.012028
0.00354579
0.0126985
0.00896779
0.0128017
0.0099535
0.0126221
0.0101041
0.0122459
0.00962351
0.00884561
0.0119818
0.00840003
6.43426e-12
0.00840003
9.75902e-11
0.00840003
2.13142e-10
0.00840003
8.65576e-10
0.00840003
1.55422e-09
0.00840003
5.36337e-09
0.00840004
9.29286e-09
0.00840004
3.09295e-08
0.00840008
5.31815e-08
0.00840011
1.75843e-07
0.00840029
3.00725e-07
0.00840048
1.00007e-06
0.00840155
1.69252e-06
0.00840264
5.78091e-06
0.00840916
9.44985e-06
0.0084162
3.54537e-05
0.00846325
5.60448e-05
0.0085483
0.000240552
0.0089888
0.000531217
0.010467
0.002035
0.0126108
0.00677153
0.0128677
0.00968921
0.0129532
0.0100136
0.0126159
0.00995935
0.00916072
0.0123037
0.00840003
8.38125e-12
0.00840003
5.02728e-11
0.00840003
1.84596e-10
0.00840003
4.78296e-10
0.00840003
1.30868e-09
0.00840003
3.00702e-09
0.00840003
7.76507e-09
0.00840005
1.73889e-08
0.00840005
4.43535e-08
0.00840013
9.86837e-08
0.00840016
2.5137e-07
0.0084006
5.57997e-07
0.00840076
1.42814e-06
0.00840337
3.16338e-06
0.00840396
8.26701e-06
0.00842126
1.83053e-05
0.00842284
5.10811e-05
0.00854659
0.000116791
0.00867904
0.000386682
0.00960157
0.00109784
0.0123542
0.00394035
0.0130858
0.00893889
0.0132069
0.00989361
0.0130754
0.0100928
0.00957873
0.0126598
0.00840003
6.45712e-12
0.00840003
3.49635e-11
0.00840003
1.28747e-10
0.00840003
3.33186e-10
0.00840003
9.06033e-10
0.00840003
2.09283e-09
0.00840003
5.3566e-09
0.00840004
1.20724e-08
0.00840005
3.04952e-08
0.00840008
6.82915e-08
0.00840015
1.72232e-07
0.00840031
3.84374e-07
0.0084007
9.73278e-07
0.00840167
2.16607e-06
0.00840399
5.55954e-06
0.00840983
1.23555e-05
0.00842617
3.27872e-05
0.00846353
7.73567e-05
0.00862002
0.000220936
0.00908657
0.000637656
0.010745
0.00225287
0.0129608
0.00666569
0.0132357
0.00961146
0.0134205
0.00990585
0.00988124
0.0131231
0.00840003
5.53853e-12
0.00840003
1.91622e-11
0.00840003
9.70426e-11
0.00840003
1.93241e-10
0.00840003
6.72692e-10
0.00840003
1.22597e-09
0.00840003
3.95183e-09
0.00840004
7.07978e-09
0.00840004
2.24025e-08
0.00840007
3.99914e-08
0.00840011
1.26035e-07
0.00840027
2.24262e-07
0.00840049
7.08768e-07
0.00840139
1.25184e-06
0.00840269
4.02299e-06
0.00840806
6.92968e-06
0.00841536
2.39204e-05
0.00845424
3.92203e-05
0.0085136
0.000153556
0.00883637
0.000312984
0.00984782
0.00121532
0.0126347
0.00379889
0.0135011
0.00872225
0.013649
0.00975611
0.0100324
0.0134992
0.00840003
2.364e-12
0.00840003
1.62416e-11
0.00840003
5.09602e-11
0.00840003
1.52074e-10
0.00840003
3.62219e-10
0.00840003
9.51774e-10
0.00840003
2.14467e-09
0.00840003
5.48132e-09
0.00840004
1.2192e-08
0.00840005
3.09923e-08
0.00840011
6.86487e-08
0.00840015
1.74637e-07
0.00840046
3.8579e-07
0.00840066
9.8609e-07
0.00840248
2.17478e-06
0.00840345
5.61741e-06
0.00841453
1.25342e-05
0.00841934
3.26133e-05
0.00849173
7.89444e-05
0.00857943
0.000216395
0.00916637
0.000631879
0.0108217
0.00211553
0.0132547
0.00622858
0.0135949
0.00940776
0.009734
0.0138977
0.00840003
1.37225e-12
0.00840003
1.06861e-11
0.00840003
3.32375e-11
0.00840003
9.89577e-11
0.00840003
2.36243e-10
0.00840003
6.15543e-10
0.00840003
1.39429e-09
0.00840003
3.52793e-09
0.00840004
7.89618e-09
0.00840005
1.98426e-08
0.00840007
4.42699e-08
0.00840013
1.1109e-07
0.00840026
2.47386e-07
0.00840058
6.21634e-07
0.00840136
1.38109e-06
0.00840323
3.49682e-06
0.00840797
7.74196e-06
0.00841886
2.02212e-05
0.00845335
4.45017e-05
0.00853527
0.000126803
0.00884255
0.000321323
0.00983407
0.00109633
0.0128238
0.00315425
0.013867
0.00834425
0.00968166
0.0139217
0.00840003
6.47403e-13
0.00840003
7.76834e-12
0.00840003
1.86652e-11
0.00840003
6.9392e-11
0.00840003
1.34502e-10
0.00840003
4.27191e-10
0.00840003
7.94935e-10
0.00840003
2.43334e-09
0.00840004
4.49221e-09
0.00840004
1.36151e-08
0.00840006
2.50976e-08
0.00840009
7.58466e-08
0.0084002
1.39536e-07
0.00840037
4.22284e-07
0.00840097
7.72697e-07
0.00840194
2.37056e-06
0.00840547
4.22285e-06
0.00841086
1.39019e-05
0.00843329
2.2768e-05
0.00846587
8.8704e-05
0.00863578
0.000152637
0.00906544
0.00064928
0.0103952
0.00180036
0.0134281
0.00524895
0.00908177
0.0140128
0.00840003
7.80967e-13
0.00840003
3.28412e-12
0.00840003
1.50127e-11
0.00840003
3.22263e-11
0.00840003
1.04482e-10
0.00840003
2.02421e-10
0.00840003
6.10775e-10
0.00840003
1.15837e-09
0.00840003
3.43342e-09
0.00840004
6.48191e-09
0.00840004
1.91194e-08
0.00840008
3.60446e-08
0.00840011
1.06218e-07
0.00840033
1.99885e-07
0.00840048
5.90352e-07
0.00840172
1.10948e-06
0.00840247
3.29853e-06
0.00841007
6.21741e-06
0.00841296
1.90198e-05
0.00846466
3.58914e-05
0.00849338
0.000119913
0.00887997
0.000255946
0.00975569
0.000911801
0.0123786
0.0025907
0.00731897
0.0141029
0.00840003
3.59239e-13
0.00840003
2.46877e-12
0.00840003
7.74371e-12
0.00840003
2.30604e-11
0.00840003
5.48741e-11
0.00840003
1.43494e-10
0.00840003
3.22698e-10
0.00840003
8.19238e-10
0.00840003
1.81807e-09
0.00840003
4.58424e-09
0.00840004
1.01375e-08
0.00840005
2.55342e-08
0.0084001
5.63757e-08
0.00840015
1.42141e-07
0.00840042
3.13299e-07
0.00840069
7.92556e-07
0.00840223
1.74535e-06
0.00840373
4.45895e-06
0.0084129
9.81577e-06
0.00842112
2.60256e-05
0.00848447
5.72336e-05
0.00856439
0.000167931
0.00904371
0.000430667
0.0100972
0.00150908
0.00419638
0.0131452
0.00840003
1.99815e-13
0.00840003
1.55116e-12
0.00840003
4.82334e-12
0.00840003
1.43613e-11
0.00840003
3.42208e-11
0.00840003
8.89635e-11
0.00840003
2.00913e-10
0.00840003
5.06598e-10
0.00840003
1.12995e-09
0.00840003
2.82805e-09
0.00840004
6.28899e-09
0.00840005
1.57086e-08
0.00840007
3.49e-08
0.00840012
8.71279e-08
0.00840023
1.93378e-07
0.00840052
4.83185e-07
0.00840118
1.07038e-06
0.00840279
2.68993e-06
0.00840662
5.93156e-06
0.00841647
1.53158e-05
0.00844003
3.3388e-05
0.00851017
9.34992e-05
0.00871992
0.000217992
0.00947998
0.000732764
0.00202774
0.0116196
0.00840003
8.92686e-14
0.00840003
1.06278e-12
0.00840003
2.61543e-12
0.00840003
9.50712e-12
0.00840003
1.88283e-11
0.00840003
5.83458e-11
0.00840003
1.10838e-10
0.00840003
3.30599e-10
0.00840003
6.2295e-10
0.00840003
1.83831e-09
0.00840003
3.46149e-09
0.00840004
1.01733e-08
0.00840006
1.91707e-08
0.00840008
5.6231e-08
0.00840017
1.05965e-07
0.00840032
3.1094e-07
0.0084008
5.84393e-07
0.00840167
1.72517e-06
0.00840435
3.20753e-06
0.00840932
9.77804e-06
0.00842513
1.74276e-05
0.00845678
5.8688e-05
0.00856925
0.00010414
0.0089017
0.000387745
0.000977644
0.00993873
0.00840003
8.55824e-14
0.00840003
4.94685e-13
0.00840003
1.81866e-12
0.00840003
4.71093e-12
0.00840003
1.27705e-11
0.00840003
2.92763e-11
0.00840003
7.44598e-11
0.00840003
1.66149e-10
0.00840003
4.15792e-10
0.00840003
9.22195e-10
0.00840003
2.29601e-09
0.00840004
5.0873e-09
0.00840004
1.26317e-08
0.00840007
2.79929e-08
0.0084001
6.93546e-08
0.00840026
1.53691e-07
0.00840044
3.80371e-07
0.00840131
8.42423e-07
0.00840228
2.10397e-06
0.00840746
4.59257e-06
0.00841189
1.21451e-05
0.00844589
2.52237e-05
0.00846999
7.54178e-05
0.00869855
0.00015812
0.000559937
0.0091024
0.00840003
6.57969e-14
0.00840003
2.55189e-13
0.00840003
1.1874e-12
0.00840003
2.53659e-12
0.00840003
8.20108e-12
0.00840003
1.59159e-11
0.00840003
4.76063e-11
0.00840003
9.05652e-11
0.00840003
2.65537e-10
0.00840003
5.03177e-10
0.00840003
1.4667e-09
0.00840003
2.77836e-09
0.00840004
8.08081e-09
0.00840005
1.5309e-08
0.00840007
4.44928e-08
0.00840014
8.4217e-08
0.00840026
2.45069e-07
0.00840063
4.6249e-07
0.00840132
1.35399e-06
0.00840333
2.53673e-06
0.00840756
7.55431e-06
0.00841837
1.41082e-05
0.00844888
4.31725e-05
0.00851912
8.52764e-05
0.00027564
0.00879693
0.00840003
2.63533e-14
0.00840003
1.80768e-13
0.00840003
5.71822e-13
0.00840003
1.68722e-12
0.00840003
4.03787e-12
0.00840003
1.04337e-11
0.00840003
2.35593e-11
0.00840003
5.89855e-11
0.00840003
1.31386e-10
0.00840003
3.262e-10
0.00840003
7.24357e-10
0.00840003
1.79355e-09
0.00840004
3.98102e-09
0.00840004
9.84419e-09
0.00840006
2.18552e-08
0.00840009
5.39945e-08
0.00840021
1.19899e-07
0.00840036
2.96152e-07
0.00840104
6.57776e-07
0.00840184
1.62914e-06
0.00840573
3.61487e-06
0.0084101
9.10514e-06
0.00843304
2.00812e-05
0.0084609
5.376e-05
0.000120034
0.00861551
0.00840003
1.37105e-14
0.00840003
1.05769e-13
0.00840003
3.29652e-13
0.00840003
9.79795e-13
0.00840003
2.33047e-12
0.00840003
6.03161e-12
0.00840003
1.3574e-11
0.00840003
3.40118e-11
0.00840003
7.55219e-11
0.00840003
1.87654e-10
0.00840003
4.15224e-10
0.00840003
1.02927e-09
0.00840003
2.27501e-09
0.00840004
5.63509e-09
0.00840005
1.24478e-08
0.00840007
3.08319e-08
0.00840012
6.80491e-08
0.00840023
1.68695e-07
0.00840051
3.71769e-07
0.00840116
9.24061e-07
0.00840269
2.03303e-06
0.00840644
5.09504e-06
0.00841482
1.12046e-05
0.00843872
2.87216e-05
6.60038e-05
0.00848888
0.00840003
6.05261e-15
0.00840003
6.69911e-14
0.00840003
1.71359e-13
0.00840003
6.00806e-13
0.00840003
1.22727e-12
0.00840003
3.66864e-12
0.00840003
7.16839e-12
0.00840003
2.06028e-11
0.00840003
3.98816e-11
0.00840003
1.13342e-10
0.00840003
2.19081e-10
0.00840003
6.20044e-10
0.00840003
1.19913e-09
0.00840003
3.38606e-09
0.00840004
6.55519e-09
0.00840005
1.84808e-08
0.00840008
3.58091e-08
0.00840014
1.00874e-07
0.00840032
1.95434e-07
0.00840066
5.51134e-07
0.0084016
1.06563e-06
0.00840349
3.02375e-06
0.00840876
5.80891e-06
0.00841959
1.69263e-05
3.2259e-05
0.00845276
0.00840003
4.96716e-15
0.00840003
2.99994e-14
0.00840003
1.09318e-13
0.00840003
2.85295e-13
0.00840003
7.67111e-13
0.00840003
1.7641e-12
0.00840003
4.4459e-12
0.00840003
9.93221e-12
0.00840003
2.46151e-11
0.00840003
5.45978e-11
0.00840003
1.3464e-10
0.00840003
2.98113e-10
0.00840003
7.33638e-10
0.00840003
1.62381e-09
0.00840004
3.99052e-09
0.00840004
8.83236e-09
0.00840006
2.16798e-08
0.00840011
4.79801e-08
0.00840018
1.17686e-07
0.00840046
2.60332e-07
0.00840085
6.38927e-07
0.00840243
1.41319e-06
0.00840452
3.48754e-06
0.00841361
7.71127e-06
1.94411e-05
0.00842526
0.00840003
3.01603e-15
0.00840003
1.64351e-14
0.00840003
6.10536e-14
0.00840003
1.57166e-13
0.00840003
4.24533e-13
0.00840003
9.7148e-13
0.00840003
2.45245e-12
0.00840003
5.45815e-12
0.00840003
1.35433e-11
0.00840003
2.99254e-11
0.00840003
7.38879e-11
0.00840003
1.62927e-10
0.00840003
4.01564e-10
0.00840003
8.84837e-10
0.00840003
2.17864e-09
0.00840004
4.79882e-09
0.00840005
1.18055e-08
0.00840007
2.59941e-08
0.00840012
6.38982e-08
0.00840023
1.40603e-07
0.0084005
3.45551e-07
0.00840114
7.59326e-07
0.00840263
1.87123e-06
0.00840616
4.09734e-06
1.02797e-05
0.00841459
0.00840003
1.95945e-15
0.00840003
8.0437e-15
0.00840003
3.55915e-14
0.00840003
7.95624e-14
0.00840003
2.46236e-13
0.00840003
4.95275e-13
0.00840003
1.41676e-12
0.00840003
2.78655e-12
0.00840003
7.80293e-12
0.00840003
1.52724e-11
0.00840003
4.24936e-11
0.00840003
8.30979e-11
0.00840003
2.30642e-10
0.00840003
4.51114e-10
0.00840003
1.25037e-09
0.00840003
2.44661e-09
0.00840004
6.77503e-09
0.00840005
1.32593e-08
0.00840008
3.67058e-08
0.00840014
7.17858e-08
0.00840028
1.98976e-07
0.00840064
3.88152e-07
0.00840136
1.08085e-06
0.0084033
2.09799e-06
5.90811e-06
0.00840728
0.00840003
6.1252e-16
0.00840003
5.22274e-15
0.00840003
1.62393e-14
0.00840003
4.77336e-14
0.00840003
1.14862e-13
0.00840003
2.94835e-13
0.00840003
6.6601e-13
0.00840003
1.65256e-12
0.00840003
3.67561e-12
0.00840003
9.03781e-12
0.00840003
2.00191e-11
0.00840003
4.90975e-11
0.00840003
1.08623e-10
0.00840003
2.66193e-10
0.00840003
5.88673e-10
0.00840003
1.44226e-09
0.00840004
3.18854e-09
0.00840004
7.81232e-09
0.00840006
1.72631e-08
0.00840009
4.23181e-08
0.00840019
9.34269e-08
0.00840033
2.29376e-07
0.00840089
5.05847e-07
0.00840166
1.2471e-06
2.7462e-06
0.00840476
0.00840003
3.4418e-16
0.00840003
2.84286e-15
0.00840003
8.5131e-15
0.00840003
2.59474e-14
0.00840003
6.11717e-14
0.00840003
1.57697e-13
0.00840003
3.53688e-13
0.00840003
8.80651e-13
0.00840003
1.94771e-12
0.00840003
4.80341e-12
0.00840003
1.05817e-11
0.00840003
2.6025e-11
0.00840003
5.72655e-11
0.00840003
1.40686e-10
0.00840003
3.09441e-10
0.00840003
7.59709e-10
0.00840003
1.67063e-09
0.00840004
4.09895e-09
0.00840004
9.01102e-09
0.00840006
2.20953e-08
0.00840011
4.85382e-08
0.00840021
1.18994e-07
0.00840045
2.61014e-07
0.00840101
6.40751e-07
1.40274e-06
0.00840232
0.00840003
1.56071e-16
0.00840003
1.40532e-15
0.00840003
4.2488e-15
0.00840003
1.41965e-14
0.00840003
3.00526e-14
0.00840003
8.73033e-14
0.00840003
1.74243e-13
0.00840003
4.85403e-13
0.00840003
9.57714e-13
0.00840003
2.63773e-12
0.00840003
5.19466e-12
0.00840003
1.42372e-11
0.00840003
2.8041e-11
0.00840003
7.66573e-11
0.00840003
1.51086e-10
0.00840003
4.12187e-10
0.00840003
8.13064e-10
0.00840003
2.21373e-09
0.00840004
4.37004e-09
0.00840005
1.1875e-08
0.00840007
2.34515e-08
0.00840012
6.36229e-08
0.00840025
1.25584e-07
0.00840053
3.40577e-07
6.70916e-07
0.00840124
0.00840003
5.51859e-17
0.00840003
5.01118e-16
0.00840003
2.38066e-15
0.00840003
5.55583e-15
0.00840003
1.74436e-14
0.00840003
3.53109e-14
0.00840003
1.00396e-13
0.00840003
1.98077e-13
0.00840003
5.49172e-13
0.00840003
1.07777e-12
0.00840003
2.96697e-12
0.00840003
5.81519e-12
0.00840003
1.59604e-11
0.00840003
3.12759e-11
0.00840003
8.56895e-11
0.00840003
1.67924e-10
0.00840003
4.59497e-10
0.00840003
9.00444e-10
0.00840003
2.46132e-09
0.00840004
4.82219e-09
0.00840005
1.31703e-08
0.00840009
2.57882e-08
0.00840014
7.04101e-08
0.00840033
1.37695e-07
3.76323e-07
0.0084006
0.00840003
1.80791e-16
0.00840003
4.54687e-16
0.00840003
1.12987e-15
0.00840003
2.80716e-15
0.00840003
6.25587e-15
0.00840003
1.6076e-14
0.00840003
3.57958e-14
0.00840003
8.83393e-14
0.00840003
1.96553e-13
0.00840003
4.7819e-13
0.00840003
1.05928e-12
0.00840003
2.56505e-12
0.00840003
5.67899e-12
0.00840003
1.37196e-11
0.00840003
3.0381e-11
0.00840003
7.32311e-11
0.00840003
1.62229e-10
0.00840003
3.90069e-10
0.00840003
8.64704e-10
0.00840004
2.07316e-09
0.00840004
4.60027e-09
0.00840006
1.09921e-08
0.0084001
2.44241e-08
0.00840017
5.81311e-08
1.29407e-07
0.00840041
0.00840003
0.00840003
0.00840003
0.00840003
0.00840003
0.00840003
0.00840003
0.00840003
0.00840003
0.00840003
0.00840003
0.00840003
0.00840003
0.00840003
0.00840003
0.00840003
0.00840003
0.00840003
0.00840003
0.00840003
0.00840004
0.00840005
0.00840007
0.00840012
0.00840025
0.00458276
0.00412802
0.00296692
0.00161462
0.00228459
0.000681577
0.0020116
0.000272358
0.00198673
2.41714e-05
0.00213984
-0.000153943
0.00233421
-0.00019561
0.00244719
-0.000114767
0.00248666
-4.15308e-05
0.00248261
1.99125e-06
0.00246074
1.98133e-05
0.00244868
9.87746e-06
0.00244825
-1.77408e-06
0.00245766
-1.16819e-05
0.00246916
-1.3869e-05
0.00247844
-1.16489e-05
0.00248497
-8.93688e-06
0.00248898
-6.39412e-06
0.00249114
-4.5223e-06
0.00249251
-3.67184e-06
0.00249477
-4.36513e-06
0.00249882
-5.87426e-06
0.00250423
-6.94522e-06
0.00251027
-7.2874e-06
0.00251659
-7.31948e-06
0.0025232
-7.34895e-06
0.00253006
-7.48254e-06
0.00253734
-7.69312e-06
0.00254492
-7.90759e-06
0.00255292
-8.07629e-06
0.00256125
-8.18703e-06
0.00256967
-8.25204e-06
0.00257845
-8.29397e-06
0.00258692
-8.3288e-06
0.00259547
-8.33735e-06
0.0026037
-8.35193e-06
0.00261099
-8.23566e-06
0.00261591
-7.87597e-06
0.00261978
-7.67895e-06
0.00262151
-7.42173e-06
0.00261968
-6.82374e-06
0.00260925
-5.36454e-06
0.00258034
-1.22456e-06
0.00250188
1.5599e-05
0.00230304
6.47488e-05
0.00174036
0.000222435
0.000477666
0.000736793
8.96463e-05
0.000480063
0.000325157
-0.000260853
0.00086005
-0.000600071
0.00140765
-0.000556803
0.00190631
-0.000503803
0.00235599
-0.000460245
0.00277389
-0.000420925
0.0031478