/*--------------------------------*- C++ -*----------------------------------*\
| =========                 |                                                 |
| \\      /  F ield         | OpenFOAM: The Open Source CFD Toolbox           |
|  \\    /   O peration     | Version:  2112                                  |
|   \\  /    A nd           | Website:  www.openfoam.com                      |
|    \\/     M anipulation  |                                                 |
\*---------------------------------------------------------------------------*/
FoamFile
{
    version     2.0;
    format      ascii;
    arch        "LSB;label=32;scalar=64";
    class       volVectorField;
    location    "2";
    object      U;
}
// * * * * * * * * * * * * * * * * * * * * * * * * * * * * * * * * * * * * * //

dimensions      [0 1 -1 0 0 0 0];

internalField   nonuniform List<vector> 
5250
(
(3 4.70009e-09 0)
(2.99999 3.65685e-08 0)
(2.99997 1.12389e-07 0)
(2.99994 3.40887e-07 0)
(2.99983 8.0806e-07 0)
(2.99963 2.18046e-06 0)
(2.99902 4.88449e-06 0)
(2.99787 1.3321e-05 0)
(2.99412 2.83566e-05 0)
(2.98774 8.61609e-05 0)
(2.96326 0.000176754 0)
(2.9136 0.000508746 0)
(2.75433 0.00162149 0)
(2.25393 0.0032414 0)
(1.19522 0.011764 0)
(0.424066 0.0214598 0)
(0.538331 0.0247734 0)
(0.581398 0.0259647 0)
(0.532874 0.0271137 0)
(0.445059 0.0293974 0)
(0.355621 0.0324193 0)
(0.281352 0.0357562 0)
(0.208671 0.0393171 0)
(0.12764 0.0436157 0)
(0.0598239 0.0498428 0)
(3 1.3424e-08 0)
(2.99999 1.0479e-07 0)
(2.99997 3.21432e-07 0)
(2.99994 9.75453e-07 0)
(2.99983 2.30697e-06 0)
(2.99963 6.22593e-06 0)
(2.99903 1.38939e-05 0)
(2.99789 3.8206e-05 0)
(2.99418 7.96027e-05 0)
(2.98787 0.000252327 0)
(2.9636 0.000494073 0)
(2.91487 0.00157192 0)
(2.75651 0.00462474 0)
(2.26207 0.0102375 0)
(1.21355 0.0355466 0)
(0.435192 0.0639997 0)
(0.540802 0.0712858 0)
(0.581406 0.0713191 0)
(0.533353 0.0720299 0)
(0.446623 0.0767523 0)
(0.357016 0.0825785 0)
(0.281588 0.0880055 0)
(0.20743 0.0929771 0)
(0.124636 0.0980075 0)
(0.0562536 0.10365 0)
(3 2.15529e-08 0)
(2.99999 1.67433e-07 0)
(2.99997 5.1363e-07 0)
(2.99994 1.55142e-06 0)
(2.99984 3.64853e-06 0)
(2.99964 9.79058e-06 0)
(2.99905 2.16603e-05 0)
(2.99793 5.98258e-05 0)
(2.9943 0.000119996 0)
(2.98809 0.000403963 0)
(2.96433 0.000729513 0)
(2.91722 0.00268419 0)
(2.76116 0.00697807 0)
(2.28016 0.0177479 0)
(1.25177 0.0584205 0)
(0.45992 0.108945 0)
(0.546385 0.122078 0)
(0.582135 0.119841 0)
(0.536838 0.120707 0)
(0.45318 0.130631 0)
(0.363371 0.141633 0)
(0.28656 0.151445 0)
(0.211013 0.16057 0)
(0.126483 0.16916 0)
(0.0559852 0.17688 0)
(3 3.09705e-08 0)
(2.99999 2.38889e-07 0)
(2.99997 7.34686e-07 0)
(2.99994 2.20663e-06 0)
(2.99984 5.17986e-06 0)
(2.99964 1.37849e-05 0)
(2.99907 3.04026e-05 0)
(2.99797 8.30025e-05 0)
(2.99447 0.000165078 0)
(2.98838 0.000555396 0)
(2.96545 0.000969732 0)
(2.92034 0.00374402 0)
(2.76822 0.0091236 0)
(2.30781 0.0246663 0)
(1.30736 0.0786562 0)
(0.497618 0.154406 0)
(0.553794 0.172631 0)
(0.581297 0.166052 0)
(0.543147 0.168316 0)
(0.465189 0.184305 0)
(0.37494 0.201257 0)
(0.296563 0.216107 0)
(0.219481 0.230232 0)
(0.132355 0.243276 0)
(0.0580435 0.253763 0)
(3 4.21262e-08 0)
(2.99999 3.25454e-07 0)
(2.99997 1.00187e-06 0)
(2.99994 3.01231e-06 0)
(2.99985 7.10088e-06 0)
(2.99966 1.88791e-05 0)
(2.99911 4.20159e-05 0)
(2.99804 0.00011242 0)
(2.99469 0.000234519 0)
(2.98877 0.000717292 0)
(2.96692 0.00136351 0)
(2.92434 0.00470356 0)
(2.77732 0.0113535 0)
(2.34329 0.0324948 0)
(1.38135 0.0959452 0)
(0.548077 0.202024 0)
(0.560497 0.215983 0)
(0.57919 0.211344 0)
(0.553191 0.218195 0)
(0.482307 0.237483 0)
(0.391189 0.260803 0)
(0.31084 0.281142 0)
(0.232263 0.300877 0)
(0.141972 0.319233 0)
(0.0622763 0.333328 0)
(3 5.33662e-08 0)
(2.99999 4.12897e-07 0)
(2.99998 1.2711e-06 0)
(2.99994 3.82422e-06 0)
(2.99985 9.03664e-06 0)
(2.99967 2.40057e-05 0)
(2.99915 5.37164e-05 0)
(2.99814 0.000141878 0)
(2.99497 0.000304812 0)
(2.98933 0.000874201 0)
(2.96869 0.00176551 0)
(2.92902 0.0056068 0)
(2.78955 0.0133474 0)
(2.38541 0.0403161 0)
(1.47058 0.11057 0)
(0.606861 0.250259 0)
(0.566004 0.255887 0)
(0.584217 0.257154 0)
(0.565986 0.270543 0)
(0.50226 0.291571 0)
(0.41279 0.320427 0)
(0.330402 0.347539 0)
(0.250248 0.374609 0)
(0.155897 0.400453 0)
(0.0689201 0.420775 0)
(3 6.53213e-08 0)
(2.99999 5.053e-07 0)
(2.99998 1.55637e-06 0)
(2.99995 4.6783e-06 0)
(2.99986 1.10699e-05 0)
(2.99969 2.93211e-05 0)
(2.99921 6.57468e-05 0)
(2.99825 0.00017172 0)
(2.9953 0.000374612 0)
(2.98999 0.00102936 0)
(2.97077 0.0021572 0)
(2.93436 0.00639465 0)
(2.80388 0.0153045 0)
(2.43321 0.0461313 0)
(1.57561 0.122143 0)
(0.676654 0.296614 0)
(0.571313 0.298508 0)
(0.59364 0.301813 0)
(0.582452 0.321528 0)
(0.524681 0.346228 0)
(0.439456 0.380223 0)
(0.356871 0.415706 0)
(0.275679 0.452554 0)
(0.177011 0.489436 0)
(0.0801543 0.521165 0)
(3 7.94406e-08 0)
(2.99999 6.16471e-07 0)
(2.99998 1.90027e-06 0)
(2.99995 5.72301e-06 0)
(2.99987 1.35972e-05 0)
(2.99972 3.60218e-05 0)
(2.99927 8.13604e-05 0)
(2.99839 0.000209454 0)
(2.99568 0.000473577 0)
(2.99082 0.00120186 0)
(2.97307 0.0027284 0)
(2.94035 0.00714241 0)
(2.81997 0.0174147 0)
(2.48424 0.0512474 0)
(1.6902 0.132415 0)
(0.753101 0.342709 0)
(0.57253 0.341378 0)
(0.60344 0.345005 0)
(0.601671 0.370351 0)
(0.550074 0.399938 0)
(0.471545 0.440144 0)
(0.39157 0.485754 0)
(0.311061 0.535577 0)
(0.209391 0.589 0)
(0.0993056 0.6433 0)
(3 9.17098e-08 0)
(2.99999 7.08211e-07 0)
(2.99998 2.18296e-06 0)
(2.99996 6.55708e-06 0)
(2.99989 1.56062e-05 0)
(2.99975 4.1229e-05 0)
(2.99935 9.35433e-05 0)
(2.99858 0.000238395 0)
(2.99613 0.000546039 0)
(2.99188 0.00134333 0)
(2.97564 0.00308455 0)
(2.94696 0.00810416 0)
(2.83767 0.0188068 0)
(2.53912 0.0563938 0)
(1.81572 0.143546 0)
(0.834689 0.390024 0)
(0.567944 0.382662 0)
(0.612198 0.385419 0)
(0.622681 0.415988 0)
(0.578439 0.451309 0)
(0.509704 0.498758 0)
(0.436447 0.55638 0)
(0.36073 0.621335 0)
(0.262632 0.700833 0)
(0.135485 0.801893 0)
(3 3.10389e-08 0)
(2.99999 9.99509e-07 0)
(2.99998 1.94856e-06 0)
(2.99996 8.8166e-06 0)
(2.9999 1.43468e-05 0)
(2.99978 5.59498e-05 0)
(2.99943 8.24595e-05 0)
(2.99877 0.000345233 0)
(2.9966 0.000394164 0)
(2.99294 0.00215934 0)
(2.97862 0.00149528 0)
(2.95379 0.0139019 0)
(2.85682 0.00962204 0)
(2.59977 0.0837408 0)
(1.95663 0.148624 0)
(0.931431 0.445427 0)
(0.567811 0.428537 0)
(0.626357 0.425975 0)
(0.649883 0.457508 0)
(0.613063 0.499707 0)
(0.556305 0.553958 0)
(0.493285 0.622615 0)
(0.431134 0.708942 0)
(0.354766 0.834486 0)
(0.205452 1.05509 0)
(3 7.20305e-08 0)
(2.99999 5.5936e-07 0)
(2.99999 1.72132e-06 0)
(2.99997 5.18477e-06 0)
(2.99993 1.22411e-05 0)
(2.99981 3.25687e-05 0)
(2.99959 7.2539e-05 0)
(2.99884 0.000194477 0)
(2.99763 0.000403737 0)
(2.9928 0.00124707 0)
(2.98519 0.00230081 0)
(2.95412 0.00851655 0)
(2.88751 0.0174221 0)
(2.68295 0.0628341 0)
(2.05581 0.172651 0)
(1.09207 0.474294 0)
(0.608737 0.472889 0)
(0.664833 0.473087 0)
(0.69569 0.498133 0)
(0.662583 0.543133 0)
(0.614469 0.601656 0)
(0.568828 0.679237 0)
(0.539595 0.785587 0)
(0.544475 0.943334 0)
(0.591828 1.20036 0)
(3 1.22271e-07 0)
(3 1.89048e-07 0)
(2.99999 1.70989e-06 0)
(2.99997 2.20753e-06 0)
(2.99993 1.17586e-05 0)
(2.99983 1.34635e-05 0)
(2.99957 7.34098e-05 0)
(2.99905 6.47239e-05 0)
(2.99748 0.00049393 0)
(2.99452 0.000348015 0)
(2.98467 0.00351633 0)
(2.96641 0.00266768 0)
(2.90196 0.0247141 0)
(2.73852 0.0375055 0)
(2.30048 0.152987 0)
(1.24645 0.432035 0)
(0.684636 0.503676 0)
(0.721536 0.530615 0)
(0.751742 0.542419 0)
(0.72482 0.583462 0)
(0.685619 0.64295 0)
(0.658683 0.724819 0)
(0.662979 0.837685 0)
(0.726751 0.992426 0)
(0.881911 1.19072 0)
(3 6.8021e-08 0)
(3 5.33539e-07 0)
(2.99999 1.63995e-06 0)
(2.99998 4.99711e-06 0)
(2.99994 1.18683e-05 0)
(2.99986 3.19968e-05 0)
(2.99963 7.24579e-05 0)
(2.99919 0.000190684 0)
(2.99787 0.000433105 0)
(2.99532 0.0011164 0)
(2.98717 0.0025924 0)
(2.97182 0.00662381 0)
(2.91852 0.0158928 0)
(2.78561 0.0437989 0)
(2.42613 0.115487 0)
(1.40414 0.335218 0)
(0.760629 0.540206 0)
(0.757851 0.585982 0)
(0.786098 0.594044 0)
(0.782564 0.626409 0)
(0.759318 0.681891 0)
(0.751725 0.759771 0)
(0.780247 0.863632 0)
(0.8687 0.992327 0)
(1.04547 1.1212 0)
(3 6.3693e-08 0)
(3 4.97447e-07 0)
(2.99999 1.52861e-06 0)
(2.99998 4.63576e-06 0)
(2.99995 1.10114e-05 0)
(2.99988 2.95157e-05 0)
(2.9997 6.68318e-05 0)
(2.99935 0.000174717 0)
(2.99825 0.000396262 0)
(2.99632 0.00100775 0)
(2.98924 0.0023847 0)
(2.97761 0.005843 0)
(2.93184 0.0143148 0)
(2.82599 0.0381309 0)
(2.52404 0.10134 0)
(1.5998 0.291334 0)
(0.880619 0.596035 0)
(0.780019 0.630932 0)
(0.807111 0.643026 0)
(0.825359 0.665254 0)
(0.824133 0.714332 0)
(0.834863 0.783619 0)
(0.879221 0.870066 0)
(0.974441 0.968427 0)
(1.1424 1.05278 0)
(3 5.42245e-08 0)
(3 4.20325e-07 0)
(2.99999 1.29339e-06 0)
(2.99998 3.89287e-06 0)
(2.99996 9.21691e-06 0)
(2.9999 2.44437e-05 0)
(2.99975 5.48805e-05 0)
(2.99946 0.000143538 0)
(2.99856 0.000311122 0)
(2.99698 0.000861586 0)
(2.99118 0.0017487 0)
(2.98187 0.00542445 0)
(2.94429 0.0112043 0)
(2.86241 0.0360449 0)
(2.61635 0.0885525 0)
(1.83514 0.274619 0)
(1.04796 0.634273 0)
(0.810827 0.660822 0)
(0.829602 0.675323 0)
(0.86059 0.691094 0)
(0.880619 0.734541 0)
(0.905792 0.795559 0)
(0.959027 0.866081 0)
(1.05393 0.939649 0)
(1.20546 0.997787 0)
(3 4.81026e-08 0)
(3 3.7258e-07 0)
(2.99999 1.14743e-06 0)
(2.99999 3.45324e-06 0)
(2.99997 8.17981e-06 0)
(2.99992 2.16971e-05 0)
(2.9998 4.86841e-05 0)
(2.99956 0.000127414 0)
(2.99885 0.000276276 0)
(2.99752 0.000770838 0)
(2.99301 0.00152861 0)
(2.98556 0.00501536 0)
(2.95628 0.00971458 0)
(2.89445 0.0340037 0)
(2.70507 0.0800213 0)
(2.10024 0.260191 0)
(1.25392 0.654202 0)
(0.873336 0.694747 0)
(0.87018 0.705099 0)
(0.901316 0.713671 0)
(0.935151 0.746601 0)
(0.968891 0.798855 0)
(1.02479 0.857303 0)
(1.11504 0.913328 0)
(1.24911 0.954707 0)
(3 4.21656e-08 0)
(3 3.27e-07 0)
(3 1.00704e-06 0)
(2.99999 3.03326e-06 0)
(2.99997 7.19262e-06 0)
(2.99994 1.90891e-05 0)
(2.99984 4.29417e-05 0)
(2.99965 0.000111723 0)
(2.9991 0.000246859 0)
(2.99803 0.000660514 0)
(2.9947 0.0013851 0)
(2.98874 0.00417532 0)
(2.96764 0.00832093 0)
(2.92425 0.0270899 0)
(2.78973 0.0665821 0)
(2.37769 0.199818 0)
(1.54453 0.554795 0)
(0.999492 0.709918 0)
(0.941605 0.734409 0)
(0.955628 0.744878 0)
(0.992518 0.762584 0)
(1.03045 0.801823 0)
(1.08393 0.848909 0)
(1.16591 0.892197 0)
(1.28272 0.922448 0)
(3 3.61457e-08 0)
(3 2.79693e-07 0)
(3 8.61562e-07 0)
(2.99999 2.58983e-06 0)
(2.99998 6.14506e-06 0)
(2.99995 1.62552e-05 0)
(2.99988 3.66509e-05 0)
(2.99973 9.46249e-05 0)
(2.99931 0.000210651 0)
(2.99847 0.000545512 0)
(2.99593 0.00120034 0)
(2.99137 0.00322129 0)
(2.97492 0.0069202 0)
(2.94506 0.0195893 0)
(2.83636 0.047793 0)
(2.53906 0.136201 0)
(1.84204 0.382172 0)
(1.1234 0.729552 0)
(0.995254 0.764716 0)
(1.00024 0.780144 0)
(1.03831 0.7858 0)
(1.08369 0.809827 0)
(1.1362 0.844242 0)
(1.21013 0.876844 0)
(1.31164 0.899146 0)
(3 2.00696e-08 0)
(3 2.66426e-07 0)
(3 6.5656e-07 0)
(2.99999 2.39369e-06 0)
(2.99998 4.7659e-06 0)
(2.99996 1.49528e-05 0)
(2.99991 2.85716e-05 0)
(2.9998 8.7185e-05 0)
(2.99948 0.00016411 0)
(2.99885 0.000505851 0)
(2.99692 0.000913589 0)
(2.99353 0.0030756 0)
(2.98102 0.00477689 0)
(2.95921 0.0200737 0)
(2.87763 0.0304944 0)
(2.66537 0.133154 0)
(2.12832 0.296945 0)
(1.29416 0.765311 0)
(1.03871 0.80641 0)
(1.03533 0.814223 0)
(1.07286 0.811866 0)
(1.12646 0.81931 0)
(1.1806 0.842064 0)
(1.24867 0.86612 0)
(1.33772 0.882193 0)
(3 1.61549e-08 0)
(3 2.0644e-07 0)
(3 5.15645e-07 0)
(3 1.85973e-06 0)
(2.99999 3.73836e-06 0)
(2.99997 1.1606e-05 0)
(2.99994 2.23473e-05 0)
(2.99984 6.74661e-05 0)
(2.99965 0.000127922 0)
(2.9991 0.000389753 0)
(2.99807 0.00071401 0)
(2.9946 0.00235353 0)
(2.98887 0.00380543 0)
(2.96692 0.0153432 0)
(2.92275 0.023771 0)
(2.78296 0.100197 0)
(2.37767 0.2299 0)
(1.59538 0.658574 0)
(1.15738 0.804187 0)
(1.10074 0.829173 0)
(1.11735 0.83498 0)
(1.16803 0.832347 0)
(1.22411 0.843974 0)
(1.28581 0.860371 0)
(1.3632 0.87127 0)
(3 2.86967e-08 0)
(3 1.11126e-07 0)
(3 5.06636e-07 0)
(3 1.10324e-06 0)
(2.99999 3.53514e-06 0)
(2.99998 6.9968e-06 0)
(2.99995 2.09673e-05 0)
(2.99988 4.05087e-05 0)
(2.99974 0.00012062 0)
(2.99934 0.000227171 0)
(2.99856 0.000709728 0)
(2.99611 0.0011993 0)
(2.99184 0.0044356 0)
(2.97601 0.0063441 0)
(2.94764 0.0277753 0)
(2.84474 0.0477261 0)
(2.56574 0.179767 0)
(1.91201 0.447256 0)
(1.27475 0.805076 0)
(1.1539 0.845905 0)
(1.15712 0.862066 0)
(1.20154 0.856592 0)
(1.26072 0.853707 0)
(1.32006 0.860223 0)
(1.38862 0.865915 0)
(3 1.68591e-08 0)
(3 9.18951e-08 0)
(3 3.41363e-07 0)
(3 8.76206e-07 0)
(2.99999 2.4042e-06 0)
(2.99999 5.51057e-06 0)
(2.99997 1.4248e-05 0)
(2.99993 3.18446e-05 0)
(2.99981 8.14307e-05 0)
(2.99959 0.000180475 0)
(2.99888 0.000466128 0)
(2.9977 0.00100845 0)
(2.99316 0.00278144 0)
(2.98603 0.00562129 0)
(2.9576 0.0177262 0)
(2.89892 0.0372846 0)
(2.71435 0.120558 0)
(2.17386 0.338394 0)
(1.49261 0.776111 0)
(1.22213 0.862726 0)
(1.20163 0.883432 0)
(1.22932 0.882004 0)
(1.28683 0.869976 0)
(1.34863 0.866333 0)
(1.41277 0.866077 0)
(3 9.10104e-09 0)
(3 7.05677e-08 0)
(3 2.17519e-07 0)
(3 6.53544e-07 0)
(3 1.54887e-06 0)
(2.99999 4.08263e-06 0)
(2.99998 9.16647e-06 0)
(2.99994 2.35623e-05 0)
(2.99987 5.2042e-05 0)
(2.99966 0.000135664 0)
(2.99925 0.000288278 0)
(2.99804 0.000817126 0)
(2.99568 0.00161136 0)
(2.98844 0.00512898 0)
(2.97395 0.010305 0)
(2.92876 0.0322255 0)
(2.81714 0.0807787 0)
(2.5044 0.226583 0)
(1.76064 0.649986 0)
(1.3379 0.856173 0)
(1.26087 0.889942 0)
(1.2669 0.900486 0)
(1.3132 0.888978 0)
(1.37432 0.877335 0)
(1.43547 0.871415 0)
(3 1.10115e-08 0)
(3 4.30809e-08 0)
(3 1.95208e-07 0)
(3 4.2909e-07 0)
(3 1.36896e-06 0)
(2.99999 2.7379e-06 0)
(2.99998 8.16005e-06 0)
(2.99996 1.59924e-05 0)
(2.9999 4.71046e-05 0)
(2.99979 9.17458e-05 0)
(2.99945 0.000271655 0)
(2.9988 0.000525674 0)
(2.99675 0.00158988 0)
(2.99327 0.00302723 0)
(2.98021 0.00957954 0)
(2.95754 0.0186343 0)
(2.87289 0.0600911 0)
(2.6593 0.144833 0)
(2.1174 0.423478 0)
(1.48099 0.844505 0)
(1.31316 0.904322 0)
(1.30296 0.918329 0)
(1.3355 0.910217 0)
(1.39453 0.891329 0)
(1.4558 0.879647 0)
(3 4.98545e-09 0)
(3 3.86369e-08 0)
(3 1.19119e-07 0)
(3 3.57943e-07 0)
(3 8.49289e-07 0)
(3 2.23913e-06 0)
(2.99999 5.04428e-06 0)
(2.99997 1.29404e-05 0)
(2.99993 2.8762e-05 0)
(2.99985 7.35617e-05 0)
(2.99961 0.000162391 0)
(2.99914 0.000422072 0)
(2.99777 0.00090394 0)
(2.99511 0.00253737 0)
(2.98692 0.0050727 0)
(2.97083 0.0159992 0)
(2.91956 0.0330856 0)
(2.7899 0.109982 0)
(2.44898 0.278166 0)
(1.73752 0.733898 0)
(1.40077 0.896124 0)
(1.34999 0.923912 0)
(1.3628 0.927989 0)
(1.41297 0.909829 0)
(1.47457 0.890417 0)
(3 2.89084e-09 0)
(3 3.16715e-08 0)
(3 8.38506e-08 0)
(3 2.8652e-07 0)
(3 6.03927e-07 0)
(3 1.78403e-06 0)
(2.99999 3.60264e-06 0)
(2.99998 1.03167e-05 0)
(2.99995 2.06379e-05 0)
(2.9999 5.87764e-05 0)
(2.99974 0.000117023 0)
(2.99942 0.000334662 0)
(2.99851 0.000661069 0)
(2.99674 0.00192878 0)
(2.99134 0.0037163 0)
(2.98109 0.0115423 0)
(2.94771 0.0220152 0)
(2.86861 0.0739806 0)
(2.65162 0.16784 0)
(2.04211 0.517256 0)
(1.54556 0.859713 0)
(1.40929 0.9226 0)
(1.39915 0.939156 0)
(1.43138 0.929822 0)
(1.4886 0.904277 0)
(3 2.00636e-09 0)
(3 2.16117e-08 0)
(3 5.75856e-08 0)
(3 1.95877e-07 0)
(3 4.14814e-07 0)
(3 1.2188e-06 0)
(2.99999 2.4712e-06 0)
(2.99999 7.03212e-06 0)
(2.99997 1.4122e-05 0)
(2.99993 3.99316e-05 0)
(2.99984 7.98439e-05 0)
(2.99959 0.000226416 0)
(2.99909 0.00045017 0)
(2.99765 0.00129613 0)
(2.99489 0.00253159 0)
(2.98621 0.00769246 0)
(2.96957 0.0147012 0)
(2.9151 0.0473933 0)
(2.7803 0.109575 0)
(2.40878 0.326632 0)
(1.76597 0.771443 0)
(1.48671 0.916545 0)
(1.44202 0.943903 0)
(1.4534 0.946845 0)
(1.50032 0.925002 0)
(3 2.28789e-09 0)
(3 1.23091e-08 0)
(3 4.58818e-08 0)
(3 1.17639e-07 0)
(3 3.23142e-07 0)
(3 7.4006e-07 0)
(3 1.91361e-06 0)
(2.99999 4.27682e-06 0)
(2.99998 1.09162e-05 0)
(2.99995 2.42408e-05 0)
(2.99989 6.1793e-05 0)
(2.99973 0.00013677 0)
(2.99941 0.000350352 0)
(2.99848 0.000771436 0)
(2.99666 0.00201456 0)
(2.99124 0.00438288 0)
(2.98059 0.0119875 0)
(2.94761 0.0266916 0)
(2.86861 0.076365 0)
(2.65202 0.197889 0)
(2.06871 0.558847 0)
(1.6205 0.882976 0)
(1.49801 0.943378 0)
(1.48626 0.956905 0)
(1.51316 0.946039 0)
(3 1.80266e-09 0)
(3 7.8846e-09 0)
(3 3.3314e-08 0)
(3 7.6935e-08 0)
(3 2.32301e-07 0)
(3 4.84937e-07 0)
(3 1.36819e-06 0)
(2.99999 2.79664e-06 0)
(2.99999 7.76897e-06 0)
(2.99997 1.57979e-05 0)
(2.99993 4.37695e-05 0)
(2.99983 8.8678e-05 0)
(2.99962 0.000246486 0)
(2.99904 0.000496549 0)
(2.9979 0.00139891 0)
(2.99448 0.00277453 0)
(2.98823 0.00814892 0)
(2.96725 0.0161314 0)
(2.92366 0.0498789 0)
(2.79266 0.113635 0)
(2.4009 0.357127 0)
(1.85992 0.76337 0)
(1.58556 0.92119 0)
(1.53369 0.952978 0)
(1.53775 0.957937 0)
(3 1.16071e-09 0)
(3 5.0884e-09 0)
(3 2.14484e-08 0)
(3 4.96979e-08 0)
(3 1.49638e-07 0)
(3 3.13412e-07 0)
(3 8.81124e-07 0)
(3 1.80757e-06 0)
(2.99999 4.99935e-06 0)
(2.99998 1.02127e-05 0)
(2.99995 2.81317e-05 0)
(2.9999 5.73644e-05 0)
(2.99975 0.000158117 0)
(2.99944 0.000321314 0)
(2.99856 0.000893943 0)
(2.99684 0.00178888 0)
(2.99177 0.00522078 0)
(2.9815 0.00990514 0)
(2.95101 0.0318806 0)
(2.87826 0.066109 0)
(2.67198 0.208195 0)
(2.14795 0.548327 0)
(1.71989 0.881214 0)
(1.59072 0.949744 0)
(1.57195 0.964891 0)
(3 5.08695e-10 0)
(3 3.94352e-09 0)
(3 1.21476e-08 0)
(3 3.64546e-08 0)
(3 8.64053e-08 0)
(3 2.27182e-07 0)
(3 5.11245e-07 0)
(3 1.30583e-06 0)
(2.99999 2.90397e-06 0)
(2.99999 7.37126e-06 0)
(2.99997 1.6335e-05 0)
(2.99994 4.14591e-05 0)
(2.99984 9.16631e-05 0)
(2.99965 0.000233493 0)
(2.99912 0.000514812 0)
(2.99809 0.00132431 0)
(2.995 0.00292149 0)
(2.98939 0.00759738 0)
(2.97056 0.0175111 0)
(2.93271 0.0455626 0)
(2.81733 0.117792 0)
(2.47745 0.333102 0)
(1.96436 0.741342 0)
(1.68257 0.916903 0)
(1.62142 0.955729 0)
(3 2.77915e-10 0)
(3 2.7212e-09 0)
(3 7.54294e-09 0)
(3 2.46538e-08 0)
(3 5.384e-08 0)
(3 1.52321e-07 0)
(3 3.17627e-07 0)
(3 8.69705e-07 0)
(3 1.79583e-06 0)
(2.99999 4.87618e-06 0)
(2.99998 1.00456e-05 0)
(2.99996 2.7213e-05 0)
(2.99991 5.59517e-05 0)
(2.99979 0.000151703 0)
(2.99947 0.000310627 0)
(2.99885 0.000849719 0)
(2.99698 0.00171193 0)
(2.99369 0.00490129 0)
(2.98211 0.00936303 0)
(2.96177 0.0296745 0)
(2.891 0.0603788 0)
(2.70541 0.196 0)
(2.27944 0.484866 0)
(1.81222 0.872562 0)
(1.67242 0.951135 0)
(3 2.03745e-10 0)
(3 1.57199e-09 0)
(3 4.84789e-09 0)
(3 1.44847e-08 0)
(3 3.43226e-08 0)
(3 8.97219e-08 0)
(3 2.01681e-07 0)
(3 5.11567e-07 0)
(3 1.13617e-06 0)
(3 2.86041e-06 0)
(2.99999 6.33317e-06 0)
(2.99998 1.59114e-05 0)
(2.99995 3.51622e-05 0)
(2.99987 8.8365e-05 0)
(2.99971 0.000194722 0)
(2.99926 0.000493252 0)
(2.99837 0.00106949 0)
(2.99578 0.00283278 0)
(2.99091 0.00584893 0)
(2.97556 0.0170536 0)
(2.94351 0.0360258 0)
(2.84829 0.108043 0)
(2.58648 0.292124 0)
(2.09209 0.679752 0)
(1.76852 0.909631 0)
(3 1.77362e-10 0)
(3 7.90505e-10 0)
(3 3.28361e-09 0)
(3 7.70941e-09 0)
(3 2.28558e-08 0)
(3 4.8385e-08 0)
(3 1.33737e-07 0)
(3 2.76842e-07 0)
(3 7.52139e-07 0)
(3 1.54926e-06 0)
(2.99999 4.18979e-06 0)
(2.99999 8.61881e-06 0)
(2.99997 2.32869e-05 0)
(2.99992 4.78388e-05 0)
(2.99981 0.000129476 0)
(2.99958 0.000265358 0)
(2.99893 0.000723794 0)
(2.99767 0.00147097 0)
(2.99393 0.00414161 0)
(2.98692 0.00818987 0)
(2.9645 0.0243847 0)
(2.91612 0.0523323 0)
(2.77393 0.154587 0)
(2.38506 0.408692 0)
(1.94629 0.805351 0)
(3 7.60252e-11 0)
(3 5.87318e-10 0)
(3 1.81143e-09 0)
(3 5.4183e-09 0)
(3 1.2838e-08 0)
(3 3.35777e-08 0)
(3 7.54439e-08 0)
(3 1.91433e-07 0)
(3 4.24872e-07 0)
(3 1.07036e-06 0)
(3 2.36839e-06 0)
(2.99999 5.95765e-06 0)
(2.99998 1.31665e-05 0)
(2.99995 3.31347e-05 0)
(2.99989 7.31153e-05 0)
(2.99975 0.000184444 0)
(2.99937 0.000406101 0)
(2.99863 0.00103311 0)
(2.9965 0.00225704 0)
(2.99243 0.00593493 0)
(2.97984 0.01273 0)
(2.95497 0.03529 0)
(2.87856 0.0831039 0)
(2.66478 0.242074 0)
(2.23148 0.593955 0)
(3 4.06554e-11 0)
(3 3.83277e-10 0)
(3 1.0788e-09 0)
(3 3.47406e-09 0)
(3 7.67429e-09 0)
(3 2.13895e-08 0)
(3 4.50547e-08 0)
(3 1.21457e-07 0)
(3 2.53216e-07 0)
(3 6.7667e-07 0)
(3 1.40807e-06 0)
(3 3.75168e-06 0)
(2.99999 7.80575e-06 0)
(2.99997 2.07702e-05 0)
(2.99993 4.31913e-05 0)
(2.99986 0.000114961 0)
(2.99964 0.000238494 0)
(2.99921 0.00063779 0)
(2.99801 0.00131201 0)
(2.99566 0.00359904 0)
(2.98867 0.00716923 0)
(2.97506 0.0212102 0)
(2.93346 0.0422808 0)
(2.83007 0.133612 0)
(2.56273 0.326809 0)
(3 2.39209e-11 0)
(3 2.24571e-10 0)
(3 6.3341e-10 0)
(3 2.03716e-09 0)
(3 4.50473e-09 0)
(3 1.25284e-08 0)
(3 2.63958e-08 0)
(3 7.09646e-08 0)
(3 1.47892e-07 0)
(3 3.94085e-07 0)
(3 8.19302e-07 0)
(3 2.17695e-06 0)
(2.99999 4.52303e-06 0)
(2.99998 1.20042e-05 0)
(2.99997 2.49182e-05 0)
(2.99991 6.61493e-05 0)
(2.99981 0.000136984 0)
(2.99952 0.000364917 0)
(2.99897 0.000751779 0)
(2.99731 0.00203158 0)
(2.9944 0.00413106 0)
(2.98439 0.0116247 0)
(2.96683 0.0238951 0)
(2.90673 0.0693685 0)
(2.75829 0.172445 0)
(3 2.30265e-11 0)
(3 1.06601e-10 0)
(3 4.32358e-10 0)
(3 1.03162e-09 0)
(3 2.99848e-09 0)
(3 6.43304e-09 0)
(3 1.74307e-08 0)
(3 3.65298e-08 0)
(3 9.72414e-08 0)
(3 2.02717e-07 0)
(3 5.36812e-07 0)
(3 1.1179e-06 0)
(3 2.9538e-06 0)
(2.99999 6.14865e-06 0)
(2.99998 1.62283e-05 0)
(2.99995 3.37341e-05 0)
(2.99989 8.90901e-05 0)
(2.99972 0.000184571 0)
(2.99939 0.000491831 0)
(2.99848 0.00100038 0)
(2.99665 0.00279215 0)
(2.99151 0.00539104 0)
(2.98078 0.0165299 0)
(2.95088 0.0319645 0)
(2.8784 0.102213 0)
(3 1.33445e-11 0)
(3 6.25632e-11 0)
(3 2.52424e-10 0)
(3 6.04201e-10 0)
(3 1.7506e-09 0)
(3 3.7655e-09 0)
(3 1.01722e-08 0)
(3 2.1371e-08 0)
(3 5.67281e-08 0)
(3 1.18559e-07 0)
(3 3.13173e-07 0)
(3 6.53929e-07 0)
(3 1.72446e-06 0)
(3 3.60075e-06 0)
(2.99999 9.48995e-06 0)
(2.99997 1.98082e-05 0)
(2.99994 5.22379e-05 0)
(2.99986 0.000108876 0)
(2.99965 0.00028803 0)
(2.99923 0.000598702 0)
(2.99806 0.00159571 0)
(2.99579 0.00332331 0)
(2.98901 0.00895634 0)
(2.97607 0.0192174 0)
(2.93617 0.0523884 0)
(3 5.39698e-12 0)
(3 4.13788e-11 0)
(3 1.27703e-10 0)
(3 3.80428e-10 0)
(3 9.00417e-10 0)
(3 2.3404e-09 0)
(3 5.24506e-09 0)
(3 1.32034e-08 0)
(3 2.92012e-08 0)
(3 7.29001e-08 0)
(3 1.60675e-07 0)
(3 4.00162e-07 0)
(3 8.8105e-07 0)
(3 2.19246e-06 0)
(2.99999 4.8243e-06 0)
(2.99999 1.20027e-05 0)
(2.99996 2.63868e-05 0)
(2.99992 6.56915e-05 0)
(2.9998 0.000144187 0)
(2.99957 0.000360111 0)
(2.99892 0.000787443 0)
(2.99763 0.00199377 0)
(2.99402 0.00431299 0)
(2.98668 0.0113779 0)
(2.966 0.0246784 0)
(3 2.81133e-12 0)
(3 2.52102e-11 0)
(3 7.22496e-11 0)
(3 2.28557e-10 0)
(3 5.11072e-10 0)
(3 1.39872e-09 0)
(3 2.97578e-09 0)
(3 7.86785e-09 0)
(3 1.6548e-08 0)
(3 4.33457e-08 0)
(3 9.09322e-08 0)
(3 2.37464e-07 0)
(3 4.9797e-07 0)
(3 1.29867e-06 0)
(3 2.72358e-06 0)
(2.99999 7.09832e-06 0)
(2.99998 1.48848e-05 0)
(2.99996 3.88007e-05 0)
(2.99989 8.12843e-05 0)
(2.99977 0.000212271 0)
(2.99942 0.00044377 0)
(2.99873 0.00116615 0)
(2.9968 0.00242631 0)
(2.99306 0.00648544 0)
(2.98195 0.013685 0)
(3 1.5278e-12 0)
(3 1.38638e-11 0)
(3 3.97659e-11 0)
(3 1.25816e-10 0)
(3 2.8164e-10 0)
(3 7.69852e-10 0)
(3 1.63878e-09 0)
(3 4.32449e-09 0)
(3 9.09753e-09 0)
(3 2.37767e-08 0)
(3 4.98816e-08 0)
(3 1.29953e-07 0)
(3 2.72497e-07 0)
(3 7.08862e-07 0)
(3 1.48654e-06 0)
(3 3.86328e-06 0)
(2.99999 8.10238e-06 0)
(2.99998 2.10454e-05 0)
(2.99995 4.4118e-05 0)
(2.99987 0.000114649 0)
(2.99971 0.000239942 0)
(2.99929 0.000625961 0)
(2.99845 0.00130375 0)
(2.99608 0.00345803 0)
(2.99153 0.00711926 0)
(3 1.19702e-12 0)
(3 6.55279e-12 0)
(3 2.43028e-11 0)
(3 6.2289e-11 0)
(3 1.68772e-10 0)
(3 3.84794e-10 0)
(3 9.75435e-10 0)
(3 2.16378e-09 0)
(3 5.39194e-09 0)
(3 1.18763e-08 0)
(3 2.94486e-08 0)
(3 6.47343e-08 0)
(3 1.60215e-07 0)
(3 3.51934e-07 0)
(3 8.70057e-07 0)
(3 1.91022e-06 0)
(2.99999 4.71854e-06 0)
(2.99999 1.03514e-05 0)
(2.99997 2.55599e-05 0)
(2.99993 5.59896e-05 0)
(2.99984 0.000138361 0)
(2.99962 0.00030247 0)
(2.99916 0.000751058 0)
(2.99791 0.00163247 0)
(2.99549 0.00413267 0)
(3 7.34247e-13 0)
(3 3.5343e-12 0)
(3 1.39564e-11 0)
(3 3.38224e-11 0)
(3 9.61785e-11 0)
(3 2.0886e-10 0)
(3 5.53502e-10 0)
(3 1.17245e-09 0)
(3 3.05067e-09 0)
(3 6.42294e-09 0)
(3 1.66226e-08 0)
(3 3.49443e-08 0)
(3 9.02538e-08 0)
(3 1.89671e-07 0)
(3 4.89318e-07 0)
(3 1.02831e-06 0)
(3 2.65043e-06 0)
(2.99999 5.5696e-06 0)
(2.99998 1.4346e-05 0)
(2.99996 3.01287e-05 0)
(2.99992 7.76169e-05 0)
(2.9998 0.000162697 0)
(2.99956 0.000420267 0)
(2.9989 0.000876741 0)
(2.99759 0.00229578 0)
(3 3.70168e-13 0)
(3 1.87455e-12 0)
(3 7.33616e-12 0)
(3 1.78584e-11 0)
(3 5.09136e-11 0)
(3 1.1074e-10 0)
(3 2.9351e-10 0)
(3 6.22085e-10 0)
(3 1.61732e-09 0)
(3 3.40646e-09 0)
(3 8.80722e-09 0)
(3 1.8523e-08 0)
(3 4.77965e-08 0)
(3 1.00512e-07 0)
(3 2.59103e-07 0)
(3 5.4502e-07 0)
(3 1.40398e-06 0)
(3 2.95406e-06 0)
(2.99999 7.6066e-06 0)
(2.99998 1.60032e-05 0)
(2.99996 4.12253e-05 0)
(2.9999 8.66537e-05 0)
(2.99976 0.000223777 0)
(2.99947 0.000469571 0)
(2.99869 0.00122016 0)
(3 1.27491e-13 0)
(3 1.15788e-12 0)
(3 3.47094e-12 0)
(3 1.04103e-11 0)
(3 2.46096e-11 0)
(3 6.37047e-11 0)
(3 1.42509e-10 0)
(3 3.56355e-10 0)
(3 7.85869e-10 0)
(3 1.94662e-09 0)
(3 4.27594e-09 0)
(3 1.0563e-08 0)
(3 2.31765e-08 0)
(3 5.71998e-08 0)
(3 1.25458e-07 0)
(3 3.09493e-07 0)
(3 6.78674e-07 0)
(3 1.67377e-06 0)
(3 3.6688e-06 0)
(2.99999 9.04847e-06 0)
(2.99998 1.9815e-05 0)
(2.99995 4.89125e-05 0)
(2.99988 0.000106952 0)
(2.99973 0.000264807 0)
(2.99933 0.000577585 0)
(3 7.38132e-14 0)
(3 6.228e-13 0)
(3 1.83917e-12 0)
(3 5.77086e-12 0)
(3 1.29748e-11 0)
(3 3.49476e-11 0)
(3 7.47637e-11 0)
(3 1.94383e-10 0)
(3 4.10843e-10 0)
(3 1.05777e-09 0)
(3 2.22898e-09 0)
(3 5.71955e-09 0)
(3 1.20442e-08 0)
(3 3.0856e-08 0)
(3 6.49726e-08 0)
(3 1.66257e-07 0)
(3 3.50111e-07 0)
(3 8.94841e-07 0)
(3 1.88435e-06 0)
(3 4.81049e-06 0)
(2.99999 1.01251e-05 0)
(2.99997 2.58259e-05 0)
(2.99994 5.42786e-05 0)
(2.99986 0.000138495 0)
(2.99966 0.000290313 0)
(3 3.05996e-14 0)
(3 2.63082e-13 0)
(3 9.17338e-13 0)
(3 2.74018e-12 0)
(3 6.59867e-12 0)
(3 1.70693e-11 0)
(3 3.82506e-11 0)
(3 9.52186e-11 0)
(3 2.09885e-10 0)
(3 5.17682e-10 0)
(3 1.13638e-09 0)
(3 2.7934e-09 0)
(3 6.12317e-09 0)
(3 1.50305e-08 0)
(3 3.2929e-08 0)
(3 8.07538e-08 0)
(3 1.76858e-07 0)
(3 4.3333e-07 0)
(3 9.48728e-07 0)
(3 2.3224e-06 0)
(2.99999 5.08229e-06 0)
(2.99999 1.24311e-05 0)
(2.99997 2.71796e-05 0)
(2.99993 6.64649e-05 0)
(2.99984 0.000145081 0)
(3 3.54387e-14 0)
(3 1.34823e-13 0)
(3 4.98478e-13 0)
(3 1.13238e-12 0)
(3 3.28977e-12 0)
(3 6.97407e-12 0)
(3 1.88647e-11 0)
(3 3.8864e-11 0)
(3 1.03235e-10 0)
(3 2.11148e-10 0)
(3 5.56994e-10 0)
(3 1.1368e-09 0)
(3 2.99127e-09 0)
(3 6.10001e-09 0)
(3 1.60307e-08 0)
(3 3.26707e-08 0)
(3 8.5787e-08 0)
(3 1.74713e-07 0)
(3 4.58473e-07 0)
(3 9.32878e-07 0)
(3 2.44704e-06 0)
(2.99999 4.97266e-06 0)
(2.99998 1.30452e-05 0)
(2.99996 2.64542e-05 0)
(2.9999 6.94935e-05 0)
(3 2.77292e-14 0)
(3 7.54187e-14 0)
(3 1.81138e-13 0)
(3 4.21882e-13 0)
(3 9.01638e-13 0)
(3 2.28856e-12 0)
(3 4.98416e-12 0)
(3 1.23628e-11 0)
(3 2.71046e-11 0)
(3 6.6512e-11 0)
(3 1.45331e-10 0)
(3 3.55658e-10 0)
(3 7.76788e-10 0)
(3 1.8984e-09 0)
(3 4.14433e-09 0)
(3 1.01122e-08 0)
(3 2.20597e-08 0)
(3 5.37324e-08 0)
(3 1.17127e-07 0)
(3 2.84756e-07 0)
(3 6.20181e-07 0)
(2.99999 1.50462e-06 0)
(2.99999 3.27346e-06 0)
(2.99997 7.92416e-06 0)
(2.99993 1.72137e-05 0)
(1.28516 1.1091 0)
(1.72706 0.910047 0)
(1.93426 0.640403 0)
(1.96989 0.365478 0)
(1.91878 0.136465 0)
(1.81478 -0.0162373 0)
(1.70797 -0.056261 0)
(1.65349 -0.0245697 0)
(1.64456 0.0188781 0)
(1.64834 0.0412542 0)
(1.65235 0.0395727 0)
(1.65366 0.0277965 0)
(1.65277 0.016797 0)
(1.6505 0.00848431 0)
(1.64756 0.00601894 0)
(1.64714 0.00733625 0)
(1.6492 0.00929396 0)
(1.65196 0.0108112 0)
(1.65528 0.0115263 0)
(1.65954 0.0112906 0)
(1.66433 0.00976452 0)
(1.66918 0.0076662 0)
(1.67431 0.00605804 0)
(1.67995 0.00522343 0)
(1.68611 0.00482113 0)
(1.69269 0.00451227 0)
(1.69962 0.00413148 0)
(1.70683 0.00366411 0)
(1.7143 0.00316561 0)
(1.72202 0.00269364 0)
(1.72997 0.00228011 0)
(1.73813 0.00193169 0)
(1.74646 0.0016388 0)
(1.75491 0.00139092 0)
(1.76339 0.00118574 0)
(1.77181 0.00102043 0)
(1.77949 0.000934911 0)
(1.78552 0.00112077 0)
(1.79009 0.00130516 0)
(1.79279 0.00158091 0)
(1.79093 0.0021878 0)
(1.77837 0.00364236 0)
(1.74134 0.00720174 0)
(1.6482 0.0151629 0)
(1.42404 0.0328347 0)
(0.917562 0.0743039 0)
(0.276091 0.159576 0)
(-0.0304154 0.09772 0)
(0.0415139 -0.0990415 0)
(0.196397 -0.155784 0)
(0.337858 -0.138119 0)
(0.453395 -0.107587 0)
(0.556904 -0.0849469 0)
(0.650751 -0.070742 0)
(0.733213 -0.0596142 0)
(0.803863 -0.0481311 0)
(0.872444 -0.0401764 0)
(0.940702 -0.0382116 0)
(1.00341 -0.0359299 0)
(1.06013 -0.0323931 0)
(1.11184 -0.0289296 0)
(1.15966 -0.0258902 0)
(1.20453 -0.0232766 0)
(1.24705 -0.0210249 0)
(1.28758 -0.0190984 0)
(1.3264 -0.0174351 0)
(1.36372 -0.0159915 0)
(1.3997 -0.0147047 0)
(1.43447 -0.013538 0)
(1.46812 -0.0124521 0)
(1.50077 -0.0114422 0)
(1.53248 -0.0104883 0)
(1.56335 -0.00959371 0)
(1.59343 -0.00873916 0)
(1.62279 -0.00793502 0)
(1.65145 -0.00716449 0)
(1.67947 -0.00644354 0)
(1.70686 -0.00575262 0)
(1.73369 -0.00510629 0)
(1.75996 -0.00447077 0)
(1.7857 -0.00390966 0)
(1.81095 -0.00341288 0)
(1.83577 -0.0029818 0)
(1.86016 -0.00260259 0)
(1.88416 -0.00229006 0)
(1.90775 -0.00204726 0)
(1.93094 -0.00187205 0)
(1.95378 -0.00168259 0)
(1.97631 -0.00145705 0)
(1.99854 -0.00120982 0)
(2.0205 -0.000969021 0)
(2.04214 -0.000744143 0)
(2.06348 -0.000528786 0)
(2.08447 -0.000325899 0)
(2.1051 -0.000110939 0)
(2.12526 0.000119481 0)
(2.14472 0.000383359 0)
(2.16276 0.000797996 0)
(2.17813 0.00117232 0)
(2.18976 0.00229506 0)
(1.36548 1.01967 0)
(1.69371 0.740271 0)
(1.87888 0.424982 0)
(1.96916 0.150679 0)
(2.01825 -0.0463246 0)
(2.04567 -0.151821 0)
(2.05469 -0.162229 0)
(2.05366 -0.124551 0)
(2.04123 -0.0780725 0)
(2.02048 -0.0409811 0)
(2.00375 -0.020245 0)
(1.99928 -0.0139969 0)
(2.00086 -0.0158622 0)
(2.00338 -0.0203504 0)
(2.00587 -0.0222424 0)
(2.00748 -0.0218054 0)
(2.00873 -0.0204565 0)
(2.00984 -0.0185348 0)