/*--------------------------------*- C++ -*----------------------------------*\
| =========                 |                                                 |
| \\      /  F ield         | OpenFOAM: The Open Source CFD Toolbox           |
|  \\    /   O peration     | Version:  2112                                  |
|   \\  /    A nd           | Website:  www.openfoam.com                      |
|    \\/     M anipulation  |                                                 |
\*---------------------------------------------------------------------------*/
FoamFile
{
    version     2.0;
    format      ascii;
    arch        "LSB;label=32;scalar=64";
    class       volScalarField;
    location    "7";
    object      p;
}
// * * * * * * * * * * * * * * * * * * * * * * * * * * * * * * * * * * * * * //

dimensions      [0 2 -2 0 0 0 0];

internalField   nonuniform List<scalar> 
400
(
-5.4022933e-07
-0.00064166847
-0.0013060024
-0.0018129513
-0.0020427522
-0.0019385145
-0.00147904
-0.00065972993
0.00050464011
0.0019650289
0.0036231772
0.0053242253
0.006869325
0.0080459157
0.0086790114
0.0086899882
0.0081393435
0.0072327312
0.0062902373
0.0057422133
0.00062609217
-3.8393959e-05
-0.00052975844
-0.00085978661
-0.00098757924
-0.00087516396
-0.00050355878
0.00013657296
0.0010405198
0.0021753491
0.0034668515
0.0048055031
0.0060293117
0.0069708736
0.0074919325
0.0075302593
0.0071332803
0.0064630349
0.0057537245
0.0051967416
0.0013398996
0.00040822795
-0.00010954376
-0.00040622297
-0.0005235538
-0.00044617813
-0.00016061477
0.00034832348
0.0010902908
0.0020525759
0.0031854186
0.0043901325
0.0055201255
0.0064100277
0.0069133126
0.0069517828
0.0065541488
0.0058647786
0.005072066
0.0042465184
0.0018813619
0.00061933395
-2.7910159e-07
-0.00033194904
-0.00049316935
-0.00048946503
-0.00031094826
6.747338e-05
0.0006755916
0.0015251233
0.0025871563
0.003778152
0.0049493668
0.0059159237
0.0064955101
0.0065670762
0.0061255696
0.0053050664
0.004276719
0.0030369192
0.0020063001
0.00042231534
-0.0003179063
-0.0007189564
-0.00096473041
-0.00107581
-0.0010406152
-0.00081855367
-0.00035346144
0.00039715695
0.0014311916
0.0026885275
0.0040127644
0.0051884229
0.0059749425
0.0061777542
0.005730314
0.0047476639
0.0034004625
0.0016285672
0.0015029423
-0.0003675387
-0.0012329765
-0.0017315151
-0.0021038407
-0.0023799676
-0.002541159
-0.0025255563
-0.0022436393
-0.0016128014
-0.00059821264
0.00079242122
0.0023851492
0.0039341126
0.005119567
0.0056329991
0.0052994865
0.0041856099
0.0024614119
1.3529233e-05
0.00019628434
-0.0019097362
-0.0028985221
-0.0035217842
-0.0040680962
-0.0045733604
-0.0050080568
-0.0052845137
-0.0052722591
-0.0048290385
-0.0038419937
-0.002329903
-0.0003763924
0.0017349793
0.003583832
0.004696923
0.0047170832
0.0035981146
0.0014759626
-0.0018364057
-0.0020514577
-0.0043323988
-0.0054392811
-0.0062150448
-0.0069886961
-0.007801828
-0.008614022
-0.0093097221
-0.0097107998
-0.0096065356
-0.008799937
-0.0071935606
-0.0048243138
-0.001960918
0.00088242613
0.003017144
0.0038005964
0.0029559749
0.00049144724
-0.0039202035
-0.0053315942
-0.0077220759
-0.008937686
-0.0098895364
-0.010942312
-0.01214752
-0.013458403
-0.01473402
-0.01574567
-0.016201551
-0.015790149
-0.01426085
-0.011526532
-0.0077785952
-0.0035868649
0.00011717515
0.0022853996
0.0022253233
-0.0003773975
-0.0061476807
-0.0096772653
-0.01211336
-0.013417257
-0.014549568
-0.015911818
-0.017575559
-0.01949774
-0.021520158
-0.023367036
-0.024658826
-0.024941717
-0.023766469
-0.020870252
-0.016244203
-0.01041978
-0.0045401883
-0.00015605385
0.0013830175
-0.00089996741
-0.0082495638
-0.015058877
-0.017487243
-0.018833056
-0.02010334
-0.021750106
-0.023883055
-0.026478088
-0.029372289
-0.032251671
-0.034650819
-0.035959974
-0.035479167
-0.032793012
-0.027489763
-0.019930227
-0.011345602
-0.0037911403
0.00048594556
-0.00065182479
-0.0096261962
-0.021396671
-0.023785517
-0.025074859
-0.026352481
-0.028158785
-0.030670046
-0.033899485
-0.037692474
-0.04170666
-0.045399154
-0.048039074
-0.048769453
-0.046566019
-0.040918123
-0.031765727
-0.020177564
-0.0085477665
-0.00015144376
0.001116863
-0.0090976409
-0.028605659
-0.030948478
-0.031985617
-0.032996724
-0.034690806
-0.037349692
-0.041039586
-0.045619358
-0.050722301
-0.055735951
-0.059796869
-0.061822856
-0.060562975
-0.054992347
-0.044580809
-0.029988337
-0.0136102
0.00035060506
0.0057045918
-0.0045266405
-0.036699104
-0.038980674
-0.039390278
-0.039650225
-0.040779777
-0.043207152
-0.047052556
-0.052175592
-0.058170774
-0.064351706
-0.06973132
-0.073036097
-0.072764678
-0.067458886
-0.056059642
-0.038610593
-0.017082167
0.0037968911
0.015318658
0.0076649719
-0.046012554
-0.04804779
-0.047117306
-0.045857956
-0.045790263
-0.047498426
-0.051120007
-0.056474986
-0.063071237
-0.07012381
-0.076511234
-0.080778571
-0.081193887
-0.075921001
-0.063420686
-0.043056346
-0.016020554
0.013139088
0.033500125
0.03284207
-0.05772929
-0.058625513
-0.05498511
-0.05109875
-0.049079521
-0.049568192
-0.052613478
-0.057928274
-0.064834805
-0.072413307
-0.079368166
-0.084048561
-0.084504711
-0.078551355
-0.064249175
-0.040320592
-0.0070330315
0.032309249
0.065139591
0.077816978
-0.075226776
-0.071775638
-0.062845585
-0.054870861
-0.050134251
-0.049015919
-0.051280303
-0.05634882
-0.063350551
-0.071130788
-0.078187901
-0.08265353
-0.08233899
-0.074697839
-0.057343871
-0.028432658
0.012670242
0.065154421
0.11531262
0.15121862
-0.10734906
-0.088974326
-0.070856775
-0.056987053
-0.048797821
-0.045861562
-0.047312464
-0.052124089
-0.059107093
-0.066847218
-0.073619234
-0.077320648
-0.075510474
-0.065339404
-0.043809527
-0.0081078538
0.043885257
0.1124347
0.18784363
0.27129559
-0.17634662
-0.10790758
-0.076073608
-0.054653389
-0.042955466
-0.03875263
-0.040011933
-0.045038572
-0.052284484
-0.060138605
-0.066744595
-0.069861103
-0.066778737
-0.054323178
-0.02912475
0.013240875
0.077588236
0.16939752
0.28881814
0.47356414
-0.37158885
-0.12437969
-0.05489401
-0.03204948
-0.022140632
-0.02019199
-0.023950321
-0.031216467
-0.040235319
-0.049439561
-0.057085447
-0.061073877
-0.058914114
-0.047571761
-0.022558061
0.021240208
0.092337018
0.20954371
0.40225134
0.77578507
)
;

boundaryField
{
    movingWall
    {
        type            zeroGradient;
    }
    fixedWalls
    {
        type            zeroGradient;
    }
    frontAndBack
    {
        type            empty;
    }
}


// ************************************************************************* //
