/*--------------------------------*- C++ -*----------------------------------*\
| =========                 |                                                 |
| \\      /  F ield         | OpenFOAM: The Open Source CFD Toolbox           |
|  \\    /   O peration     | Version:  2112                                  |
|   \\  /    A nd           | Website:  www.openfoam.com                      |
|    \\/     M anipulation  |                                                 |
\*---------------------------------------------------------------------------*/
FoamFile
{
    version     2.0;
    format      ascii;
    arch        "LSB;label=32;scalar=64";
    class       surfaceScalarField;
    location    "7";
    object      phi;
}
// * * * * * * * * * * * * * * * * * * * * * * * * * * * * * * * * * * * * * //

dimensions      [0 3 -1 0 0 0 0];

oriented        oriented;

internalField   nonuniform List<scalar> 
760
(
1.1321266e-05
-1.1314966e-05
-2.9157891e-05
4.0479258e-05
-0.00011931815
9.0160191e-05
-0.00024226202
0.00012294394
-0.00038182254
0.00013956056
-0.00052474353
0.00014292096
-0.00065958411
0.00013484063
-0.00077518662
0.00011560256
-0.00085994887
8.4762256e-05
-0.00090243475
4.2485837e-05
-0.00089311858
-9.3162332e-06
-0.00082723653
-6.5882087e-05
-0.00070756132
-0.00011967523
-0.00054644848
-0.00016111287
-0.00036569596
-0.00018075255
-0.00019367241
-0.0001720236
-5.9349485e-05
-0.00013432301
1.6069234e-05
-7.5418807e-05
2.8476655e-05
-1.24075e-05
2.8476604e-05
-4.1972029e-05
3.0657241e-05
-0.00019687606
0.00019538327
-0.0004490836
0.00034236772
-0.00076653316
0.00044039353
-0.0011166357
0.00048966313
-0.0014692801
0.00049556539
-0.0017963247
0.00046188517
-0.0020703635
0.00038964141
-0.0022645922
0.00027899091
-0.0023546418
0.00013253537
-0.0023230216
-4.0936456e-05
-0.0021618076
-0.0002270962
-0.0018802599
-0.00040122295
-0.0015059743
-0.00053539844
-0.0010844957
-0.00060223127
-0.00067346389
-0.00058305552
-0.00033135072
-0.0004764363
-0.00010265338
-0.00030411623
-3.28547e-06
-0.00011177545
2.5191105e-05
-0.00010503184
0.00013568901
-0.00038410678
0.00047445825
-0.00079199124
0.00075025225
-0.001281878
0.00093028044
-0.0018092321
0.0010170173
-0.0023327227
0.001019056
-0.0028131055
0.00094226794
-0.0032121539
0.00078868981
-0.0034931684
0.00056000539
-0.0036237568
0.00026312368
-0.003580178
-8.4515286e-05
-0.0033530161
-0.00045425826
-0.0029535458
-0.00080069326
-0.0024169151
-0.0010720292
-0.0018021453
-0.0012170011
-0.0011860101
-0.0011991908
-0.00064968729
-0.0010127592
-0.00025974365
-0.00069405993
-4.8424605e-05
-0.00032309452
-2.3233526e-05
-0.00016447628
0.00030016527
-0.00056302759
0.0008730097
-0.0011185063
0.0013057309
-0.0017665447
0.0015783189
-0.0024520404
0.001702513
-0.0031258875
0.001692903
-0.0037419113
0.0015582918
-0.0042551289
0.0013019074
-0.0046221688
0.00092704526
-0.0048040619
0.0004450168
-0.0047711121
-0.00011746514
-0.0045083712
-0.00071699915
-0.0040236632
-0.0012854013
-0.0033524824
-0.0017432101
-0.0025607692
-0.0020087145
-0.0017410503
-0.0020189099
-0.00099899452
-0.001754815
-0.00043043241
-0.0012626221
-9.5300953e-05
-0.00065822599
-0.00011853452
-0.00021746654
0.00051763185
-0.00072532907
0.0013808723
-0.0014160746
0.0019964765
-0.0022082484
0.0023704927
-0.003037598
0.0025318627
-0.0038498214
0.0025051263
-0.0045949837
0.0023034541
-0.0052243554
0.001931279
-0.0056899289
0.0013926188
-0.0059465015
0.00070158941
-0.0059566847
-0.00010728206
-0.0056948012
-0.00097888274
-0.0051585881
-0.0018216144
-0.0043760759
-0.0025257224
-0.0034136246
-0.0029711659
-0.0023773695
-0.003055165
-0.0014021793
-0.0027300052
-0.00062450746
-0.0020402939
-0.00014539032
-0.0011373432
-0.0002639249
-0.00026276181
0.00078039372
-0.00086573015
0.0019838408
-0.0016752169
0.0028059632
-0.0025949846
0.0032902605
-0.0035536677
0.0034905458
-0.0044941924
0.0034456511
-0.0053656105
0.0031748722
-0.0061180371
0.0026837056
-0.0067005904
0.0019751721
-0.007061653
0.001062652
-0.0071553261
-1.3608994e-05
-0.0069386626
-0.0011955463
-0.0063934371
-0.0023668399
-0.0055306486
-0.003388511
-0.0044080926
-0.0040937219
-0.0031404884
-0.0043227692
-0.0018953178
-0.0039751758
-0.00086344394
-0.0030721678
-0.00020604382
-0.0017947434
-0.0004699688
-0.00029893347
0.0010793272
-0.00097897954
0.0026638869
-0.0018858486
0.0037128323
-0.0029117718
0.0043161836
-0.0039806804
0.0045594544
-0.0050351597
0.0045001304
-0.006025932
0.0041656445
-0.0069046605
0.0035624339
-0.0076199055
0.0026904171
-0.0081160743
0.0015588208
-0.008331467
0.00020178367
-0.0082135955
-0.0013134178
-0.0077152093
-0.0028652262
-0.0068211529
-0.0042825674
-0.0055678863
-0.0053469885
-0.0040671457
-0.0058235098
-0.0025161504
-0.0055261711
-0.0011732923
-0.004415026
-0.00028675339
-0.0026812824
-0.0007567222
-0.00032421558
0.0014035427
-0.0010594321
0.0033991035
-0.0020368176
0.0046902178
-0.003140467
0.0054198331
-0.0042919837
0.0057109711
-0.0054359281
0.0056440749
-0.0065273672
0.0052570835
-0.0075226069
0.0045576736
-0.0083729229
0.003540733
-0.0090207321
0.00220663
-0.0093975563
0.00057860781
-0.0094306138
-0.0012803604
-0.0090469855
-0.0032488546
-0.0081946813
-0.0051348716
-0.0068722689
-0.0066694009
-0.0051678879
-0.0075278906
-0.0032933708
-0.0074006882
-0.0015804283
-0.0061279685
-0.00039828734
-0.0038634235
-0.0011550095
-0.00033709503
0.0017406378
-0.0011023308
0.0041643392
-0.0021178943
0.0057057815
-0.0032625661
0.0065645048
-0.0044576197
0.0069060247
-0.0056516865
0.0068381417
-0.0068068666
0.0064122636
-0.0078876627
0.0056384697
-0.0088526201
0.0045056904
-0.0096480297
0.0030020396
-0.010203575
0.0011341529
-0.010432558
-0.0010513768
-0.010237105
-0.0034443081
-0.0095231452
-0.0058488315
-0.008234463
-0.0079580832
-0.0064065945
-0.009355759
-0.0042334156
-0.0095738672
-0.0021073879
-0.0082539962
-0.00055291245
-0.005417899
-0.0017079219
-0.00033745546
0.0020780932
-0.001106495
0.0049333787
-0.0021238748
0.0067231613
-0.0032646985
0.0077053284
-0.0044514491
0.0080927753
-0.005638753
0.0080254456
-0.0067984059
0.0075719164
-0.0079069316
0.0067469953
-0.0089356058
0.0055343645
-0.0098421642
0.003908598
-0.010563371
0.0018553593
-0.011007925
-0.00060682211
-0.011064749
-0.0033874849
-0.01059827
-0.0063153106
-0.0094860656
-0.0090702871
-0.007679219
-0.011162606
-0.0053028799
-0.011950206
-0.0027662476
-0.010790629
-0.00076497429
-0.0074191721
-0.0024728962
-0.00032818494
0.0024062782
-0.0010780764
0.0056832701
-0.0020601876
0.0077052725
-0.0031460023
0.008791143
-0.0042607239
0.0092074968
-0.0053671898
0.0091319115
-0.0064496532
0.0086543797
-0.0075003996
0.0077977416
-0.008508872
0.0065428369
-0.0094521935
0.0048519195
-0.01028713
0.0026902957
-0.010926185
3.2233182e-05
-0.011270221
-0.0030434491
-0.011149328
-0.0064362036
-0.010378051
-0.0098415639
-0.0087990628
-0.012741594
-0.0064078547
-0.014341414
-0.0035467818
-0.013651701
-0.0010507827
-0.0099151711
-0.0035236789
-0.00031740102
0.0027236792
-0.0010352205
0.0064010894
-0.0019491773
0.0086192294
-0.0029257795
0.009767745
-0.0038957115
0.010177429
-0.0048336179
0.010069818
-0.0057395133
0.009560275
-0.0066247183
0.0086829466
-0.007501093
0.0074192117
-0.0083714631
0.0057222897
-0.0092179823
0.0035368149
-0.010000769
0.00081502012
-0.010607515
-0.0024367032
-0.01088765
-0.0061560683
-0.010608187
-0.010121027
-0.0095001372
-0.013849644
-0.007376885
-0.016464667
-0.0043981408
-0.016630445
-0.0014259063
-0.012887406
-0.0049495853
-0.00032192601
0.0030456052
-0.0010137521
0.0070929153
-0.0018359295
0.0094414068
-0.0026488655
0.010580681
-0.0033953213
0.010923884
-0.0040685282
0.010743025
-0.004689018
0.010180765
-0.0052901484
0.0092840768
-0.0059084464
0.0080375097
-0.0065757691
0.0063896123
-0.0073102815
0.0042713275
-0.0081060828
0.0016108214
-0.0089010658
-0.0016417202
-0.0095691944
-0.0054879398
-0.0098744023
-0.0098158194
-0.0094667001
-0.014257346
-0.0079583066
-0.017973061
-0.0052067904
-0.019381961
-0.001896343
-0.016197853
-0.0068459283
-0.00037342126
0.0034190264
-0.0010740911
0.007793585
-0.0017914091
0.010158725
-0.0023841257
0.011173397
-0.0028219069
0.011361666
-0.0031286265
0.011049744
-0.0033521595
0.010404298
-0.0035505043
0.0094824216
-0.0037845082
0.0082715137
-0.0041137456
0.0067188497
-0.0045907759
0.0047483578
-0.0052520432
0.0022720886
-0.0060945962
-0.0007991672
-0.0070516575
-0.0045308785
-0.0079361937
-0.0089312833
-0.0083825748
-0.013810965
-0.0078375178
-0.018518118
-0.0057770266
-0.021442452
-0.0024383664
-0.019536513
-0.0092842947
-0.00052949046
0.0039485169
-0.0013077228
0.0085718172
-0.0019054957
0.010756498
-0.0022043803
0.011472282
-0.0022306352
0.01138792
-0.0020577733
0.010876883
-0.0017696368
0.010116161
-0.0014515197
0.0091643045
-0.0011853866
0.0080053805
-0.001053325
0.0065867881
-0.0011353731
0.0048304059
-0.0015060516
0.002642767
-0.0022229611
-8.2257795e-05
-0.0032980806
-0.0034557591
-0.0046453032
-0.0075840607
-0.0059729914
-0.012483277
-0.0066640962
-0.017827013
-0.0058169657
-0.022289583
-0.0029623817
-0.022391098
-0.012246676
-0.00089048128
0.0048389982
-0.0018285533
0.0095098891
-0.0022393644
0.011167309
-0.0021073716
0.011340289
-0.0015682128
0.010848762
-0.00077062679
0.010079297
0.00015624395
0.0091892905
0.0011054331
0.0082151153
0.001975677
0.0071351365
0.0026712106
0.0058912545
0.0030939275
0.004407689
0.003141301
0.0025953936
0.0027057944
0.00035324869
0.0017020103
-0.002451975
9.0292231e-05
-0.0059723426
-0.0020011793
-0.010391805
-0.0040595094
-0.015768683
-0.004921596
-0.021427496
-0.0032734168
-0.024039277
-0.015520093
-0.0016080175
0.0064470157
-0.0026661128
0.010567984
-0.002617243
0.011118439
-0.0017451178
0.010468164
-0.0003740249
0.0094776686
0.0012530016
0.00845227
0.0029671756
0.0074751164
0.0046438331
0.0065384578
0.0061822891
0.0055966806
0.0074862437
0.0045873001
0.0084540971
0.0034398358
0.0089715618
0.0020779291
0.0089000529
0.00042475766
0.0080985378
-0.0016504598
0.0064153791
-0.004289184
0.0037819166
-0.0077583428
0.00046934474
-0.012456111
-0.0025258496
-0.018432302
-0.0030490452
-0.023516081
-0.018569138
-0.0027247386
0.0091717543
-0.0031781627
0.011021409
-0.0018670546
0.0098073304
0.00036056171
0.0082405477
0.0029412838
0.0068969465
0.005589085
0.0058044687
0.0081506195
0.004913582
0.010531736
0.0041573408
0.012660378
0.0034680388
0.014464401
0.0027832772
0.015858431
0.0020458062
0.016736306
0.0012000546
0.016959768
0.00020129501
0.016358338
-0.0010490301
0.014709955
-0.0026408007
0.011761976
-0.004810364
0.0073700254
-0.0080641601
0.0022198729
-0.013282149
-0.0012922359
-0.020003972
-0.019861374
-0.0024077254
0.011579479
2.991289e-05
0.0085837706
0.0042407878
0.0055964556
0.0083743794
0.004106956
0.012157049
0.0031142771
0.015549722
0.002411795
0.018553208
0.0019100961
0.021177617
0.0015329317
0.023424064
0.0012215922
0.025272626
0.00093471594
0.026676144
0.0006422876
0.02755372
0.00032247917
0.027797023
-4.2008478e-05
0.027269392
-0.00052139884
0.025715769
-0.0010871781
0.022803884
-0.0018984792
0.018027079
-0.0032873548
0.011095246
-0.0063503161
0.003380925
-0.012289652
-0.016480449
0.011579479
0.02016325
0.025759705
0.029866661
0.032980939
0.035392734
0.03730283
0.038835761
0.040057354
0.040992069
0.041634357
0.041956836
0.041914828
0.041393429
0.040306251
0.038407772
0.035120417
0.028770101
0.016480449
)
;

boundaryField
{
    movingWall
    {
        type            calculated;
        value           uniform 0;
    }
    fixedWalls
    {
        type            calculated;
        value           uniform 0;
    }
    frontAndBack
    {
        type            empty;
        value           nonuniform List<scalar> 0();
    }
}


// ************************************************************************* //
