/*--------------------------------*- C++ -*----------------------------------*\
| =========                 |                                                 |
| \\      /  F ield         | OpenFOAM: The Open Source CFD Toolbox           |
|  \\    /   O peration     | Version:  2112                                  |
|   \\  /    A nd           | Website:  www.openfoam.com                      |
|    \\/     M anipulation  |                                                 |
\*---------------------------------------------------------------------------*/
FoamFile
{
    version     2.0;
    format      ascii;
    arch        "LSB;label=32;scalar=64";
    class       surfaceScalarField;
    location    "7";
    object      phi_0;
}
// * * * * * * * * * * * * * * * * * * * * * * * * * * * * * * * * * * * * * //

dimensions      [0 3 -1 0 0 0 0];

oriented        oriented;

internalField   nonuniform List<scalar> 
760
(
1.1311097e-05
-1.1310541e-05
-2.9162114e-05
4.0473012e-05
-0.00011930388
9.0141767e-05
-0.00024222029
0.00012291642
-0.00038174838
0.00013952792
-0.00052463513
0.00014288678
-0.00065944339
0.00013480822
-0.00077501886
0.00011557549
-0.00085976326
8.4744327e-05
-0.00090224371
4.2480462e-05
-0.0008929368
-9.3068517e-06
-0.00082707877
-6.5858047e-05
-0.00070743964
-0.00011963918
-0.00054636943
-0.00016107023
-0.00036565876
-0.00018071066
-0.00019366866
-0.00017199008
-5.9365018e-05
-0.00013430356
1.6050022e-05
-7.5414922e-05
2.8466266e-05
-1.2416142e-05
2.8466325e-05
-4.1967151e-05
3.0656314e-05
-0.0001968373
0.00019534319
-0.00044898411
0.0003422885
-0.00076635482
0.00044028719
-0.0011163696
0.00048954275
-0.0014689262
0.00049544346
-0.0017958917
0.00046177373
-0.0020698688
0.00038955261
-0.0022640611
0.0002789365
-0.0023541055
0.00013252488
-0.0023225143
-4.0898081e-05
-0.0021613614
-0.00022701093
-0.0018799003
-0.00040110034
-0.0015057153
-0.00053525532
-0.0010843366
-0.00060208937
-0.00067338942
-0.00058293717
-0.00033133413
-0.00047635871
-0.00010266308
-0.00030408596
-3.2951017e-06
-0.00011178426
2.5171293e-05
-0.00010500642
0.00013566283
-0.00038400884
0.00047434564
-0.00079178592
0.00075006546
-0.0012815443
0.0009300455
-0.0018087623
0.0010167608
-0.0023321219
0.0010188031
-0.0028123912
0.00094204289
-0.0032113548
0.0007885163
-0.0034923232
0.00055990492
-0.0036229105
0.00026311225
-0.003579378
-8.4430594e-05
-0.0033523051
-0.00045408386
-0.002952958
-0.00080044766
-0.00241647
-0.0010717434
-0.0018018449
-0.0012167144
-0.0011858381
-0.0011989437
-0.00064961229
-0.0010125843
-0.00025972602
-0.00069397221
-4.8427251e-05
-0.00032308303
-2.3255863e-05
-0.00016442988
0.00030009257
-0.00056287013
0.00087278571
-0.0011181967
0.0013053922
-0.0017660627
0.0015779114
-0.0024513825
0.0017020806
-0.0031250655
0.0016924861
-0.0037409513
0.0015579288
-0.0042540692
0.0013016343
-0.0046210576
0.00092689321
-0.0048029529
0.00044500757
-0.0047700603
-0.00011732326
-0.0045074259
-0.0007167184
-0.0040228643
-0.0012850094
-0.0033518554
-0.0017427522
-0.0025603217
-0.0020082479
-0.0017407701
-0.0020184952
-0.00099885049
-0.001754504
-0.00043038021
-0.0012624426
-9.5293482e-05
-0.00065816972
-0.00011854929
-0.00021740231
0.00051749497
-0.00072512139
0.0013805047
-0.0014156791
0.00199595
-0.0022076467
0.0023698791
-0.0030367919
0.0025312259
-0.0038488294
0.0025045237
-0.0045938387
0.0023029381
-0.0052231018
0.0019308975
-0.0056886197
0.001392411
-0.0059451941
0.00070158185
-0.005955438
-0.00010707942
-0.0056936658
-0.00097849064
-0.005157608
-0.0018210673
-0.004375283
-0.0025250771
-0.0034130349
-0.0029704958
-0.0023769792
-0.003054551
-0.0014019621
-0.0027295211
-0.0006244178
-0.0020399871
-0.00014537195
-0.0011372156
-0.00026392127
-0.00026268575
0.00078018073
-0.0008654898
0.0019833087
-0.0016747667
0.0028052269
-0.0025943093
0.0032894217
-0.0035527739
0.0034896906
-0.0044931036
0.0034448535
-0.0053643636
0.0031741981
-0.0061166788
0.0026832128
-0.0066991738
0.001974906
-0.0070602301
0.0010626381
-0.0071539668
-1.3342809e-05
-0.0069374027
-0.0011950548
-0.0063923255
-0.0023661446
-0.0055297231
-0.0033876794
-0.0044073789
-0.0040928398
-0.0031399947
-0.0043219353
-0.0018950281
-0.0039744878
-0.00086331561
-0.0030716995
-0.00020601401
-0.001794517
-0.00046993526
-0.00029885361
0.0010790344
-0.00097873001
0.002663185
-0.0018853853
0.0037118823
-0.0029110824
0.0043151188
-0.0039797751
0.0045583832
-0.005034065
0.0044991434
-0.0060246862
0.0041648193
-0.0069033091
0.0035618357
-0.0076184981
0.0026900949
-0.008114664
0.0015588038
-0.0083300854
0.00020207857
-0.0082123034
-0.0013128368
-0.0077140446
-0.0028644034
-0.0068201542
-0.0042815697
-0.0055670874
-0.0053459065
-0.0040665686
-0.0058224539
-0.0025157948
-0.0055252616
-0.0011731258
-0.0044143685
-0.00028671159
-0.0026809313
-0.00075664694
-0.0003241413
0.0014031757
-0.0010592005
0.003398244
-0.0020363885
0.0046890702
-0.0031398308
0.0054185611
-0.0042911524
0.0057097049
-0.005434929
0.0056429199
-0.0065262367
0.005256127
-0.0075213866
0.0045569855
-0.0083716545
0.0035403628
-0.0090194547
0.0022066038
-0.0093963032
0.00057892705
-0.0094294197
-0.0012797203
-0.0090458821
-0.0032479408
-0.0081937027
-0.005133749
-0.0068714521
-0.0066681571
-0.0051672678
-0.0075266382
-0.0032929672
-0.007399562
-0.0015802281
-0.0061271074
-0.00039823336
-0.0038629259
-0.0011548803
-0.00033703604
0.0017402117
-0.0011021448
0.0041633527
-0.0021175478
0.0057044731
-0.0032620516
0.0065630649
-0.0044569494
0.0069046028
-0.0056508862
0.0068368567
-0.0068059692
0.00641121
-0.007886703
0.0056377193
-0.0088516301
0.0045052899
-0.0096470354
0.0030020092
-0.010202597
0.0011344883
-0.010431612
-0.0010507044
-0.010236205
-0.0034433478
-0.0095223116
-0.0058476423
-0.008233727
-0.0079567417
-0.0064059977
-0.0093543674
-0.0042329982
-0.0095725614
-0.0021071652
-0.0082529406
-0.00055284737
-0.0054172439
-0.0017077276
-0.00033742044
0.0020776321
-0.0011063799
0.0049323119
-0.0021236549
0.006721748
-0.0032643679
0.0077037779
-0.0044510188
0.0080912536
-0.0056382451
0.0080240829
-0.0067978474
0.0075708125
-0.0079063492
0.0067462212
-0.0089350205
0.0055339611
-0.0098415875
0.0039085763
-0.010562805
0.0018557062
-0.011007377
-0.00060613282
-0.011064201
-0.0033865236
-0.010597721
-0.0063141224
-0.0094855312
-0.0090689312
-0.0076787362
-0.011161162
-0.0053025031
-0.011948795
-0.0027660237
-0.01078942
-0.00076490145
-0.0074183664
-0.002472629
-0.00032818038
0.0024058123
-0.0010780514
0.0056821828
-0.0020601282
0.0077038246
-0.0031459039
0.0087895535
-0.0042605939
0.0092059437
-0.0053670443
0.0091305334
-0.0064495113
0.0086532795
-0.0075002777
0.0077969877
-0.0085087792
0.0065424626
-0.0094521275
0.0048519245
-0.010287066
0.0026906442
-0.010926154
3.2955515e-05
-0.01127014
-0.0030425381
-0.011149183
-0.0064350789
-0.010377835
-0.0098402793
-0.0087987946
-0.012740203
-0.0064075886
-0.014340001
-0.0035465904
-0.013650418
-0.0010507092
-0.0099142475
-0.0035233382
-0.00031743029
0.0027232424
-0.0010352963
0.0064000487
-0.001949298
0.0086178262
-0.0029259409
0.0097661965
-0.0038959154
0.010175918
-0.004833871
0.010068489
-0.0057398239
0.0095592323
-0.0066250912
0.008682255
-0.0075015259
0.0074188973
-0.0083719441
0.0057223426
-0.0092184985
0.0035371985
-0.010001231
0.00081568855
-0.010607933
-0.0024358367
-0.010887967
-0.0061550453
-0.010608364
-0.010119882
-0.0095001658
-0.0138484
-0.007376801
-0.016463366
-0.0043980245
-0.016629195
-0.0014258439
-0.012886428
-0.0049491821
-0.00032198895
0.0030452313
-0.0010139289
0.0070919885
-0.0018362316
0.0094401288
-0.002649289
0.010579254
-0.0033958596
0.010922489
-0.004069175
0.010741805
-0.0046897663
0.010179823
-0.0052909872
0.0092834759
-0.0059093592
0.0080372692
-0.0065767323
0.0063897156
-0.0073112629
0.0042717292
-0.0081070316
0.0016114573
-0.0089019408
-0.0016409275
-0.0095699428
-0.0054870431
-0.0098749716
-0.0098148532
-0.009467055
-0.014256317
-0.0079584523
-0.017971968
-0.0052067906
-0.019380857
-0.0018963078
-0.016196911
-0.00684549
-0.00037351383
0.003418745
-0.0010743577
0.0077928324
-0.001791874
0.010157645
-0.0023847853
0.011172165
-0.0028227448
0.011360448
-0.0031296205
0.01104868
-0.0033532829
0.010403486
-0.0035517279
0.0094819209
-0.0037857992
0.0082713406
-0.0041150693
0.0067189858
-0.0045920956
0.0047487555
-0.0052533189
0.0022726806
-0.0060957849
-0.00079846147
-0.0070527137
-0.0045301143
-0.007937064
-0.008930503
-0.0083832088
-0.013810172
-0.0078378898
-0.018517288
-0.0057771656
-0.021441581
-0.0024383746
-0.019535702
-0.0092838645
-0.00052960368
0.0039483486
-0.0013080536
0.0085712823
-0.0019060806
0.010755672
-0.0022052169
0.011471301
-0.0022316985
0.01138693
-0.0020590247
0.010876006
-0.0017710274
0.010115488
-0.0014530051
0.0091638985
-0.0011869154
0.0080052508
-0.0010548526
0.0065869229
-0.0011368614
0.0048307644
-0.001507469
0.0026432882
-0.0022242753
-8.1655063e-05
-0.0032992641
-0.0034551253
-0.0046463174
-0.0075834498
-0.0059737864
-0.012482703
-0.0066646302
-0.017826444
-0.0058172294
-0.022288981
-0.0029624417
-0.02239049
-0.012246306
-0.00089059795
0.0048389464
-0.001828902
0.0095095863
-0.0022399926
0.011166763
-0.0021082818
0.01133959
-0.0015693762
0.010848024
-0.0007719953
0.010078626
0.00015472468
0.0091887686
0.0011038392
0.0082147839
0.0019740647
0.0071350254
0.0026696316
0.005891356
0.0030924239
0.004407972
0.0031399037
0.0025958083
0.0027045181
0.00035373046
0.0017008725
-0.0024514797
8.9310873e-05
-0.0059718883
-0.0020019843
-0.010391408
-0.0040601004
-0.015768327
-0.004921928
-0.021427154
-0.0032735186
-0.024038899
-0.015519825
-0.001608107
0.0064470534
-0.0026664051
0.010567884
-0.0026177943
0.011118152
-0.0017459421
0.010467738
-0.00037510104
0.0094771831
0.0012517193
0.0084518051
0.0029657506
0.0074747371
0.0046423275
0.0065382069
0.0061807707
0.005596582
0.0074847714
0.0045873552
0.0084527178
0.0034400257
0.0089703074
0.0020782188
0.0088989416
0.00042509654
0.0080975714
-0.0016501092
0.006414556
-0.0042888731
0.0037812465
-0.0077580982
0.00046885498
-0.012455936
-0.0025261659
-0.018432133
-0.003049164
-0.023515901
-0.018568989
-0.0027247713
0.0091718248
-0.0031783102
0.011021423
-0.0018673903
0.0098072324
0.00036000287
0.0082403451
0.0029405007
0.0068966854
0.0055881042
0.0058042015
0.0081494876
0.0049133535
0.010530512
0.0041571824
0.012659125
0.0034679691
0.01446318
0.0027832998
0.015857295
0.0020459115
0.01673529
0.001200223
0.016958897
0.00020148971
0.016357615
-0.0010488272
0.01470937
-0.002640628
0.011761512
-0.0048102398
0.0073696657
-0.0080640899
0.0022196366
-0.013282104
-0.0012923444
-0.02000392
-0.019861333
-0.0024076949
0.01157952
2.992509e-05
0.0085838029
0.004240716
0.0055964412
0.0083741639
0.004106897
0.01215666
0.0031141892
0.015549162
0.0024116996
0.018552503
0.0019100126
0.021176811
0.0015328739
0.023423212
0.001221568
0.025271785
0.00093472683
0.026675369
0.00064232835
0.027553053
0.00032253902
0.027796463
-4.1920738e-05
0.027268968
-0.00052133201
0.025715464
-0.0010871238
0.022803669
-0.0018984455
0.018026927
-0.0032873469
0.011095145
-0.0063503215
0.0033808822
-0.012289657
-0.016480451
0.01157952
0.020163323
0.025759764
0.029866661
0.032980851
0.03539255
0.037302563
0.038835436
0.040057004
0.040991731
0.04163406
0.041956599
0.041914678
0.041393346
0.040306222
0.038407777
0.03512043
0.028770108
0.016480451
)
;

boundaryField
{
    movingWall
    {
        type            calculated;
        value           uniform 0;
    }
    fixedWalls
    {
        type            calculated;
        value           uniform 0;
    }
    frontAndBack
    {
        type            empty;
        value           nonuniform List<scalar> 0();
    }
}


// ************************************************************************* //
