/*--------------------------------*- C++ -*----------------------------------*\
| =========                 |                                                 |
| \\      /  F ield         | OpenFOAM: The Open Source CFD Toolbox           |
|  \\    /   O peration     | Version:  2112                                  |
|   \\  /    A nd           | Website:  www.openfoam.com                      |
|    \\/     M anipulation  |                                                 |
\*---------------------------------------------------------------------------*/
FoamFile
{
    version     2.0;
    format      ascii;
    arch        "LSB;label=32;scalar=64";
    class       volVectorField;
    location    "7";
    object      U;
}
// * * * * * * * * * * * * * * * * * * * * * * * * * * * * * * * * * * * * * //

dimensions      [0 1 -1 0 0 0 0];

internalField   nonuniform List<vector> 
400
(
(0.00026516993 -0.00026184917 0)
(8.1151844e-05 8.6263529e-05 0)
(-0.0013114241 0.00046622737 0)
(-0.0035163718 0.00071093889 0)
(-0.0062019147 0.00083474511 0)
(-0.00908146 0.00087075912 0)
(-0.011910553 0.00083812799 0)
(-0.01446541 0.00073860216 0)
(-0.016517692 0.00056422109 0)
(-0.017831694 0.00030944162 0)
(-0.018189571 -1.8034935e-05 0)
(-0.017437875 -0.00039290968 0)
(-0.015547875 -0.00075854151 0)
(-0.012669092 -0.001043036 0)
(-0.0091500308 -0.0011723958 0)
(-0.0055074953 -0.0010927273 0)
(-0.002333519 -0.00079619765 0)
(-0.00015727288 -0.00034283896 0)
(0.00070057679 0.00013002563 0)
(0.00038851085 0.00036899896 0)
(-9.009229e-05 -9.3103268e-05 0)
(-0.0018094174 0.0017372676 0)
(-0.0060583446 0.0034876043 0)
(-0.011930193 0.0046611728 0)
(-0.01875465 0.0052629503 0)
(-0.02592253 0.0053764389 0)
(-0.032854444 0.0050574023 0)
(-0.038995526 0.0043165057 0)
(-0.043798471 0.0031446379 0)
(-0.04673909 0.0015566209 0)
(-0.047378689 -0.0003667347 0)
(-0.045442112 -0.0024494932 0)
(-0.040926892 -0.0044151868 0)
(-0.034198097 -0.0059255548 0)
(-0.026002189 -0.0066488018 0)
(-0.017406959 -0.0063582591 0)
(-0.0096293434 -0.0050385131 0)
(-0.0037582266 -0.0029627168 0)
(-0.00044566119 -0.00071310467 0)
(0.00026260997 0.00072381269 0)
(-0.00056367893 0.0014046014 0)
(-0.0040478777 0.0061245496 0)
(-0.011203859 0.010179393 0)
(-0.020449987 0.01288217 0)
(-0.030834671 0.014229439 0)
(-0.041542964 0.014349362 0)
(-0.05177535 0.01333452 0)
(-0.06075479 0.011213503 0)
(-0.067723371 0.0080015035 0)
(-0.071972319 0.0037862763 0)
(-0.072916619 -0.0011892363 0)
(-0.070199572 -0.0064738938 0)
(-0.063818627 -0.01141655 0)
(-0.054232395 -0.015238931 0)
(-0.042395567 -0.017186284 0)
(-0.02970804 -0.016741948 0)
(-0.017820866 -0.013858985 0)
(-0.0082795812 -0.0091236114 0)
(-0.0021525035 -0.0037767421 0)
(-1.9269188e-05 0.00023155418 0)
(-0.00099808641 0.0041292222 0)
(-0.0061801429 0.012956191 0)
(-0.016137121 0.019901404 0)
(-0.028530997 0.024379481 0)
(-0.042127328 0.026493346 0)
(-0.055960384 0.026456491 0)
(-0.069090653 0.024409088 0)
(-0.080604245 0.020402808 0)
(-0.089608139 0.014488703 0)
(-0.095260503 0.0068497641 0)
(-0.096849977 -0.0020773039 0)
(-0.093902113 -0.011534697 0)
(-0.086318091 -0.020430961 0)
(-0.074515388 -0.027462164 0)
(-0.059508708 -0.031334291 0)
(-0.042918848 -0.031104833 0)
(-0.02680588 -0.026579479 0)
(-0.013258143 -0.018616359 0)
(-0.0039568202 -0.0091671872 0)
(-0.00027316866 -0.0011860503 0)
(-0.0013747236 0.0079769003 0)
(-0.0080962841 0.022076024 0)
(-0.020628912 0.032432204 0)
(-0.035901518 0.038854179 0)
(-0.052415567 0.041709001 0)
(-0.069095484 0.041366997 0)
(-0.084922524 0.038039958 0)
(-0.098911662 0.031804976 0)
(-0.11008892 0.022741507 0)
(-0.11750678 0.011112833 0)
(-0.12031589 -0.0024699398 0)
(-0.11785423 -0.016952229 0)
(-0.10980415 -0.030789235 0)
(-0.096390263 -0.04208753 0)
(-0.078532098 -0.048871951 0)
(-0.057971447 -0.049558552 0)
(-0.037194611 -0.043570451 0)
(-0.018997208 -0.031884231 0)
(-0.0059459754 -0.017173114 0)
(-0.0005043075 -0.0035513557 0)
(-0.0016904214 0.012813109 0)
(-0.0097403356 0.033256729 0)
(-0.024526364 0.047521264 0)
(-0.042335245 0.05605957 0)
(-0.061445389 0.059662955 0)
(-0.080712879 0.058943986 0)
(-0.099093157 0.054218746 0)
(-0.1155868 0.045587948 0)
(-0.12918592 0.033131619 0)
(-0.13885907 0.017140925 0)
(-0.14360322 -0.0016638449 0)
(-0.14250069 -0.021955943 0)
(-0.13489341 -0.041808068 0)
(-0.12064605 -0.058686481 0)
(-0.10038892 -0.069762585 0)
(-0.075826253 -0.0725025 0)
(-0.049834724 -0.065557849 0)
(-0.026082723 -0.049714577 0)
(-0.0083854913 -0.028330786 0)
(-0.00076761828 -0.0069916139 0)
(-0.0019380898 0.018470366 0)
(-0.01105536 0.046176151 0)
(-0.027678203 0.064794658 0)
(-0.0475796 0.075628662 0)
(-0.06886882 0.080040401 0)
(-0.090376635 0.078972654 0)
(-0.11108408 0.07288328 0)
(-0.13003413 0.061892737 0)
(-0.14624071 0.046041697 0)
(-0.15862594 0.025577449 0)
(-0.16600419 0.0012268721 0)
(-0.16720341 -0.025561735 0)
(-0.16116415 -0.052531327 0)
(-0.1471839 -0.076516966 0)
(-0.12536983 -0.09368823 0)
(-0.097124781 -0.10019076 0)
(-0.065532323 -0.093336002 0)
(-0.035197877 -0.073153954 0)
(-0.011619557 -0.043488373 0)
(-0.0011368183 -0.011807586 0)
(-0.0021057121 0.024748054 0)
(-0.011977338 0.060433224 0)
(-0.029924043 0.08377007 0)
(-0.051348004 0.097067575 0)
(-0.074244642 0.10238575 0)
(-0.097459689 0.10108401 0)
(-0.12004903 0.093804684 0)
(-0.1411561 0.080687569 0)
(-0.15987896 0.061690755 0)
(-0.17516041 0.036932067 0)
(-0.18572942 0.0070107228 0)
(-0.19014989 -0.026699442 0)
(-0.18690765 -0.061732145 0)
(-0.17465351 -0.0944028 0)
(-0.15270917 -0.11982078 0)
(-0.12178585 -0.13245527 0)
(-0.084758298 -0.12754658 0)
(-0.04698168 -0.10342589 0)
(-0.016036894 -0.063834056 0)
(-0.0017025 -0.018505763 0)
(-0.002182446 0.031410348 0)
(-0.012453852 0.075552747 0)
(-0.03112659 0.10385361 0)
(-0.053366996 0.11972878 0)
(-0.077103407 0.12604281 0)
(-0.10123026 0.12465773 0)
(-0.12492449 0.11645216 0)
(-0.14749191 0.10159687 0)
(-0.16819552 0.07993334 0)
(-0.18610261 0.051362116 0)
(-0.19997438 0.016213121 0)
(-0.20822296 -0.024370674 0)
(-0.20896032 -0.067982908 0)
(-0.20017112 -0.11066699 0)
(-0.18018129 -0.14658685 0)
(-0.1485547 -0.16832751 0)
(-0.10728351 -0.16827726 0)
(-0.061859057 -0.14167823 0)
(-0.022061747 -0.090845585 0)
(-0.0025876186 -0.027826238 0)
(-0.0021697338 0.038200649 0)
(-0.012481945 0.091009335 0)
(-0.031239456 0.12435002 0)
(-0.053471352 0.14279466 0)
(-0.077071852 0.15010712 0)
(-0.10101262 0.14874241 0)
(-0.12463542 0.13988144 0)
(-0.14747159 0.12375941 0)
(-0.16904072 0.10009548 0)
(-0.18866454 0.068519287 0)
(-0.20530048 0.028976945 0)
(-0.21739853 -0.017822184 0)
(-0.22292386 -0.069826498 0)
(-0.21933675 -0.12320236 0)
(-0.20389115 -0.17153992 0)
(-0.17460534 -0.20565898 0)
(-0.13174142 -0.21451019 0)
(-0.079779458 -0.18851665 0)
(-0.030138474 -0.12613233 0)
(-0.0039775503 -0.040780926 0)
(-0.0020971017 0.044883675 0)
(-0.01216136 0.10628998 0)
(-0.030401005 0.14450823 0)
(-0.051732622 0.16529557 0)
(-0.074039075 0.1734191 0)
(-0.096404503 0.17202804 0)
(-0.11838384 0.16268658 0)
(-0.13979648 0.14575237 0)
(-0.1605072 0.1208547 0)
(-0.18022413 0.087352631 0)
(-0.19829527 0.044762662 0)
(-0.21345166 -0.006799845 0)
(-0.22384854 -0.066114266 0)
(-0.22673689 -0.12977651 0)
(-0.21847954 -0.19148866 0)
(-0.19539402 -0.24091925 0)
(-0.15521386 -0.26354167 0)
(-0.099824914 -0.24330329 0)
(-0.040660444 -0.17109591 0)
(-0.0061600498 -0.058700291 0)
(-0.0020461222 0.051325462 0)
(-0.01176513 0.12100408 0)
(-0.029045048 0.16360535 0)
(-0.048597025 0.18616402 0)
(-0.068324773 0.19460398 0)
(-0.087494946 0.19288572 0)
(-0.10594528 0.18304322 0)
(-0.12384661 0.16562808 0)
(-0.14147676 0.14024204 0)
(-0.15901717 0.10601888 0)
(-0.17636974 0.062043566 0)
(-0.1929764 0.007752923 0)
(-0.20737487 -0.05656876 0)
(-0.21696289 -0.12859934 0)
(-0.21788478 -0.20299705 0)
(-0.20499334 -0.26938993 0)
(-0.17306002 -0.31061896 0)
(-0.11974597 -0.30330834 0)
(-0.053768572 -0.2263068 0)
(-0.0095573266 -0.08326049 0)
(-0.0021937226 0.057628689 0)
(-0.011840101 0.13504281 0)
(-0.028020076 0.18105522 0)
(-0.044996574 0.20430651 0)
(-0.06078445 0.2121425 0)
(-0.074986618 0.20946518 0)
(-0.087841488 0.19884609 0)
(-0.099944981 0.18108881 0)
(-0.11203668 0.15583652 0)
(-0.12482932 0.12207973 0)
(-0.13886236 0.078541205 0)
(-0.15431188 0.024032309 0)
(-0.17056136 -0.042037707 0)
(-0.18581033 -0.11898375 0)
(-0.19654949 -0.20324583 0)
(-0.19697955 -0.28592013 0)
(-0.17921355 -0.34913259 0)
(-0.13561288 -0.3630191 0)
(-0.068925264 -0.29053535 0)
(-0.014692944 -0.11640469 0)
(-0.0028992665 0.064361905 0)
(-0.013364063 0.14877741 0)
(-0.028699539 0.1964945 0)
(-0.042365624 0.21863844 0)
(-0.052738426 0.22441928 0)
(-0.060062628 0.21979548 0)
(-0.06516868 0.2078787 0)
(-0.069165829 0.18972755 0)
(-0.073271008 0.16506077 0)
(-0.078703859 0.13281948 0)
(-0.086608838 0.091513876 0)
(-0.097919919 0.039498924 0)
(-0.11303951 -0.024703572 0)
(-0.13139113 -0.10194807 0)
(-0.15064861 -0.19106016 0)
(-0.16560958 -0.28618826 0)
(-0.16694843 -0.37158758 0)
(-0.14178831 -0.41406455 0)
(-0.084205962 -0.35952498 0)
(-0.021958688 -0.15994246 0)
(-0.0048747402 0.072972998 0)
(-0.01798401 0.16326105 0)
(-0.032993915 0.2097416 0)
(-0.042366688 0.22797408 0)
(-0.045456641 0.22964882 0)
(-0.043682975 0.22178786 0)
(-0.038737827 0.20790313 0)
(-0.032342828 0.18920361 0)
(-0.026174111 0.16543448 0)
(-0.021865398 0.13553933 0)
(-0.021043894 0.097949683 0)
(-0.025283342 0.050793216 0)
(-0.035953676 -0.0079616695 0)
(-0.053846388 -0.080370571 0)
(-0.078465072 -0.16764727 0)
(-0.10662794 -0.26807456 0)
(-0.12971049 -0.37120515 0)
(-0.13116408 -0.44602976 0)
(-0.095387851 -0.42488831 0)
(-0.030960145 -0.21462923 0)
(-0.0094521992 0.086539269 0)
(-0.028224008 0.1802639 0)
(-0.042807274 0.22042606 0)
(-0.045591842 0.23060541 0)
(-0.038319151 0.22554877 0)
(-0.024378466 0.21303778 0)
(-0.0066154174 0.19658575 0)
(0.012573961 0.17725088 0)
(0.031127188 0.15471063 0)
(0.047156504 0.12787552 0)
(0.058739985 0.095194305 0)
(0.063893895 0.05479697 0)
(0.060508071 0.0045166535 0)
(0.046617109 -0.058258648 0)
(0.0207363 -0.13645187 0)
(-0.01699987 -0.23246325 0)
(-0.061328142 -0.34358336 0)
(-0.095183858 -0.44790303 0)
(-0.095170406 -0.47383079 0)
(-0.039333377 -0.27930019 0)
(-0.01868418 0.11086863 0)
(-0.046683472 0.20103369 0)
(-0.056811813 0.22636402 0)
(-0.046598753 0.22288825 0)
(-0.022975775 0.20830263 0)
(0.0078796547 0.19014515 0)
(0.041901871 0.17110369 0)
(0.076263734 0.15159385 0)
(0.1087938 0.13099658 0)
(0.13759114 0.10812606 0)
(0.16073079 0.081509977 0)
(0.17611292 0.049455755 0)
(0.18121834 0.010015354 0)
(0.17334534 -0.039241331 0)
(0.14947816 -0.10177011 0)
(0.10674548 -0.18276882 0)
(0.045020177 -0.28766175 0)
(-0.022988604 -0.40967008 0)
(-0.072975341 -0.49007913 0)
(-0.041307425 -0.34979744 0)
(-0.033355746 0.15585976 0)
(-0.068880956 0.2202805 0)
(-0.056094328 0.21659718 0)
(-0.01777649 0.19415347 0)
(0.031966911 0.16952118 0)
(0.085165964 0.14711789 0)
(0.13777392 0.12746968 0)
(0.18752441 0.10980964 0)
(0.23287918 0.0929822 0)
(0.27247911 0.07571929 0)
(0.30480978 0.056731211 0)
(0.32803413 0.0346771 0)
(0.33967874 0.0080563762 0)
(0.33688302 -0.024882624 0)
(0.31573307 -0.066848535 0)
(0.27136608 -0.12344475 0)
(0.19894704 -0.2054399 0)
(0.1010553 -0.32475865 0)
(-0.012947716 -0.45423455 0)
(-0.02389989 -0.408341 0)
(-0.033005946 0.2393156 0)
(-0.042516341 0.21808389 0)
(0.042135067 0.16413633 0)
(0.1270732 0.12742137 0)
(0.2065603 0.10084645 0)
(0.27848196 0.081030903 0)
(0.34246579 0.066102212 0)
(0.39870819 0.054324649 0)
(0.44740187 0.044237272 0)
(0.48841441 0.034702908 0)
(0.52110766 0.024811261 0)
(0.54426892 0.01378277 0)
(0.55592584 0.00085932985 0)
(0.55388539 -0.014671898 0)
(0.5341862 -0.03456776 0)
(0.49151248 -0.06221136 0)
(0.41733021 -0.10681482 0)
(0.30366034 -0.19313123 0)
(0.12287946 -0.33689042 0)
(0.052289643 -0.39435275 0)
(0.24308458 0.15265815 0)
(0.30552774 0.11866016 0)
(0.45507472 0.076156085 0)
(0.56013638 0.050807065 0)
(0.63207999 0.035030844 0)
(0.68603884 0.024689653 0)
(0.72857835 0.01784548 0)
(0.76266218 0.01317683 0)
(0.78998842 0.0097347496 0)
(0.81143789 0.0068823385 0)
(0.82720039 0.004193072 0)
(0.83693518 0.0013801581 0)
(0.83983147 -0.001756498 0)
(0.83453742 -0.005233678 0)
(0.81867144 -0.0097461695 0)
(0.78940225 -0.016181577 0)
(0.73789881 -0.026920626 0)
(0.65322375 -0.051296487 0)
(0.45612059 -0.11376624 0)
(0.31789029 -0.17207734 0)
)
;

boundaryField
{
    movingWall
    {
        type            fixedValue;
        value           uniform (1 0 0);
    }
    fixedWalls
    {
        type            fixedValue;
        value           uniform (0 0 0);
    }
    frontAndBack
    {
        type            empty;
    }
}


// ************************************************************************* //
