/*--------------------------------*- C++ -*----------------------------------*\
| =========                 |                                                 |
| \\      /  F ield         | OpenFOAM: The Open Source CFD Toolbox           |
|  \\    /   O peration     | Version:  2112                                  |
|   \\  /    A nd           | Website:  www.openfoam.com                      |
|    \\/     M anipulation  |                                                 |
\*---------------------------------------------------------------------------*/
FoamFile
{
    version     2.0;
    format      ascii;
    arch        "LSB;label=32;scalar=64";
    class       volVectorField;
    location    "7";
    object      U_0;
}
// * * * * * * * * * * * * * * * * * * * * * * * * * * * * * * * * * * * * * //

dimensions      [0 1 -1 0 0 0 0];

internalField   nonuniform List<vector> 
400
(
(0.00026503472 -0.00026178069 0)
(8.0943651e-05 8.6281269e-05 0)
(-0.0013113752 0.00046615911 0)
(-0.0035158415 0.00071080349 0)
(-0.0062007677 0.00083456894 0)
(-0.0090796298 0.00087056349 0)
(-0.01190804 0.00083793089 0)
(-0.014462288 0.00073842508 0)
(-0.016514106 0.00056409035 0)
(-0.017827866 0.00030938402 0)
(-0.018185779 -1.799916e-05 0)
(-0.017434424 -0.00039277451 0)
(-0.015545042 -0.00075832137 0)
(-0.012667072 -0.0010427682 0)
(-0.0091488853 -0.0011721346 0)
(-0.0055071312 -0.0010925306 0)
(-0.0023337059 -0.00079610813 0)
(-0.00015767623 -0.00034286461 0)
(0.00070025655 0.00012990591 0)
(0.00038839911 0.00036889119 0)
(-9.0129739e-05 -9.2996213e-05 0)
(-0.0018091356 0.0017369787 0)
(-0.0060570744 0.0034868643 0)
(-0.011927478 0.0046601041 0)
(-0.018750224 0.005261697 0)
(-0.025916303 0.0053751359 0)
(-0.032846505 0.0050561775 0)
(-0.038986138 0.0043154936 0)
(-0.043788068 0.0031439768 0)
(-0.046728252 0.0015564325 0)
(-0.047368091 -0.000366377 0)
(-0.04543244 -0.0024485987 0)
(-0.040918744 -0.0044138575 0)
(-0.034191881 -0.0059239867 0)
(-0.025998044 -0.0066472561 0)
(-0.017404719 -0.0063570053 0)
(-0.009628571 -0.0050377555 0)
(-0.0037582983 -0.0029625197 0)
(-0.00044596745 -0.0007133607 0)
(0.00026246554 0.00072349242 0)
(-0.0005635591 0.0014044199 0)
(-0.0040468773 0.0061232047 0)
(-0.011200979 0.010176958 0)
(-0.020444668 0.01287899 0)
(-0.030826637 0.014225888 0)
(-0.041532193 0.014345798 0)
(-0.051762073 0.013331291 0)
(-0.060739477 0.011210956 0)
(-0.067706711 0.0079999673 0)
(-0.07195517 0.0037860083 0)
(-0.072899933 -0.0011881122 0)
(-0.070184278 -0.00647145 0)
(-0.063805513 -0.01141306 0)
(-0.054222014 -0.015234861 0)
(-0.042388143 -0.017182231 0)
(-0.029703429 -0.016738525 0)
(-0.017818568 -0.013856672 0)
(-0.0082788465 -0.0091226 0)
(-0.0021525151 -0.0037768249 0)
(-1.9362594e-05 0.00023109366 0)
(-0.00099780434 0.0041283112 0)
(-0.0061784076 0.012952986 0)
(-0.016132625 0.019896336 0)
(-0.028523141 0.024373235 0)
(-0.042115902 0.026486611 0)
(-0.05594548 0.02644991 0)
(-0.069072659 0.024403282 0)
(-0.080583818 0.020398375 0)
(-0.089586163 0.014486174 0)
(-0.095238022 0.0068495256 0)
(-0.096828112 -0.0020751007 0)
(-0.09388193 -0.01153023 0)
(-0.086300495 -0.020424699 0)
(-0.074501051 -0.02745487 0)
(-0.059497975 -0.031326932 0)
(-0.042911675 -0.031098413 0)
(-0.02680182 -0.026574824 0)
(-0.013256412 -0.018613868 0)
(-0.0039564523 -0.0091666373 0)
(-0.00027319945 -0.0011864714 0)
(-0.001374303 0.0079748618 0)
(-0.0080939241 0.022070227 0)
(-0.020623065 0.032423683 0)
(-0.035891585 0.038844086 0)
(-0.05240143 0.041698401 0)
(-0.06907736 0.041356864 0)
(-0.084900941 0.038031201 0)
(-0.098887412 0.031798442 0)
(-0.110063 0.022737913 0)
(-0.11748031 0.011112672 0)
(-0.12029008 -0.0024665037 0)
(-0.11783018 -0.016945514 0)
(-0.10978282 -0.030779882 0)
(-0.096372423 -0.042076568 0)
(-0.078518246 -0.048860699 0)
(-0.057961717 -0.049548425 0)
(-0.037188706 -0.043562689 0)
(-0.018994398 -0.031879551 0)
(-0.0059451937 -0.01717141 0)
(-0.00050427327 -0.0035515185 0)
(-0.0016899077 0.012809639 0)
(-0.0097375643 0.033247789 0)
(-0.024519646 0.047508692 0)
(-0.042324011 0.05604509 0)
(-0.061429611 0.059648058 0)
(-0.080692881 0.058929987 0)
(-0.099069565 0.054206837 0)
(-0.11556047 0.045579193 0)
(-0.12915787 0.033126875 0)
(-0.1388304 0.017140716 0)
(-0.14357514 -0.0016594057 0)
(-0.14247427 -0.021947067 0)
(-0.13486952 -0.041795597 0)
(-0.12062554 -0.058671686 0)
(-0.10037245 -0.069747085 0)
(-0.075814197 -0.072488107 0)
(-0.049827023 -0.065546273 0)
(-0.026078808 -0.049706992 0)
(-0.0083842735 -0.028327379 0)
(-0.0007675151 -0.0069912945 0)
(-0.0019375442 0.018465303 0)
(-0.011052465 0.046163795 0)
(-0.027671254 0.064777765 0)
(-0.047568075 0.075609586 0)
(-0.068852765 0.080021086 0)
(-0.090356446 0.07895475 0)
(-0.11106043 0.072868234 0)
(-0.13000788 0.061881791 0)
(-0.14621286 0.046035805 0)
(-0.1585975 0.025577164 0)
(-0.16597603 0.0012322917 0)
(-0.16717648 -0.025550888 0)
(-0.1611394 -0.05251599 0)
(-0.14716212 -0.076498518 0)
(-0.12535174 -0.093668474 0)
(-0.097110971 -0.10017183 0)
(-0.065523062 -0.09332008 0)
(-0.035192897 -0.073142813 0)
(-0.011617885 -0.043482715 0)
(-0.0011366364 -0.011806549 0)
(-0.0021052065 0.024741413 0)
(-0.011974654 0.060417516 0)
(-0.029917599 0.083748974 0)
(-0.051337338 0.097044079 0)
(-0.074229846 0.10236225 0)
(-0.097441191 0.10106247 0)
(-0.12002749 0.093786768 0)
(-0.14113234 0.080674646 0)
(-0.15985384 0.061683828 0)
(-0.17513476 0.036931707 0)
(-0.18570394 0.0070170105 0)
(-0.19012527 -0.026687024 0)
(-0.18688455 -0.061714505 0)
(-0.17463256 -0.094381289 0)
(-0.15269108 -0.11979723 0)
(-0.12177136 -0.13243197 0)
(-0.084748031 -0.12752613 0)
(-0.046975809 -0.10341072 0)
(-0.016034771 -0.063825646 0)
(-0.0017022243 -0.018503761 0)
(-0.0021820544 0.031402339 0)
(-0.012451721 0.075534117 0)
(-0.031121405 0.10382884 0)
(-0.053358365 0.11970145 0)
(-0.077091437 0.12601573 0)
(-0.10121537 0.12463315 0)
(-0.12490729 0.11643191 0)
(-0.14747312 0.10158239 0)
(-0.16817584 0.079925604 0)
(-0.18608263 0.051361608 0)
(-0.19995455 0.016219831 0)
(-0.20820365 -0.024357258 0)
(-0.20894182 -0.067963794 0)
(-0.20015371 -0.11064342 0)
(-0.18016547 -0.14656052 0)
(-0.14854121 -0.16830063 0)
(-0.10727322 -0.16825262 0)
(-0.061852698 -0.14165893 0)
(-0.022059233 -0.090834058 0)
(-0.0025872345 -0.027823028 0)
(-0.0021695214 0.038191668 0)
(-0.012480675 0.090988566 0)
(-0.031236216 0.12432252 0)
(-0.053465827 0.14276448 0)
(-0.07706413 0.15007743 0)
(-0.10100307 0.1487157 0)
(-0.12462456 0.13985968 0)
(-0.14746001 0.12374403 0)
(-0.16902892 0.10008739 0)
(-0.18865284 0.068518805 0)
(-0.20528903 0.028983928 0)
(-0.21738744 -0.0178083 0)
(-0.22291297 -0.069806902 0)
(-0.2193258 -0.12317808 0)
(-0.20388026 -0.17151235 0)
(-0.17459501 -0.20563 0)
(-0.13173259 -0.21448247 0)
(-0.079773325 -0.18849366 0)
(-0.030135731 -0.12611759 0)
(-0.0039770502 -0.040776305 0)
(-0.0020971147 0.044874275 0)
(-0.012161184 0.10626815 0)
(-0.030400238 0.14447928 0)
(-0.051731033 0.16526383 0)
(-0.074036702 0.17338805 0)
(-0.096401609 0.17200037 0)
(-0.11838082 0.16266433 0)
(-0.13979372 0.14573694 0)
(-0.16050498 0.12084683 0)
(-0.18022251 0.087352426 0)
(-0.19829406 0.044769624 0)
(-0.21345088 -0.0067866224 0)
(-0.22384756 -0.066095301 0)
(-0.22673478 -0.12975297 0)
(-0.21847598 -0.19146168 0)
(-0.19538907 -0.2408902 0)
(-0.15520824 -0.2635127 0)
(-0.099820045 -0.2432778 0)
(-0.040657783 -0.17107833 0)
(-0.0061594484 -0.058694156 0)
(-0.0020463812 0.051316299 0)
(-0.011766169 0.12098249 0)
(-0.029047053 0.16357647 0)
(-0.048599853 0.18613228 0)
(-0.068328373 0.19457302 0)
(-0.087499423 0.19285838 0)
(-0.10595081 0.18302158 0)
(-0.12385337 0.16561348 0)
(-0.1414848 0.14023505 0)
(-0.1590264 0.1060194 0)
(-0.17637984 0.062050823 0)
(-0.19298641 0.0077658348 0)
(-0.20738395 -0.056550867 0)
(-0.21697047 -0.12857765 0)
(-0.21788988 -0.20297238 0)
(-0.20499539 -0.26936303 0)
(-0.17305924 -0.31059112 0)
(-0.11974357 -0.30328232 0)
(-0.053766476 -0.22628733 0)
(-0.0095566828 -0.083252931 0)
(-0.0021942204 0.057620452 0)
(-0.011842351 0.13502284 0)
(-0.028024872 0.18102805 0)
(-0.045003868 0.20427639 0)
(-0.060794072 0.21211312 0)
(-0.074998444 0.20943944 0)
(-0.087855409 0.19882606 0)
(-0.099960847 0.18107577 0)
(-0.11205424 0.15583092 0)
(-0.1248482 0.12208128 0)
(-0.13888202 0.078549084 0)
(-0.15433145 0.024045345 0)
(-0.17057989 -0.042021109 0)
(-0.18582689 -0.11896458 0)
(-0.19656294 -0.20322466 0)
(-0.19698891 -0.28589719 0)
(-0.17921843 -0.34910822 0)
(-0.13561392 -0.36299494 0)
(-0.068924331 -0.2905156 0)
(-0.014692381 -0.1163961 0)
(-0.0028999673 0.064355248 0)
(-0.013367377 0.14876037 0)
(-0.028706832 0.19647062 0)
(-0.042376949 0.21861152 0)
(-0.052753477 0.22439287 0)
(-0.060081006 0.21977243 0)
(-0.065189909 0.20786103 0)
(-0.069189374 0.18971649 0)
(-0.073296265 0.16505664 0)
(-0.078730164 0.13282191 0)
(-0.08663549 0.091521906 0)
(-0.097946134 0.039511201 0)
(-0.11306445 -0.024688628 0)
(-0.1314139 -0.10193165 0)
(-0.15066819 -0.19104293 0)
(-0.16562484 -0.28617022 0)
(-0.1669585 -0.37156834 0)
(-0.14179309 -0.41404449 0)
(-0.084206713 -0.35950698 0)
(-0.02195839 -0.15993356 0)
(-0.0048755681 0.072968452 0)
(-0.017988066 0.16324804 0)
(-0.033003026 0.20972235 0)
(-0.042381022 0.22795172 0)
(-0.045475787 0.22962653 0)
(-0.043706265 0.22176829 0)
(-0.038764387 0.20788819 0)
(-0.032371752 0.18919454 0)
(-0.026204457 0.16543151 0)
(-0.021896207 0.13554213 0)
(-0.021074331 0.097957334 0)
(-0.02531268 0.050804388 0)
(-0.035981244 -0.0079484894 0)
(-0.053871635 -0.080356774 0)
(-0.078487335 -0.16763369 0)
(-0.10664627 -0.26806131 0)
(-0.1297239 -0.3711915 0)
(-0.13117187 -0.44601518 0)
(-0.095390409 -0.42487396 0)
(-0.030960297 -0.21462103 0)
(-0.009453009 0.086537114 0)
(-0.028228217 0.18025555 0)
(-0.042816983 0.2204123 0)
(-0.045607364 0.23058851 0)
(-0.038340077 0.22553137 0)
(-0.024403983 0.21302219 0)
(-0.0066443188 0.19657373 0)
(0.012542812 0.17724349 0)
(0.031094931 0.15470826 0)
(0.047124392 0.12787796 0)
(0.058708978 0.095200819 0)
(0.063864716 0.054806418 0)
(0.060481201 0.0045276691 0)
(0.046592819 -0.058247427 0)
(0.02071486 -0.13644144 0)
(-0.017017965 -0.23245395 0)
(-0.061342242 -0.34357467 0)
(-0.095193012 -0.44789405 0)
(-0.095174223 -0.47382114 0)
(-0.039334011 -0.27929371 0)
(-0.018684726 0.11086864 0)
(-0.046686871 0.20102983 0)
(-0.05682018 0.2263558 0)
(-0.046612613 0.222877 0)
(-0.022994936 0.20829033 0)
(0.0078558842 0.19013368 0)
(0.041874612 0.17109455 0)
(0.076234224 0.15158792 0)
(0.10876332 0.13099441 0)
(0.13756099 0.10812759 0)
(0.16070206 0.081514719 0)
(0.17608639 0.049462853 0)
(0.18119454 0.010023707 0)
(0.17332444 -0.039232866 0)
(0.14946018 -0.10176253 0)
(0.10673043 -0.18276265 0)
(0.045007988 -0.28765687 0)
(-0.022997108 -0.40966546 0)
(-0.07297929 -0.49007397 0)
(-0.041308298 -0.34979334 0)
(-0.033355755 0.15586107 0)
(-0.0688824 0.2202799 0)
(-0.05609907 0.21659358 0)
(-0.017785407 0.19414733 0)
(0.031953491 0.16951376 0)
(0.085148258 0.14711053 0)
(0.13775267 0.12746351 0)
(0.18750066 0.1098054 0)
(0.23285417 0.092980357 0)
(0.27245411 0.075719914 0)
(0.30478595 0.056734037 0)
(0.3280124 0.0346816 0)
(0.33965972 0.0080618604 0)
(0.33686696 -0.024877111 0)
(0.31571996 -0.066843724 0)
(0.27135561 -0.12344116 0)
(0.1989388 -0.20543769 0)
(0.10104934 -0.32475694 0)
(-0.012950793 -0.45423269 0)
(-0.023900676 -0.40833935 0)
(-0.03300554 0.23931689 0)
(-0.042515616 0.21808478 0)
(0.042134752 0.16413569 0)
(0.12707048 0.12741923 0)
(0.20655439 0.10084335 0)
(0.27847253 0.081027568 0)
(0.3424531 0.066099279 0)
(0.39869295 0.054322578 0)
(0.44738509 0.04423634 0)
(0.48839725 0.034703179 0)
(0.52109125 0.0248126 0)
(0.54425426 0.013784878 0)
(0.55591341 0.00086176004 0)
(0.55387548 -0.014669411 0)
(0.53417889 -0.034565598 0)
(0.49150736 -0.062209858 0)
(0.41732667 -0.10681409 0)
(0.30365788 -0.19313098 0)
(0.12287803 -0.33689026 0)
(0.052289177 -0.3943526 0)
(0.24308504 0.15265859 0)
(0.30552898 0.11866078 0)
(0.45507614 0.076156347 0)
(0.56013711 0.050806901 0)
(0.63207925 0.035030348 0)
(0.68603621 0.024689004 0)
(0.72857385 0.017844866 0)
(0.7626562 0.013176398 0)
(0.78998156 0.0097345885 0)
(0.81143088 0.0068824727 0)
(0.82719389 0.0041934576 0)
(0.83692973 0.0013807011 0)
(0.83982746 -0.0017560461 0)
(0.83453504 -0.0052331912 0)
(0.81867036 -0.0097457265 0)
(0.78940208 -0.016181299 0)
(0.73789909 -0.026920541 0)
(0.65322404 -0.051296537 0)
(0.45612071 -0.11376635 0)
(0.31789029 -0.17207743 0)
)
;

boundaryField
{
    movingWall
    {
        type            fixedValue;
        value           uniform (1 0 0);
    }
    fixedWalls
    {
        type            fixedValue;
        value           uniform (0 0 0);
    }
    frontAndBack
    {
        type            empty;
    }
}


// ************************************************************************* //
