# Force coefficients
# liftDir      : (0.00000000e+00 1.00000000e+00 0.00000000e+00)
# dragDir      : (1.00000000e+00 0.00000000e+00 0.00000000e+00)
# pitchAxis    : (0.00000000e+00 0.00000000e+00 1.00000000e+00)
# magUInf      : 1.00000000e+00
# lRef         : 1.00000000e+00
# Aref         : 2.00000000e+00
# CofR         : (0.00000000e+00 0.00000000e+00 0.00000000e+00)
# Time         	Cm             	Cd             	Cl             	Cl(f)          	Cl(r)          
0.05           	5.17682460e-01	8.29804473e+01	-5.24041538e+00	-2.10252523e+00	-3.13789015e+00
0.1            	2.87228358e-01	-2.87994651e+01	2.71338824e+00	1.64392248e+00	1.06946576e+00
0.15           	1.96521001e-01	7.60700888e+00	-9.19850210e-01	-2.63404104e-01	-6.56446106e-01
0.2            	1.63473778e-01	5.44835529e+00	-3.01988434e-01	1.24795614e-02	-3.14467995e-01
0.25           	1.46891644e-01	5.07570998e+00	-3.70841760e-01	-3.85292357e-02	-3.32312524e-01
0.3            	1.35205072e-01	4.67626199e+00	-3.89054538e-01	-5.93221968e-02	-3.29732341e-01
0.35           	1.25859308e-01	4.39527612e+00	-4.03332779e-01	-7.58070811e-02	-3.27525698e-01
0.4            	1.18185942e-01	4.17838231e+00	-4.14837326e-01	-8.92327211e-02	-3.25604605e-01
0.45           	1.11791847e-01	4.00201225e+00	-4.24366407e-01	-1.00391356e-01	-3.23975051e-01
0.5            	1.06366491e-01	3.85503824e+00	-4.32783999e-01	-1.10025508e-01	-3.22758490e-01
0.55           	1.01679271e-01	3.73079727e+00	-4.39851304e-01	-1.18246381e-01	-3.21604923e-01
0.6            	9.75650515e-02	3.62474015e+00	-4.46206413e-01	-1.25538155e-01	-3.20668258e-01
0.65           	9.39053785e-02	3.53310063e+00	-4.51609349e-01	-1.31899296e-01	-3.19710053e-01
0.7            	9.06129211e-02	3.45330247e+00	-4.56353470e-01	-1.37563814e-01	-3.18789656e-01
0.75           	8.76217621e-02	3.38311846e+00	-4.60522801e-01	-1.42639638e-01	-3.17883163e-01
0.8            	8.48811300e-02	3.32097967e+00	-4.64097320e-01	-1.47167530e-01	-3.16929790e-01
0.85           	8.23511704e-02	3.26569054e+00	-4.67316881e-01	-1.51307270e-01	-3.16009611e-01
0.9            	8.00002586e-02	3.21615967e+00	-4.70029475e-01	-1.55014479e-01	-3.15014996e-01
0.95           	7.78029609e-02	3.17158523e+00	-4.72311339e-01	-1.58352709e-01	-3.13958630e-01
1              	7.57384981e-02	3.13128572e+00	-4.74303284e-01	-1.61413144e-01	-3.12890140e-01
1.05           	7.37898161e-02	3.09470085e+00	-4.75955747e-01	-1.64188057e-01	-3.11767690e-01
1.1            	7.19427553e-02	3.06134624e+00	-4.77310486e-01	-1.66712488e-01	-3.10597998e-01
1.15           	7.01854455e-02	3.03086896e+00	-4.78428087e-01	-1.69028598e-01	-3.09399489e-01
1.2            	6.85079004e-02	3.00288858e+00	-4.79248648e-01	-1.71116424e-01	-3.08132224e-01
1.25           	6.69016000e-02	2.97717896e+00	-4.79825140e-01	-1.73010970e-01	-3.06814170e-01
1.3            	6.53592523e-02	2.95341039e+00	-4.80162229e-01	-1.74721862e-01	-3.05440367e-01
1.35           	6.38745798e-02	2.93143867e+00	-4.80296948e-01	-1.76273894e-01	-3.04023054e-01
1.4            	6.24421543e-02	2.91104170e+00	-4.80208976e-01	-1.77662334e-01	-3.02546642e-01
1.45           	6.10572133e-02	2.89208654e+00	-4.80003296e-01	-1.78944435e-01	-3.01058861e-01
1.5            	5.97156310e-02	2.87440039e+00	-4.79560646e-01	-1.80064692e-01	-2.99495954e-01
1.55           	5.84137443e-02	2.85788944e+00	-4.78947792e-01	-1.81060152e-01	-2.97887640e-01
1.6            	5.71483118e-02	2.84242397e+00	-4.78175596e-01	-1.81939486e-01	-2.96236110e-01
1.65           	5.59164727e-02	2.82791081e+00	-4.77237849e-01	-1.82702452e-01	-2.94535397e-01
1.7            	5.47156611e-02	2.81425700e+00	-4.76159020e-01	-1.83363849e-01	-2.92795171e-01
1.75           	5.35436156e-02	2.80139907e+00	-4.74933066e-01	-1.83922918e-01	-2.91010149e-01
1.8            	5.23982912e-02	2.78927036e+00	-4.73610058e-01	-1.84406738e-01	-2.89203320e-01
1.85           	5.12778741e-02	2.77778872e+00	-4.72121223e-01	-1.84782737e-01	-2.87338486e-01
1.9            	5.01807287e-02	2.76694715e+00	-4.70474154e-01	-1.85056348e-01	-2.85417806e-01
1.95           	4.91053787e-02	2.75661350e+00	-4.68733248e-01	-1.85261245e-01	-2.83472003e-01
2              	4.80505113e-02	2.74681539e+00	-4.66873128e-01	-1.85386053e-01	-2.81487075e-01
2.05           	4.70149490e-02	2.73748139e+00	-4.64880511e-01	-1.85425307e-01	-2.79455205e-01
2.1            	4.59976089e-02	2.72857813e+00	-4.62805818e-01	-1.85405300e-01	-2.77400518e-01
2.15           	4.49975296e-02	2.72009189e+00	-4.60627792e-01	-1.85316367e-01	-2.75311426e-01
2.2            	4.40138536e-02	2.71196084e+00	-4.58325247e-01	-1.85148770e-01	-2.73176477e-01
2.25           	4.30457957e-02	2.70420244e+00	-4.55919855e-01	-1.84914132e-01	-2.71005723e-01
2.3            	4.20926578e-02	2.69671535e+00	-4.53422241e-01	-1.84618463e-01	-2.68803778e-01
2.35           	4.11538164e-02	2.68955026e+00	-4.50835187e-01	-1.84263777e-01	-2.66571410e-01
2.4            	4.02287152e-02	2.68264841e+00	-4.48147258e-01	-1.83844914e-01	-2.64302344e-01
2.45           	3.93168566e-02	2.67600777e+00	-4.45375876e-01	-1.83371081e-01	-2.62004795e-01
2.5            	3.84177746e-02	2.66960786e+00	-4.42575351e-01	-1.82869901e-01	-2.59705450e-01
2.55           	3.75310853e-02	2.66342999e+00	-4.39656012e-01	-1.82296921e-01	-2.57359091e-01
2.6            	3.66564300e-02	2.65745387e+00	-4.36639574e-01	-1.81663357e-01	-2.54976217e-01
2.65           	3.57934785e-02	2.65168634e+00	-4.33564585e-01	-1.80988814e-01	-2.52575771e-01
2.7            	3.49419450e-02	2.64608199e+00	-4.30428898e-01	-1.80272504e-01	-2.50156394e-01
2.75           	3.41015819e-02	2.64065210e+00	-4.27211659e-01	-1.79504248e-01	-2.47707412e-01
2.8            	3.32721587e-02	2.63537618e+00	-4.23933034e-01	-1.78694358e-01	-2.45238676e-01
2.85           	3.24534648e-02	2.63026582e+00	-4.20609255e-01	-1.77851163e-01	-2.42758092e-01
2.9            	3.16453305e-02	2.62528683e+00	-4.17254786e-01	-1.76982062e-01	-2.40272723e-01
2.95           	3.08476138e-02	2.62044425e+00	-4.13805152e-01	-1.76054962e-01	-2.37750190e-01
3              	3.00601650e-02	2.61571661e+00	-4.10305243e-01	-1.75092457e-01	-2.35212787e-01
3.05           	2.92828591e-02	2.61112656e+00	-4.06751231e-01	-1.74092756e-01	-2.32658475e-01
3.1            	2.85155746e-02	2.60663725e+00	-4.03184713e-01	-1.73076782e-01	-2.30107931e-01
3.15           	2.77582271e-02	2.60225853e+00	-3.99515138e-01	-1.71999342e-01	-2.27515796e-01
3.2            	2.70107139e-02	2.59797365e+00	-3.95832797e-01	-1.70905684e-01	-2.24927112e-01
3.25           	2.62729618e-02	2.59378083e+00	-3.92118312e-01	-1.69786194e-01	-2.22332118e-01
3.3            	2.55448948e-02	2.58968916e+00	-3.88404737e-01	-1.68657474e-01	-2.19747263e-01
3.35           	2.48264668e-02	2.58567558e+00	-3.84622060e-01	-1.67484563e-01	-2.17137497e-01
3.4            	2.41176174e-02	2.58174562e+00	-3.80794056e-01	-1.66279411e-01	-2.14514645e-01
3.45           	2.34182843e-02	2.57792412e+00	-3.76951687e-01	-1.65057559e-01	-2.11894128e-01
3.5            	2.27284210e-02	2.57413114e+00	-3.73095307e-01	-1.63819232e-01	-2.09276074e-01
3.55           	2.20479948e-02	2.57043162e+00	-3.69186636e-01	-1.62545323e-01	-2.06641313e-01
3.6            	2.13769517e-02	2.56679671e+00	-3.65282332e-01	-1.61264214e-01	-2.04018118e-01
3.65           	2.07152668e-02	2.56322726e+00	-3.61318247e-01	-1.59943856e-01	-2.01374390e-01
3.7            	2.00628883e-02	2.55972609e+00	-3.57385147e-01	-1.58629685e-01	-1.98755462e-01
3.75           	1.94197924e-02	2.55628118e+00	-3.53422796e-01	-1.57291606e-01	-1.96131191e-01
3.8            	1.87859485e-02	2.55289552e+00	-3.49436983e-01	-1.55932543e-01	-1.93504440e-01
3.85           	1.81613211e-02	2.54956166e+00	-3.45442458e-01	-1.54559908e-01	-1.90882550e-01
3.9            	1.75458794e-02	2.54629149e+00	-3.41434948e-01	-1.53171595e-01	-1.88263353e-01
3.95           	1.69395902e-02	2.54306987e+00	-3.37414315e-01	-1.51767567e-01	-1.85646748e-01
4              	1.63424216e-02	2.53989001e+00	-3.33398464e-01	-1.50356810e-01	-1.83041653e-01
4.05           	1.57543474e-02	2.53676724e+00	-3.29367463e-01	-1.48929384e-01	-1.80438079e-01
4.1            	1.51753356e-02	2.53368530e+00	-3.25323811e-01	-1.47486570e-01	-1.77837241e-01
4.15           	1.46053405e-02	2.53065044e+00	-3.21327730e-01	-1.46058524e-01	-1.75269205e-01
4.2            	1.40443427e-02	2.52767472e+00	-3.17311378e-01	-1.44611347e-01	-1.72700032e-01
4.25           	1.34923108e-02	2.52472288e+00	-3.13279439e-01	-1.43147409e-01	-1.70132031e-01
4.3            	1.29492026e-02	2.52181639e+00	-3.09263555e-01	-1.41682575e-01	-1.67580980e-01
4.35           	1.24149883e-02	2.51896235e+00	-3.05225701e-01	-1.40197862e-01	-1.65027839e-01
4.4            	1.18896222e-02	2.51613553e+00	-3.01212486e-01	-1.38716621e-01	-1.62495865e-01
4.45           	1.13730648e-02	2.51334442e+00	-2.97227269e-01	-1.37240570e-01	-1.59986700e-01
4.5            	1.08652930e-02	2.51059631e+00	-2.93213296e-01	-1.35741355e-01	-1.57471941e-01
4.55           	1.03662553e-02	2.50788060e+00	-2.89232696e-01	-1.34250093e-01	-1.54982603e-01
4.6            	9.87590816e-03	2.50520641e+00	-2.85269333e-01	-1.32758758e-01	-1.52510574e-01
4.65           	9.39421110e-03	2.50256040e+00	-2.81311827e-01	-1.31261702e-01	-1.50050124e-01
4.7            	8.92111981e-03	2.49994116e+00	-2.77375299e-01	-1.29766530e-01	-1.47608769e-01
4.75           	8.45659490e-03	2.49737454e+00	-2.73437099e-01	-1.28261955e-01	-1.45175145e-01
4.8            	8.00058217e-03	2.49484049e+00	-2.69539177e-01	-1.26769006e-01	-1.42770171e-01
4.85           	7.55304488e-03	2.49232148e+00	-2.65624480e-01	-1.25259195e-01	-1.40365285e-01
4.9            	7.11392465e-03	2.48983739e+00	-2.61746591e-01	-1.23759371e-01	-1.37987220e-01
4.95           	6.68317335e-03	2.48738369e+00	-2.57898413e-01	-1.22266033e-01	-1.35632380e-01
5              	6.26074888e-03	2.48495586e+00	-2.54050330e-01	-1.20764416e-01	-1.33285914e-01
5.05           	5.84659438e-03	2.48256081e+00	-2.50228756e-01	-1.19267784e-01	-1.30960972e-01
5.1            	5.44064945e-03	2.48018982e+00	-2.46458700e-01	-1.17788701e-01	-1.28670000e-01
5.15           	5.04287383e-03	2.47783823e+00	-2.42677254e-01	-1.16295753e-01	-1.26381501e-01
5.2            	4.65319870e-03	2.47555117e+00	-2.38948297e-01	-1.14820950e-01	-1.24127347e-01
5.25           	4.27157721e-03	2.47325679e+00	-2.35220406e-01	-1.13338626e-01	-1.21881780e-01
5.3            	3.89794707e-03	2.47100185e+00	-2.31542316e-01	-1.11873211e-01	-1.19669105e-01
5.35           	3.53226137e-03	2.46876605e+00	-2.27851424e-01	-1.10393450e-01	-1.17457973e-01
5.4            	3.17444600e-03	2.46654995e+00	-2.24217155e-01	-1.08934131e-01	-1.15283023e-01
5.45           	2.82444610e-03	2.46436336e+00	-2.20606239e-01	-1.07478673e-01	-1.13127565e-01
5.5            	2.48220431e-03	2.46219119e+00	-2.17014999e-01	-1.06025295e-01	-1.10989704e-01
5.55           	2.14765312e-03	2.46006092e+00	-2.13473425e-01	-1.04589059e-01	-1.08884366e-01
5.6            	1.82073314e-03	2.45795026e+00	-2.09957120e-01	-1.03157827e-01	-1.06799293e-01
5.65           	1.50138433e-03	2.45585728e+00	-2.06453624e-01	-1.01725428e-01	-1.04728196e-01
5.7            	1.18953736e-03	2.45378478e+00	-2.02990245e-01	-1.00305585e-01	-1.02684660e-01
5.75           	8.85126086e-04	2.45173129e+00	-1.99570462e-01	-9.89001052e-02	-1.00670357e-01
5.8            	5.88090909e-04	2.44971071e+00	-1.96165549e-01	-9.74946835e-02	-9.86708654e-02
5.85           	2.98363918e-04	2.44768704e+00	-1.92786952e-01	-9.60951123e-02	-9.66918402e-02
5.9            	1.58694081e-05	2.44572744e+00	-1.89465463e-01	-9.47168620e-02	-9.47486008e-02
5.95           	-2.59455002e-04	2.44375864e+00	-1.86165064e-01	-9.33419872e-02	-9.28230772e-02
6              	-5.27675137e-04	2.44180981e+00	-1.82892818e-01	-9.19740843e-02	-9.09187340e-02
6.05           	-7.88864394e-04	2.43988596e+00	-1.79669253e-01	-9.06234907e-02	-8.90457619e-02
6.1            	-1.04309004e-03	2.43797855e+00	-1.76481868e-01	-8.92840240e-02	-8.71978439e-02
6.15           	-1.29041871e-03	2.43609046e+00	-1.73319894e-01	-8.79503655e-02	-8.53695281e-02
6.2            	-1.53092422e-03	2.43422468e+00	-1.70195265e-01	-8.66285567e-02	-8.35667082e-02
6.25           	-1.76467898e-03	2.43237181e+00	-1.67107272e-01	-8.53183148e-02	-8.17889569e-02
6.3            	-1.99175635e-03	2.43054739e+00	-1.64068642e-01	-8.40260775e-02	-8.00425648e-02
6.35           	-2.21221758e-03	2.42873303e+00	-1.61029181e-01	-8.27268081e-02	-7.83023730e-02
6.4            	-2.42614871e-03	2.42693421e+00	-1.58055838e-01	-8.14540679e-02	-7.66017704e-02
6.45           	-2.63361814e-03	2.42515760e+00	-1.55118256e-01	-8.01927461e-02	-7.49255099e-02
6.5            	-2.83469728e-03	2.42340726e+00	-1.52215705e-01	-7.89425498e-02	-7.32731552e-02
6.55           	-3.02945450e-03	2.42164311e+00	-1.49333062e-01	-7.76959854e-02	-7.16370764e-02
6.6            	-3.21797428e-03	2.41991563e+00	-1.46530127e-01	-7.64830377e-02	-7.00470891e-02
6.65           	-3.40032069e-03	2.41820521e+00	-1.43741306e-01	-7.52709738e-02	-6.84703324e-02
6.7            	-3.57657083e-03	2.41651508e+00	-1.40990677e-01	-7.40719093e-02	-6.69187676e-02
6.75           	-3.74679816e-03	2.41483423e+00	-1.38269456e-01	-7.28815261e-02	-6.53879298e-02
6.8            	-3.91108302e-03	2.41317450e+00	-1.35602377e-01	-7.17122714e-02	-6.38901054e-02
6.85           	-4.06949797e-03	2.41155088e+00	-1.32968531e-01	-7.05537633e-02	-6.24147673e-02
6.9            	-4.22211208e-03	2.40986129e+00	-1.30356435e-01	-6.94003297e-02	-6.09561055e-02
6.95           	-4.36900421e-03	2.40825221e+00	-1.27800648e-01	-6.82693285e-02	-5.95313200e-02
7              	-4.51025190e-03	2.40665304e+00	-1.25281352e-01	-6.71509279e-02	-5.81304241e-02
7.05           	-4.64592900e-03	2.40506570e+00	-1.22796179e-01	-6.60440183e-02	-5.67521603e-02
7.1            	-4.77611419e-03	2.40348930e+00	-1.20365545e-01	-6.49588869e-02	-5.54066585e-02
7.15           	-4.90088056e-03	2.40192605e+00	-1.17979134e-01	-6.38904477e-02	-5.40886866e-02
7.2            	-5.02012353e-03	2.40037862e+00	-1.15603856e-01	-6.28220516e-02	-5.27818045e-02
7.25           	-5.13408218e-03	2.39885679e+00	-1.13290534e-01	-6.17793494e-02	-5.15111850e-02
7.3            	-5.24286157e-03	2.39733891e+00	-1.10996471e-01	-6.07410972e-02	-5.02553741e-02
7.35           	-5.34654479e-03	2.39578359e+00	-1.08758214e-01	-5.97256517e-02	-4.90325621e-02
7.4            	-5.44519902e-03	2.39430096e+00	-1.06542288e-01	-5.87163429e-02	-4.78259449e-02
7.45           	-5.53890830e-03	2.39282395e+00	-1.04376865e-01	-5.77273410e-02	-4.66495244e-02
7.5            	-5.62774686e-03	2.39135465e+00	-1.02262406e-01	-5.67589501e-02	-4.55034564e-02
7.55           	-5.71177788e-03	2.38989958e+00	-1.00160180e-01	-5.57918677e-02	-4.43683120e-02
7.6            	-5.79108073e-03	2.38845411e+00	-9.81102032e-02	-5.48461823e-02	-4.32640209e-02
7.65           	-5.86573022e-03	2.38702104e+00	-9.61079809e-02	-5.39197206e-02	-4.21882602e-02
7.7            	-5.93579759e-03	2.38559797e+00	-9.41438334e-02	-5.30077143e-02	-4.11361191e-02
7.75           	-6.00135303e-03	2.38418990e+00	-9.22035769e-02	-5.21031415e-02	-4.01004354e-02
7.8            	-6.06247546e-03	2.38279067e+00	-9.03142391e-02	-5.12195950e-02	-3.90946441e-02
7.85           	-6.11923761e-03	2.38140301e+00	-8.84636836e-02	-5.03510794e-02	-3.81126042e-02
7.9            	-6.17171328e-03	2.38002807e+00	-8.66520159e-02	-4.94977212e-02	-3.71542947e-02
7.95           	-6.21997459e-03	2.37866592e+00	-8.48692292e-02	-4.86545892e-02	-3.62146400e-02
8              	-6.26409497e-03	2.37730425e+00	-8.31146869e-02	-4.78214384e-02	-3.52932485e-02
8.05           	-6.30415285e-03	2.37596669e+00	-8.14136052e-02	-4.70109555e-02	-3.44026498e-02
8.1            	-6.34021995e-03	2.37463456e+00	-7.97581691e-02	-4.62193045e-02	-3.35388646e-02
8.15           	-6.37236265e-03	2.37331763e+00	-7.81250813e-02	-4.54349033e-02	-3.26901780e-02
8.2            	-6.40065680e-03	2.37200390e+00	-7.65348578e-02	-4.46680857e-02	-3.18667721e-02
8.25           	-6.42517719e-03	2.37070331e+00	-7.49950572e-02	-4.39227058e-02	-3.10723514e-02
8.3            	-6.44599151e-03	2.36941342e+00	-7.34818995e-02	-4.31869413e-02	-3.02949582e-02
8.35           	-6.46317172e-03	2.36813461e+00	-7.19989905e-02	-4.24626670e-02	-2.95363235e-02
8.4            	-6.47679263e-03	2.36686752e+00	-7.05586154e-02	-4.17561003e-02	-2.88025151e-02
8.45           	-6.48692323e-03	2.36560356e+00	-6.91493312e-02	-4.10615889e-02	-2.80877424e-02
8.5            	-6.49363940e-03	2.36435917e+00	-6.77992602e-02	-4.03932695e-02	-2.74059907e-02
8.55           	-6.49700057e-03	2.36311560e+00	-6.64487900e-02	-3.97213956e-02	-2.67273945e-02
8.6            	-6.49708645e-03	2.36188629e+00	-6.51525638e-02	-3.90733684e-02	-2.60791955e-02
8.65           	-6.49396523e-03	2.36066626e+00	-6.38923949e-02	-3.84401627e-02	-2.54522322e-02
8.7            	-6.48770509e-03	2.35945521e+00	-6.26678693e-02	-3.78216398e-02	-2.48462296e-02
8.75           	-6.47837234e-03	2.35826395e+00	-6.14663311e-02	-3.72115379e-02	-2.42547932e-02
8.8            	-6.46604247e-03	2.35704842e+00	-6.03255098e-02	-3.66287973e-02	-2.36967124e-02
8.85           	-6.45077407e-03	2.35586808e+00	-5.92060185e-02	-3.60537833e-02	-2.31522352e-02
8.9            	-6.43263733e-03	2.35469581e+00	-5.81151970e-02	-3.54902358e-02	-2.26249612e-02
8.95           	-6.41170286e-03	2.35352568e+00	-5.70623196e-02	-3.49428627e-02	-2.21194570e-02
9              	-6.38802033e-03	2.35237125e+00	-5.60405192e-02	-3.44082799e-02	-2.16322392e-02
9.05           	-6.36166692e-03	2.35122162e+00	-5.50497180e-02	-3.38865259e-02	-2.11631921e-02
9.1            	-6.33271869e-03	2.35008580e+00	-5.41144362e-02	-3.33899368e-02	-2.07244994e-02
9.15           	-6.30123374e-03	2.34895089e+00	-5.31830919e-02	-3.28927797e-02	-2.02903122e-02
9.2            	-6.26728345e-03	2.34782795e+00	-5.22894406e-02	-3.24120037e-02	-1.98774368e-02
9.25           	-6.23093392e-03	2.34671505e+00	-5.14349799e-02	-3.19484239e-02	-1.94865560e-02
9.3            	-6.19224708e-03	2.34560989e+00	-5.06106285e-02	-3.14975614e-02	-1.91130672e-02
9.35           	-6.15128376e-03	2.34450917e+00	-4.98090845e-02	-3.10558260e-02	-1.87532585e-02
9.4            	-6.10811354e-03	2.34341809e+00	-4.90667549e-02	-3.06414910e-02	-1.84252639e-02
9.45           	-6.06278971e-03	2.34233604e+00	-4.83333621e-02	-3.02294708e-02	-1.81038913e-02
9.5            	-6.01537489e-03	2.34126557e+00	-4.76292532e-02	-2.98300015e-02	-1.77992517e-02
9.55           	-5.96593418e-03	2.34020102e+00	-4.69600973e-02	-2.94459828e-02	-1.75141145e-02
9.6            	-5.91452741e-03	2.33914161e+00	-4.63186701e-02	-2.90738625e-02	-1.72448076e-02
9.65           	-5.86121519e-03	2.33807895e+00	-4.57076806e-02	-2.87150555e-02	-1.69926251e-02
9.7            	-5.80605967e-03	2.33703514e+00	-4.51484061e-02	-2.83802627e-02	-1.67681434e-02
9.75           	-5.74910551e-03	2.33600308e+00	-4.45716895e-02	-2.80349502e-02	-1.65367392e-02
9.8            	-5.69042409e-03	2.33497357e+00	-4.40445071e-02	-2.77126776e-02	-1.63318295e-02
9.85           	-5.63007354e-03	2.33393654e+00	-4.35576727e-02	-2.74089099e-02	-1.61487628e-02
9.9            	-5.56810295e-03	2.33292733e+00	-4.30817954e-02	-2.71090006e-02	-1.59727948e-02
9.95           	-5.50457281e-03	2.33192169e+00	-4.26368378e-02	-2.68229917e-02	-1.58138461e-02
10             	-5.43954147e-03	2.33092236e+00	-4.22269740e-02	-2.65530284e-02	-1.56739455e-02
10.05          	-5.37306217e-03	2.32992833e+00	-4.18401231e-02	-2.62931237e-02	-1.55469994e-02
10.1           	-5.30518979e-03	2.32894352e+00	-4.14772511e-02	-2.60438154e-02	-1.54334358e-02
10.15          	-5.23597897e-03	2.32796662e+00	-4.11382137e-02	-2.58050858e-02	-1.53331279e-02
10.2           	-5.16548640e-03	2.32699511e+00	-4.08339178e-02	-2.55824453e-02	-1.52514725e-02
10.25          	-5.09376289e-03	2.32602839e+00	-4.05491288e-02	-2.53683273e-02	-1.51808015e-02
10.3           	-5.02085994e-03	2.32506975e+00	-4.02842219e-02	-2.51629709e-02	-1.51212510e-02
10.35          	-4.94683277e-03	2.32412393e+00	-4.00573254e-02	-2.49754955e-02	-1.50818299e-02
10.4           	-4.87172671e-03	2.32317806e+00	-3.98328207e-02	-2.47881370e-02	-1.50446836e-02
10.45          	-4.79559876e-03	2.32224106e+00	-3.96461411e-02	-2.46186693e-02	-1.50274718e-02
10.5           	-4.71849582e-03	2.32131135e+00	-3.94784110e-02	-2.44577013e-02	-1.50207097e-02
10.55          	-4.64046825e-03	2.32038763e+00	-3.93370773e-02	-2.43090069e-02	-1.50280704e-02
10.6           	-4.56156236e-03	2.31947104e+00	-3.92116160e-02	-2.41673704e-02	-1.50442456e-02
10.65          	-4.48182927e-03	2.31855855e+00	-3.91250519e-02	-2.40443552e-02	-1.50806967e-02
10.7           	-4.40131097e-03	2.31765903e+00	-3.90487869e-02	-2.39257044e-02	-1.51230825e-02
10.75          	-4.32005575e-03	2.31676136e+00	-3.89924558e-02	-2.38162836e-02	-1.51761721e-02
10.8           	-4.23811124e-03	2.31586986e+00	-3.89624912e-02	-2.37193569e-02	-1.52431344e-02
10.85          	-4.15552205e-03	2.31498490e+00	-3.89556232e-02	-2.36333336e-02	-1.53222895e-02
10.9           	-4.07233045e-03	2.31410902e+00	-3.89589869e-02	-2.35518239e-02	-1.54071630e-02
10.95          	-3.98858376e-03	2.31323597e+00	-3.89894638e-02	-2.34833157e-02	-1.55061481e-02
11             	-3.90432566e-03	2.31237245e+00	-3.90487570e-02	-2.34287042e-02	-1.56200528e-02
11.05          	-3.81959043e-03	2.31151424e+00	-3.90941309e-02	-2.33666559e-02	-1.57274750e-02
11.1           	-3.73443013e-03	2.31066277e+00	-3.91789344e-02	-2.33238974e-02	-1.58550371e-02
11.15          	-3.64888347e-03	2.30981732e+00	-3.92860586e-02	-2.32919128e-02	-1.59941458e-02
11.2           	-3.56298746e-03	2.30897888e+00	-3.94101558e-02	-2.32680654e-02	-1.61420904e-02
11.25          	-3.47677916e-03	2.30814417e+00	-3.95405807e-02	-2.32470695e-02	-1.62935112e-02
11.3           	-3.39030367e-03	2.30731565e+00	-3.97125659e-02	-2.32465866e-02	-1.64659793e-02
11.35          	-3.30359193e-03	2.30649594e+00	-3.98855145e-02	-2.32463492e-02	-1.66391653e-02
11.4           	-3.21668387e-03	2.30568021e+00	-4.00749335e-02	-2.32541506e-02	-1.68207829e-02
11.45          	-3.12961751e-03	2.30487471e+00	-4.02817314e-02	-2.32704832e-02	-1.70112482e-02
11.5           	-3.04242922e-03	2.30406855e+00	-4.05063496e-02	-2.32956040e-02	-1.72107456e-02
11.55          	-2.95515348e-03	2.30327143e+00	-4.07451700e-02	-2.33277385e-02	-1.74174315e-02
11.6           	-2.86782469e-03	2.30247972e+00	-4.09956966e-02	-2.33656730e-02	-1.76300236e-02
11.65          	-2.78048004e-03	2.30169907e+00	-4.12751660e-02	-2.34180630e-02	-1.78571030e-02
11.7           	-2.69314564e-03	2.30091695e+00	-4.15447999e-02	-2.34655456e-02	-1.80792543e-02
11.75          	-2.60586162e-03	2.30013457e+00	-4.18512966e-02	-2.35315099e-02	-1.83197867e-02
11.8           	-2.51865462e-03	2.29936675e+00	-4.21627261e-02	-2.36000177e-02	-1.85627084e-02
11.85          	-2.43155619e-03	2.29860178e+00	-4.24818694e-02	-2.36724909e-02	-1.88093785e-02
11.9           	-2.34460002e-03	2.29784668e+00	-4.28201578e-02	-2.37546789e-02	-1.90654789e-02
11.95          	-2.25781535e-03	2.29709518e+00	-4.31701870e-02	-2.38429089e-02	-1.93272782e-02
12             	-2.17123095e-03	2.29635063e+00	-4.35333682e-02	-2.39379150e-02	-1.95954531e-02
12.05          	-2.08487554e-03	2.29560954e+00	-4.39135812e-02	-2.40416661e-02	-1.98719151e-02
12.1           	-1.99877401e-03	2.29487602e+00	-4.42896343e-02	-2.41435912e-02	-2.01460432e-02
12.15          	-1.91295847e-03	2.29414814e+00	-4.46857156e-02	-2.42558162e-02	-2.04298993e-02
12.2           	-1.82745403e-03	2.29342583e+00	-4.50927579e-02	-2.43738330e-02	-2.07189249e-02
12.25          	-1.74228627e-03	2.29270933e+00	-4.55073447e-02	-2.44959586e-02	-2.10113861e-02
12.3           	-1.65748225e-03	2.29199626e+00	-4.59350617e-02	-2.46250131e-02	-2.13100486e-02
12.35          	-1.57306762e-03	2.29129192e+00	-4.63801939e-02	-2.47631646e-02	-2.16170293e-02
12.4           	-1.48906185e-03	2.29058880e+00	-4.68172256e-02	-2.48976746e-02	-2.19195509e-02
12.45          	-1.40549379e-03	2.28989381e+00	-4.72715540e-02	-2.50412708e-02	-2.22302832e-02
12.5           	-1.32238651e-03	2.28920560e+00	-4.77333114e-02	-2.51890422e-02	-2.25442692e-02
12.55          	-1.23976364e-03	2.28851903e+00	-4.82057327e-02	-2.53426300e-02	-2.28631027e-02
12.6           	-1.15764616e-03	2.28783996e+00	-4.86806614e-02	-2.54979769e-02	-2.31826846e-02
12.65          	-1.07605869e-03	2.28716615e+00	-4.91708056e-02	-2.56614615e-02	-2.35093441e-02
12.7           	-9.95020817e-04	2.28649787e+00	-4.96636840e-02	-2.58268628e-02	-2.38368212e-02
12.75          	-9.14553989e-04	2.28583442e+00	-5.01608014e-02	-2.59949547e-02	-2.41658467e-02
12.8           	-8.34680348e-04	2.28517761e+00	-5.06652451e-02	-2.61673029e-02	-2.44979422e-02
12.85          	-7.55421787e-04	2.28452337e+00	-5.11789341e-02	-2.63448888e-02	-2.48340452e-02
12.9           	-6.76797096e-04	2.28387598e+00	-5.16942525e-02	-2.65239233e-02	-2.51703292e-02
12.95          	-5.98826353e-04	2.28323371e+00	-5.22136143e-02	-2.67056335e-02	-2.55079808e-02
13             	-5.21529435e-04	2.28259489e+00	-5.27359875e-02	-2.68895232e-02	-2.58464643e-02
13.05          	-4.44928335e-04	2.28196421e+00	-5.32735917e-02	-2.70817242e-02	-2.61918675e-02
13.1           	-3.69037894e-04	2.28133764e+00	-5.38031138e-02	-2.72705948e-02	-2.65325190e-02
13.15          	-2.93879186e-04	2.28071554e+00	-5.43369814e-02	-2.74623699e-02	-2.68746115e-02
13.2           	-2.19471500e-04	2.28009662e+00	-5.48746315e-02	-2.76567873e-02	-2.72178443e-02
13.25          	-1.45832982e-04	2.27948426e+00	-5.54150860e-02	-2.78533760e-02	-2.75617100e-02
13.3           	-7.29820518e-05	2.27887685e+00	-5.59574991e-02	-2.80517316e-02	-2.79057675e-02
13.35          	-9.37026983e-07	2.27827458e+00	-5.65021481e-02	-2.82520111e-02	-2.82501370e-02
13.4           	7.02842356e-05	2.27767742e+00	-5.70493212e-02	-2.84543763e-02	-2.85949448e-02
13.45          	1.40666280e-04	2.27708375e+00	-5.75874718e-02	-2.86530696e-02	-2.89344022e-02
13.5           	2.10185633e-04	2.27649642e+00	-5.81435316e-02	-2.88615802e-02	-2.92819514e-02
13.55          	2.78829413e-04	2.27591380e+00	-5.86876537e-02	-2.90649974e-02	-2.96226563e-02
13.6           	3.46579169e-04	2.27533600e+00	-5.92324560e-02	-2.92696488e-02	-2.99628072e-02
13.65          	4.13417501e-04	2.27476316e+00	-5.97745048e-02	-2.94738349e-02	-3.03006699e-02
13.7           	4.79326599e-04	2.27419663e+00	-6.03147439e-02	-2.96780454e-02	-3.06366986e-02
13.75          	5.44288577e-04	2.27362753e+00	-6.08555876e-02	-2.98835052e-02	-3.09720824e-02
13.8           	6.08286380e-04	2.27306599e+00	-6.13982424e-02	-3.00908348e-02	-3.13074076e-02
13.85          	6.71306109e-04	2.27251086e+00	-6.19247430e-02	-3.02910654e-02	-3.16336776e-02
13.9           	7.33326664e-04	2.27196185e+00	-6.24543786e-02	-3.04938627e-02	-3.19605160e-02
13.95          	7.94331787e-04	2.27141794e+00	-6.29791480e-02	-3.06952422e-02	-3.22839058e-02
14             	8.54303892e-04	2.27087522e+00	-6.35037304e-02	-3.08975613e-02	-3.26061691e-02
14.05          	9.13228242e-04	2.27033943e+00	-6.40173035e-02	-3.10954235e-02	-3.29218800e-02
14.1           	9.71085806e-04	2.26980600e+00	-6.45333697e-02	-3.12955990e-02	-3.32377707e-02
14.15          	1.02786195e-03	2.26927828e+00	-6.50388718e-02	-3.14915739e-02	-3.35472978e-02
14.2           	1.08353932e-03	2.26875544e+00	-6.55371870e-02	-3.16850542e-02	-3.38521328e-02
14.25          	1.13810037e-03	2.26823539e+00	-6.60301459e-02	-3.18769726e-02	-3.41531733e-02
14.3           	1.19152914e-03	2.26771915e+00	-6.65143886e-02	-3.20656652e-02	-3.44487235e-02
14.35          	1.24380861e-03	2.26721201e+00	-6.69899956e-02	-3.22511892e-02	-3.47388064e-02
14.4           	1.29492181e-03	2.26670563e+00	-6.74569590e-02	-3.24335577e-02	-3.50234013e-02
14.45          	1.34485133e-03	2.26620323e+00	-6.79182458e-02	-3.26142716e-02	-3.53039742e-02
14.5           	1.39358191e-03	2.26570566e+00	-6.83687459e-02	-3.27907910e-02	-3.55779549e-02
14.55          	1.44109650e-03	2.26521324e+00	-6.88135645e-02	-3.29656857e-02	-3.58478788e-02
14.6           	1.48738118e-03	2.26472350e+00	-6.92398766e-02	-3.31325571e-02	-3.61073195e-02
14.65          	1.53241801e-03	2.26423751e+00	-6.96588784e-02	-3.32970212e-02	-3.63618572e-02
14.7           	1.57619130e-03	2.26375663e+00	-7.00672292e-02	-3.34574233e-02	-3.66098059e-02
14.75          	1.61868586e-03	2.26327961e+00	-7.04630201e-02	-3.36128242e-02	-3.68501959e-02
14.8           	1.65988582e-03	2.26280638e+00	-7.08480312e-02	-3.37641298e-02	-3.70839014e-02
14.85          	1.69977607e-03	2.26233794e+00	-7.12210631e-02	-3.39107555e-02	-3.73103076e-02
14.9           	1.73834172e-03	2.26187119e+00	-7.15817968e-02	-3.40525567e-02	-3.75292401e-02
14.95          	1.77556755e-03	2.26141020e+00	-7.19310425e-02	-3.41899537e-02	-3.77410888e-02
15             	1.81143984e-03	2.26095153e+00	-7.22632696e-02	-3.43201950e-02	-3.79430747e-02
15.05          	1.84594342e-03	2.26049547e+00	-7.25829170e-02	-3.44455151e-02	-3.81374019e-02
15.1           	1.87906447e-03	2.26004298e+00	-7.28873775e-02	-3.45646243e-02	-3.83227532e-02
15.15          	1.91079170e-03	2.25960764e+00	-7.31696564e-02	-3.46740365e-02	-3.84956199e-02
15.2           	1.94110996e-03	2.25916962e+00	-7.34397491e-02	-3.47787646e-02	-3.86609845e-02
15.25          	1.97000651e-03	2.25873425e+00	-7.36913024e-02	-3.48756447e-02	-3.88156577e-02
15.3           	1.99746568e-03	2.25829624e+00	-7.39386865e-02	-3.49718776e-02	-3.89668089e-02
15.35          	2.02347829e-03	2.25785927e+00	-7.41676792e-02	-3.50603613e-02	-3.91073179e-02
15.4           	2.04803704e-03	2.25744045e+00	-7.43671075e-02	-3.51355167e-02	-3.92315908e-02
15.45          	2.07112846e-03	2.25702002e+00	-7.45521881e-02	-3.52049656e-02	-3.93472225e-02
15.5           	2.09274069e-03	2.25660068e+00	-7.47232474e-02	-3.52688830e-02	-3.94543644e-02
15.55          	2.11286473e-03	2.25618216e+00	-7.48769697e-02	-3.53256201e-02	-3.95513496e-02
15.6           	2.13149278e-03	2.25576800e+00	-7.50109705e-02	-3.53739925e-02	-3.96369780e-02