/*--------------------------------*- C++ -*----------------------------------*\
| =========                 |                                                 |
| \\      /  F ield         | OpenFOAM: The Open Source CFD Toolbox           |
|  \\    /   O peration     | Version:  2112                                  |
|   \\  /    A nd           | Website:  www.openfoam.com                      |
|    \\/     M anipulation  |                                                 |
\*---------------------------------------------------------------------------*/
FoamFile
{
    version     2.0;
    format      ascii;
    arch        "LSB;label=32;scalar=64";
    class       volScalarField;
    location    "3";
    object      T;
}
// * * * * * * * * * * * * * * * * * * * * * * * * * * * * * * * * * * * * * //

dimensions      [0 0 0 1 0 0 0];

internalField   nonuniform List<scalar> 
1000
(
0
0
0
0
0
0
0
0
0
0
0
0
0
0
0
0
0
0
0
0
0
0
0
0
0
0
0
0
0
0
0
0
0
0
0
0
0
0
0
0
0
0
0
0
0
0
0
0
0
0
0
0
0
0
0
0
0
0
0
0
0
0
0
0
0
0
0
0
0
0
0
0
0
0
0
0
0
0
0
0
0
0
0
0
0
0
0
0
0
0
0
0
0
0
0
0
0
0
0
0
0
0
0
0
0
0
0
0
0
0
0
0
0
0
0
0
0
0
0
0
0
0
0
0
0
0
0
0
0
0
0
0
0
0
0
0
0
0
0
0
0
0
0
0
0
0
0
0
0
0
0
-4.57505e-321
5.9239e-318
-5.09427e-315
3.27344e-312
-1.67646e-309
7.12812e-307
-2.58806e-304
8.19105e-302
-2.29564e-299
5.76839e-297
-1.31266e-294
2.72765e-292
-5.2118e-290
9.21122e-288
-1.51354e-285
2.32242e-283
-3.34083e-281
4.52095e-279
-5.77303e-277
6.97544e-275
-7.99493e-273
8.71183e-271
-9.04372e-269
8.96068e-267
-8.48864e-265
7.70062e-263
-6.69943e-261
5.59711e-259
-4.49623e-257
3.47696e-255
-2.59116e-253
1.86282e-251
-1.29316e-249
8.67603e-248
-5.63052e-246
3.53736e-244
-2.15298e-242
1.2704e-240
-7.27222e-239
4.04111e-237
-2.18123e-235
1.14425e-233
-5.837e-232
2.89693e-230
-1.39952e-228
6.58443e-227
-3.01821e-225
1.34852e-223
-5.87522e-222
2.49699e-220
-1.03562e-218
4.19305e-217
-1.65789e-215
6.40356e-214
-2.41693e-212
8.91697e-211
-3.21668e-209
1.1349e-207
-3.91726e-206
1.32311e-204
-4.37431e-203
1.41587e-201
-4.48789e-200
1.39335e-198
-4.23811e-197
1.26319e-195
-3.69005e-194
1.0567e-192
-2.9669e-191
8.16896e-190
-2.20606e-188
5.84423e-187
-1.51903e-185
3.87435e-184
-9.69824e-183
2.38292e-181
-5.74791e-180
1.36129e-178
-3.16584e-177
7.23065e-176
-1.62207e-174
3.57449e-173
-7.73855e-172
1.64609e-170
-3.44063e-169
7.06738e-168
-1.42677e-166
2.83118e-165
-5.52246e-164
1.05898e-162
-1.99651e-161
3.70093e-160
-6.74593e-159
1.20919e-157
-2.13155e-156
3.69553e-155
-6.30175e-154
1.057e-152
-1.74398e-151
2.83064e-150
-4.51986e-149
7.10036e-148
-1.09742e-146
1.66884e-145
-2.49704e-144
3.67637e-143
-5.32611e-142
7.59294e-141
-1.06519e-139
1.47054e-138
-1.99786e-137
2.67114e-136
-3.51463e-135
4.55114e-134
-5.79988e-133
7.27413e-132
-8.97854e-131
1.09067e-129
-1.30389e-128
1.53408e-127
-1.77626e-126
2.02402e-125
-2.26967e-124
2.50463e-123
-2.71986e-122
2.90644e-121
-3.05613e-120
3.16203e-119
-3.21904e-118
3.2243e-117
-3.17741e-116
3.08049e-115
-2.93798e-114
2.75637e-113
-2.54365e-112
2.30876e-111
-2.06097e-110
1.80927e-109
-1.56183e-108
1.32564e-107
-1.10622e-106
9.07466e-106
-7.3173e-105
5.79898e-104
-4.51626e-103
3.45602e-102
-2.59826e-101
1.91882e-100
-1.39176e-99
9.91279e-99
-6.93192e-98
4.75832e-97
-3.20558e-96
2.11894e-95
-1.374e-94
8.73778e-94
-5.44811e-93
3.32962e-92
-1.99394e-91
1.16963e-90
-6.71813e-90
3.77691e-89
-2.07743e-88
1.1174e-87
-5.87439e-87
3.01673e-86
-1.51236e-85
7.3962e-85
-3.52579e-84
1.63685e-83
-7.39304e-83
3.24482e-82
-1.38204e-81
5.70318e-81
-2.27588e-80
8.76204e-80
-3.24507e-79
1.15183e-78
-3.89908e-78
1.25017e-77
-3.75858e-77
1.04256e-76
-2.59073e-76
5.40157e-76
-7.57468e-76
-4.07125e-76
8.20065e-75
-3.85317e-74
1.2847e-73
-3.32529e-73
6.18054e-73
-3.91468e-73
-2.90375e-72
1.65362e-71
-5.39672e-71
1.19796e-70
-1.30775e-70
-3.14654e-70
2.32462e-69
-7.60094e-69
1.50014e-68
-7.15165e-69
-7.83192e-68
3.64361e-67
-8.82974e-67
8.70985e-67
2.82018e-66
-1.6612e-65
4.20449e-65
-3.96881e-65
-1.42541e-64
7.68233e-64
-1.70722e-63
7.18256e-64
8.83326e-63
-3.37524e-62
5.17974e-62
5.3001e-62
-4.97234e-61
1.18882e-60
-4.43008e-61
-6.14742e-60
2.06403e-59
-2.08911e-59
-6.83416e-59
3.15692e-58
-4.38067e-58
-7.41595e-58
4.55085e-57
-7.19528e-57
-8.8924e-57
6.40324e-56
-1.02037e-55
-1.30596e-55
8.88493e-55
-1.2613e-54
-2.25529e-54
1.20031e-53
-1.28042e-53
-4.02997e-53
1.52624e-52
-8.11751e-53
-6.76451e-52
1.72232e-51
4.61175e-52
-1.00641e-50
1.52944e-50
2.69374e-50
-1.25625e-49
6.47572e-50
5.49036e-49
-1.18636e-48
-1.02243e-48
7.54744e-48
-5.6106e-48
-3.01837e-47
6.87686e-47
5.99709e-47
-4.15766e-46
2.17241e-46
1.76923e-45
-3.09314e-45
-5.07657e-45
2.02784e-44
3.09316e-45
-9.9026e-44
8.09521e-44
3.877e-43
-7.21381e-43
-1.17365e-42
4.27091e-42
2.01208e-42
-2.08679e-41
5.77761e-42
8.95842e-41
-8.31956e-41
-3.46105e-40
5.64256e-40
1.21037e-39
-3.06442e-39
-3.7903e-39
1.4828e-38
1.02034e-38
-6.67711e-38
-2.05004e-38
2.86595e-37
7.21253e-39
-1.19105e-36
2.19612e-37
4.84665e-36
-1.60415e-36
-1.94689e-35
8.09933e-36
7.76174e-35
-3.40105e-35
-3.079e-34
1.22168e-34
1.21491e-33
-3.56318e-34
-4.75293e-33
6.22915e-34
1.83264e-32
1.59063e-33
-6.90433e-32
-2.49167e-32
2.51153e-31
1.76019e-31
-8.67426e-31
-9.84878e-31
2.77008e-30
4.81804e-30
-7.77397e-30
-2.12468e-29
1.67121e-29
8.50246e-29
-1.00027e-29
-3.06106e-28
-1.58705e-28
9.64044e-28
1.21251e-27
-2.46679e-27
-5.98774e-27
3.8569e-27
2.3408e-26
6.04224e-27
-7.36933e-26
-8.40695e-26
1.70502e-25
4.34845e-25
-1.52713e-25
-1.57383e-24
-1.06109e-24
4.03266e-24
7.62091e-24
-4.85423e-24
-2.96573e-23
-1.75328e-23
7.40064e-23
1.4108e-22
-6.51419e-23
-5.18899e-22
-4.36043e-22
1.05724e-21
2.69096e-21
2.60644e-22
-7.85438e-21
-1.13572e-20
8.17064e-21
4.54829e-20
3.98355e-20
-7.82099e-20
-2.32039e-19
-1.1267e-19
5.12147e-19
1.10973e-18
2.24658e-19
-2.86319e-18
-5.19729e-18
-1.46229e-19
1.4624e-17
2.45915e-17
-2.89363e-19
-6.99205e-17
-1.19203e-16
-1.13394e-17
3.12437e-16
5.87311e-16
1.92855e-16
-1.26676e-15
-2.86083e-15
-1.86236e-15
4.28393e-15
1.31964e-14
1.37873e-14
-8.74157e-15
-5.41131e-14
-8.38797e-14
-2.38589e-14
1.74209e-13
4.18553e-13
4.03645e-13
-2.58723e-13
-1.59854e-12
-2.71223e-12
-1.64624e-12
3.47013e-12
1.17984e-11
1.69725e-11
7.32754e-12
-2.70169e-11
-7.95012e-11
-1.11864e-10
-5.47028e-11
1.56264e-10
5.01237e-10
7.82803e-10
5.94594e-10
-5.39012e-10
-2.77436e-09
-5.36871e-09
-6.20304e-09
-1.95196e-09
1.047e-08
3.08714e-08
5.17256e-08
5.5049e-08
1.36348e-08
-9.92928e-08
-2.89239e-07
-5.09916e-07
-6.32017e-07
-4.29811e-07
3.87368e-07
2.06885e-06
4.62044e-06
7.51082e-06
9.33567e-06
7.55138e-06
-1.53926e-06
-2.23002e-05
-5.84837e-05
-0.000110872
-0.000173616
-0.000229172
-0.000241958
-0.000151057
0.000137404
0.000757369
0.00188846
0.00375902
0.00664562
0.0108684
0.0167815
0.0247596
0.0351796
0.0484001
0.0647393
0.0844532
0.107715
0.1346
0.165075
0.198989
0.236082
0.275986
0.318244
0.362325
0.407649
0.453608
0.499593
0.545015
0.589326
0.632036
0.672728
0.711059
0.746775
0.779701
0.809743
0.836878
0.86115
0.882654
0.901528
0.917946
0.9321
0.944198
0.954451
0.963069
0.970254
0.976198
0.981077
0.985051
0.988265
0.990845
0.992901
0.994529
0.995808
0.996807
0.997582
0.99818
0.998637
0.998985
0.999248
0.999446
0.999594
0.999704
0.999786
0.999845
0.999889
0.999921
0.999944
0.99996
0.999972
0.99998
0.999986
0.99999
0.999993
0.999995
0.999997
0.999998
0.999999
0.999999
0.999999
1
1
1
1
1
1
1
1
1
1
1
1
0.999998
0.999995
0.999992
0.999991
0.999992
1
1.00002
1.00006
1.00011
1.00017
1.00023
1.00024
1.00015
0.999863
0.999243
0.998112
0.996241
0.993354
0.989132
0.983218
0.97524
0.96482
0.9516
0.935261
0.915547
0.892285
0.8654
0.834925
0.801011
0.763918
0.724014
0.681756
0.637675
0.592351
0.546392
0.500407
0.454985
0.410674
0.367964
0.327272
0.288941
0.253225
0.220299
0.190257
0.163122
0.13885
0.117346
0.0984716
0.0820541
0.0678999
0.0558021
0.0455491
0.0369311
0.0297457
0.0238019
0.018923
0.0149486
0.0117348
0.0091549
0.00709861
0.00547104
0.00419161
0.00319258
0.00241762
0.00182035
0.00136295
0.00101483
0.000751509
0.000553518
0.000405528
0.000295553
0.000214291
0.000154583
0.000110953
7.92433e-05
5.63205e-05
3.98363e-05
2.80433e-05
1.96492e-05
1.37043e-05
9.51454e-06
6.57609e-06
4.52504e-06
3.10011e-06
2.11475e-06
1.43645e-06
9.71628e-07
6.54498e-07
4.39077e-07
2.93373e-07
1.9524e-07
1.29422e-07
8.54604e-08
5.62155e-08
3.68387e-08
2.40508e-08
1.56442e-08
1.0139e-08
6.54754e-09
4.21324e-09
2.70167e-09
1.7264e-09
1.09943e-09
6.97786e-10
4.41395e-10
2.78292e-10
1.74886e-10
1.0955e-10
6.84049e-11
4.2579e-11
2.64212e-11
1.63446e-11
1.00804e-11
6.19837e-12
3.80003e-12
2.32285e-12
1.41578e-12
8.60449e-13
5.2146e-13
3.15137e-13
1.89921e-13
1.14144e-13
6.84156e-14
4.0897e-14
2.43822e-14
1.44982e-14
8.59862e-15
5.08657e-15
3.00135e-15
1.7665e-15
1.03712e-15
6.07402e-16
3.54864e-16
2.06823e-16
1.20254e-16
6.97544e-17
4.03671e-17
2.33065e-17
1.34255e-17
7.71605e-18
4.4247e-18
2.53167e-18
1.44534e-18
8.23355e-19
4.6802e-19
2.65468e-19
1.50258e-19
8.48698e-20
4.7837e-20
2.69079e-20
1.51046e-20
8.46177e-21
4.73089e-21
2.63975e-21
1.47004e-21
8.1705e-22
4.53242e-22
2.50947e-22
1.38679e-22
7.6493e-23
4.2114e-23
2.31435e-23
1.26952e-23
6.95121e-24
3.79929e-24
2.07287e-24
1.12895e-24
6.13785e-25
3.33124e-25
1.80488e-25
9.76228e-26
5.27132e-26
2.84158e-26
1.52925e-26
8.21642e-27
4.40734e-27
2.36029e-27
1.262e-27
6.73687e-28
3.59064e-28
1.91075e-28
1.01522e-28
5.38579e-29
2.85281e-29
1.50882e-29
7.96796e-30
4.20154e-30
2.21221e-30
1.16307e-30
6.10594e-31
3.20089e-31
1.67558e-31
8.75871e-32
4.57195e-32
2.38316e-32
1.24051e-32
6.44836e-33
3.34735e-33
1.73525e-33
8.98333e-34
4.6444e-34
2.39798e-34
1.23648e-34
6.36734e-35
3.27465e-35
1.68194e-35
8.62781e-36
4.42015e-36
2.26164e-36
1.15576e-36
5.89887e-37
3.007e-37
1.53096e-37
7.78515e-38
3.95406e-38
2.00585e-38
1.01633e-38
5.14345e-39
2.59995e-39
1.3127e-39
6.62011e-40
3.33475e-40
1.67789e-40
8.43275e-41
4.23336e-41
2.12282e-41
1.06331e-41
5.32013e-42
2.65894e-42
1.32746e-42
6.62005e-43
3.29787e-43
1.64113e-43
8.15808e-44
4.05112e-44
2.00958e-44
9.95827e-45
4.9296e-45
2.43777e-45
1.20429e-45
5.94326e-46
2.93009e-46
1.44312e-46
7.10049e-47
3.49016e-47
1.71386e-47
8.40773e-48
4.1206e-48
2.01754e-48
9.86886e-49
4.82278e-49
2.35459e-49
1.14848e-49
5.5966e-50
2.72471e-50
1.3253e-50
6.44036e-51
3.12685e-51
1.51673e-51
7.35054e-52
3.55909e-52
1.72175e-52
8.32176e-53
4.01862e-53
1.93891e-53
9.34674e-54
4.50179e-54
2.16638e-54
1.04163e-54
5.00405e-55
2.40193e-55
1.15195e-55
5.52006e-56
2.64296e-56
1.26438e-56
6.04378e-57
2.88657e-57
1.37753e-57
6.56856e-58
3.1296e-58
1.48991e-58
7.08733e-59
3.3687e-59
1.59993e-59
7.59273e-60
3.60045e-60
1.706e-60
8.07729e-61
3.82137e-61
1.80652e-61
8.53366e-62
4.02811e-62
1.89994e-62
8.95479e-63
4.21743e-63
1.98482e-63
9.3341e-64
4.3864e-64
2.05981e-64
9.66568e-65
4.53236e-65
2.12376e-65
9.9444e-66
4.65311e-66
2.17571e-66
1.01661e-66
4.74686e-67
2.21491e-67
1.03277e-67
4.81233e-68
2.24083e-68
1.04272e-68
4.84878e-69
2.25322e-69
1.04637e-69
4.85598e-70
2.25206e-70
1.04375e-70
4.83423e-71
2.23756e-71
1.035e-71
4.78434e-72
2.21017e-72
1.02035e-72
4.70759e-73
2.17055e-73
1.00016e-73
4.60567e-74
2.11956e-74
9.74827e-75
4.48065e-75
2.05819e-75
9.44857e-76
4.33424e-76
1.99626e-76
7.9352e-77
)
;

boundaryField
{
    sides
    {
        type            zeroGradient;
    }
    empty
    {
        type            empty;
    }
}


// ************************************************************************* //
